Title
81377
    1CHL1    C3    1   0.994   1.960  10.335  1.3721  0.1347  0.4571
    1CHL1    H3    2   1.044   2.051  10.297  2.4806  0.1462  1.8552
    1CHL1    O3    3   1.024   1.946  10.471  0.3636 -0.2431  0.3267
    1CHL1   H3'    4   1.027   1.853  10.495 -0.7112 -0.0447  1.3347
    1CHL1    C4    5   0.839   1.983  10.317 -0.3922 -0.2501  0.3753
    1CHL1   H4A    6   0.793   1.893  10.364 -1.1347  0.0597  0.2546
    1CHL1   H4B    7   0.799   2.072  10.369 -1.0745 -0.3994  0.1184
    1CHL1    C5    8   0.804   1.987  10.166 -0.2240  0.5436  0.6021
    1CHL1    C6    9   0.745   2.095  10.113 -0.8481  0.1316  0.4407
    1CHL1    H6   10   0.709   2.175  10.180  1.5400  1.4225  0.3121
    1CHL1    C7   11   0.708   2.111   9.961 -0.3869  0.0725 -0.0456
    1CHL1   H7A   12   0.608   2.158   9.953  0.0152  0.6167 -2.8538
    1CHL1   H7B   13   0.777   2.187   9.919 -1.8380  0.6353 -1.5349
    1CHL1    C8   14   0.723   1.981   9.880 -0.2700 -0.2519  0.1846
    1CHL1    H8   15   0.633   1.921   9.905 -0.2876 -1.1467 -1.8585
    1CHL1   C14   16   0.728   2.008   9.733  0.7790  0.3953 -0.2211
    1CHL1   H14   17   0.817   2.074   9.723 -1.1819  3.3936  0.7113
    1CHL1   C15   18   0.610   2.088   9.677  0.4272  0.2555 -0.0684
    1CHL1  H15A   19   0.512   2.036   9.691 -1.1986  2.4158 -2.4407
    1CHL1  H15B   20   0.614   2.194   9.710 -0.7595  0.9777 -2.0786
    1CHL1   C16   21   0.626   2.071   9.523 -0.2557  0.2638  0.0233
    1CHL1  H16A   22   0.532   2.019   9.494  1.3936 -3.3159  0.5690
    1CHL1  H16B   23   0.642   2.168   9.471 -0.8610 -0.8570 -2.3992
    1CHL1   C17   24   0.747   1.974   9.508  0.6205 -0.1245  0.4267
    1CHL1   H17   25   0.841   2.031   9.517  1.1285 -1.1314  1.8028
    1CHL1   C13   26   0.754   1.897   9.641  0.1091 -0.2893  0.6587
    1CHL1   C18   27   0.634   1.796   9.657  0.3809  0.2907 -0.1416
    1CHL1  H18A   28   0.600   1.765   9.758 -2.9270  0.5329 -1.0577
    1CHL1  H18B   29   0.539   1.829   9.611 -1.5363 -1.2069  2.4554
    1CHL1  H18C   30   0.659   1.697   9.612 -0.0569  0.6835 -1.2695
    1CHL1   C12   31   0.891   1.841   9.684  0.5281  0.0209  0.0096
    1CHL1  H12A   32   0.919   1.754   9.620 -0.2446  0.2012 -0.5995
    1CHL1  H12B   33   0.970   1.917   9.669  0.1465  0.3078 -0.5910
    1CHL1   C11   34   0.891   1.794   9.828  0.0444  0.2734  0.6009
    1CHL1  H11A   35   0.824   1.705   9.828 -0.7098  0.7957 -1.0842
    1CHL1  H11B   36   0.992   1.750   9.841 -1.1533 -2.3755  1.5995
    1CHL1    C9   37   0.853   1.907   9.925 -0.8147  0.0800  0.3190
    1CHL1    H9   38   0.931   1.984   9.909 -1.6311  0.3003 -3.9564
    1CHL1   C10   39   0.855   1.872  10.073  0.7961  0.5927  0.1214
    1CHL1   C19   40   0.758   1.750  10.108 -0.2192  0.2794  0.2129
    1CHL1  H19A   41   0.747   1.725  10.216  2.3493  1.4036  0.8169
    1CHL1  H19B   42   0.662   1.778  10.059  0.5304  1.5387 -0.5848
    1CHL1  H19C   43   0.791   1.663  10.048 -5.0921 -0.2824 -2.1336
    1CHL1    C1   44   1.004   1.828  10.115  0.5888 -0.1350  0.5618
    1CHL1   H1A   45   1.030   1.728  10.073 -1.9242 -1.1109  1.1589
    1CHL1   H1B   46   1.055   1.900  10.048 -0.4553 -0.5976 -0.7784
    1CHL1    C2   47   1.043   1.838  10.257  0.4235 -0.4192 -0.0373
    1CHL1   H2A   48   1.151   1.819  10.280  0.3840  0.2170  0.7319
    1CHL1   H2B   49   0.990   1.755  10.307  0.7800  0.5215  2.0067
    1CHL1   C20   50   0.743   1.893   9.379 -0.0415 -0.1507  0.2048
    1CHL1   H20   51   0.647   1.837   9.370  1.1255 -2.2282  0.0258
    1CHL1   C21   52   0.852   1.790   9.373 -0.5027  0.6454 -0.1108
    1CHL1  H21A   53   0.953   1.830   9.395 -0.8664  2.2778 -1.2686
    1CHL1  H21B   54   0.861   1.747   9.271  1.8070  1.4612 -0.3165
    1CHL1  H21C   55   0.820   1.710   9.443 -3.2969  2.6135  1.0138
    1CHL1   C22   56   0.755   1.993   9.254 -0.5964 -0.6862  0.0870
    1CHL1  H22A   57   0.738   1.934   9.161 -3.4840  0.5095 -0.2421
    1CHL1  H22B   58   0.659   2.045   9.269  0.0945  0.3494  1.0406
    1CHL1   C23   59   0.866   2.093   9.242  0.2835  0.2523 -0.4528
    1CHL1  H23A   60   0.808   2.187   9.238  0.9667  0.6840 -3.9710
    1CHL1  H23B   61   0.935   2.087   9.329 -0.0519  1.0701 -0.1290
    1CHL1   C24   62   0.945   2.081   9.110 -0.1153 -0.4825  0.4440
    1CHL1  H24A   63   1.051   2.103   9.136 -0.3405  1.3578 -0.0974
    1CHL1  H24B   64   0.956   1.979   9.066  2.6231  0.5887 -1.6823
    1CHL1   C25   65   0.907   2.189   8.994  0.5673  0.0316 -0.3058
    1CHL1   H25   66   0.893   2.290   9.038 -2.2456 -0.3568 -0.1616
    1CHL1   C26   67   1.010   2.221   8.885  0.0734  0.6423 -0.0721
    1CHL1  H26A   68   1.097   2.275   8.928 -0.4324  1.5845 -0.2055
    1CHL1  H26B   69   1.039   2.127   8.834 -0.0761  2.0356 -2.8638
    1CHL1  H26C   70   0.958   2.276   8.805 -1.2401 -0.0013  0.3019
    1CHL1   C27   71   0.779   2.130   8.915  0.1086  0.2997 -0.1709
    1CHL1  H27A   72   0.778   2.022   8.889 -2.5808 -0.3839  2.3272
    1CHL1  H27B   73   0.687   2.134   8.977  0.6404  0.0615  0.6492
    1CHL1  H27C   74   0.760   2.173   8.814  0.1921 -2.2773 -1.3716
    2CHL1    C3   75   3.176   6.120  10.271 -0.0717 -1.0663  0.2168
    2CHL1    H3   76   3.268   6.180  10.289 -0.0870 -0.3498 -1.9109
    2CHL1    O3   77   3.137   6.060  10.396  0.9618  0.2867 -0.5215
    2CHL1   H3'   78   3.189   5.979  10.400  0.7771 -0.1642 -3.9128
    2CHL1    C4   79   3.056   6.209  10.216  0.0228  0.8970 -0.2918
    2CHL1   H4A   80   2.962   6.149  10.221 -0.9312  2.1954 -1.7264
    2CHL1   H4B   81   3.032   6.292  10.286 -2.4913 -0.2794  0.4000
    2CHL1    C5   82   3.083   6.255  10.071  0.8851  0.3645  0.5741
    2CHL1    C6   83   3.085   6.386  10.043  0.2632  0.0191  0.4126
    2CHL1    H6   84   3.066   6.457  10.124  1.9478  0.3691  0.5232
    2CHL1    C7   85   3.093   6.439   9.902 -0.3848  0.1424  0.0512
    2CHL1   H7A   86   3.025   6.526   9.891 -0.1680  0.3199  0.1167
    2CHL1   H7B   87   3.193   6.488   9.896 -0.7170  0.6601 -1.4353
    2CHL1    C8   88   3.078   6.327   9.791 -0.1873  0.3383  0.3223
    2CHL1    H8   89   2.974   6.289   9.795  0.2918 -0.9966  0.7179
    2CHL1   C14   90   3.112   6.378   9.657  0.1636 -0.0546  0.0617
    2CHL1   H14   91   3.217   6.415   9.667 -0.0077  0.1035  1.6452
    2CHL1   C15   92   3.028   6.498   9.613  0.2675 -0.3441 -0.4346
    2CHL1  H15A   93   2.918   6.494   9.623  0.0303 -1.5859 -2.8562
    2CHL1  H15B   94   3.054   6.595   9.661 -1.2281 -0.3126  0.3380
    2CHL1   C16   95   3.062   6.515   9.460 -0.2481  0.0769  0.1571
    2CHL1  H16A   96   2.968   6.536   9.404 -0.2020 -0.9405 -0.3273
    2CHL1  H16B   97   3.132   6.598   9.441 -0.3416  0.0947 -0.1188
    2CHL1   C17   98   3.136   6.376   9.426 -0.0293  0.2258  0.1602
    2CHL1   H17   99   3.245   6.392   9.441  0.1842 -0.7764 -0.2910
    2CHL1   C13  100   3.103   6.281   9.545 -0.1700  0.3191 -0.2830
    2CHL1   C18  101   2.961   6.226   9.508 -0.2985  0.0682 -0.4463
    2CHL1  H18A  102   2.909   6.181   9.595 -2.7642  0.3785 -1.6390
    2CHL1  H18B  103   2.887   6.303   9.474 -0.7131 -0.6645 -1.2547
    2CHL1  H18C  104   2.968   6.155   9.423 -1.2802 -0.5816  0.0053
    2CHL1   C12  105   3.203   6.167   9.573  0.0299 -0.1523  0.7999
    2CHL1  H12A  106   3.203   6.083   9.501  0.3386 -0.9770  1.7460
    2CHL1  H12B  107   3.311   6.193   9.573  0.1945 -0.6597 -1.3117
    2CHL1   C11  108   3.172   6.103   9.708 -0.0602  0.8189 -0.5344
    2CHL1  H11A  109   3.070   6.058   9.703  0.2813  0.0259 -0.4914
    2CHL1  H11B  110   3.251   6.028   9.730 -1.9500 -1.3926 -0.8779
    2CHL1    C9  111   3.163   6.205   9.834  0.0102  0.0081  0.1803
    2CHL1    H9  112   3.268   6.239   9.844  0.4493 -0.9384 -0.9432
    2CHL1   C10  113   3.125   6.148   9.969 -0.1793  0.6964  0.2366
    2CHL1   C19  114   2.999   6.050   9.952 -0.5501 -0.3425 -0.5328
    2CHL1  H19A  115   2.972   5.997  10.045 -0.1668 -1.5660 -1.0906
    2CHL1  H19B  116   2.906   6.102   9.921 -0.5579 -0.4833 -0.7565
    2CHL1  H19C  117   3.014   5.972   9.873 -2.0312 -0.0901 -1.0973
    2CHL1    C1  118   3.245   6.079  10.038 -0.2664  0.2504  0.4133
    2CHL1   H1A  119   3.284   5.992   9.981 -0.6390  0.2742  0.1169
    2CHL1   H1B  120   3.330   6.150  10.040 -2.7071  3.4610 -0.2518
    2CHL1    C2  121   3.222   6.018  10.177 -0.1724  0.8361  0.0532
    2CHL1   H2A  122   3.318   5.982  10.220  0.6970  1.8801 -0.9516
    2CHL1   H2B  123   3.146   5.939  10.161 -1.3175  2.1797 -1.4830
    2CHL1   C20  124   3.130   6.335   9.283 -0.0395  0.2159 -0.2219
    2CHL1   H20  125   3.032   6.289   9.258  0.4650 -1.2176  0.3248
    2CHL1   C21  126   3.238   6.227   9.261 -0.8922  0.9320  0.1158
    2CHL1  H21A  127   3.240   6.197   9.154 -0.1930 -0.9104  0.5978
    2CHL1  H21B  128   3.209   6.129   9.305 -1.8226  1.0600 -0.1861
    2CHL1  H21C  129   3.334   6.261   9.304 -1.0888  0.5517  0.8890
    2CHL1   C22  130   3.149   6.461   9.195 -0.0591  0.2511  0.3684
    2CHL1  H22A  131   3.063   6.532   9.194 -0.2433  0.1158  2.4133
    2CHL1  H22B  132   3.231   6.515   9.247 -0.0669  0.2391  0.3932
    2CHL1   C23  133   3.188   6.446   9.045 -0.0260  0.6547 -0.6626
    2CHL1  H23A  134   3.287   6.396   9.040 -0.7949 -1.1608  1.3368
    2CHL1  H23B  135   3.113   6.390   8.986 -1.1041 -0.7342  1.8971
    2CHL1   C24  136   3.210   6.575   8.964  0.1938 -0.0847  0.2297
    2CHL1  H24A  137   3.112   6.627   8.965 -1.1399 -2.4488  1.0753
    2CHL1  H24B  138   3.291   6.627   9.020  1.6497 -2.5350  0.5394
    2CHL1   C25  139   3.262   6.561   8.818  0.0848  0.3530  0.3295
    2CHL1   H25  140   3.328   6.473   8.828 -0.3021  0.0542  0.2975
    2CHL1   C26  141   3.156   6.528   8.712 -0.0782 -0.7727  0.0613
    2CHL1  H26A  142   3.091   6.453   8.761 -0.8549 -1.3214 -1.7050
    2CHL1  H26B  143   3.094   6.616   8.685 -0.0794  0.0245  2.4559
    2CHL1  H26C  144   3.211   6.483   8.626  1.7265 -0.2225  0.8817
    2CHL1   C27  145   3.355   6.676   8.791  0.4009  0.6049 -0.0725
    2CHL1  H27A  146   3.298   6.771   8.805  1.2540  1.2495 -0.8396
    2CHL1  H27B  147   3.441   6.673   8.861  1.2738 -0.6369 -1.1703
    2CHL1  H27C  148   3.392   6.673   8.686 -2.0496 -0.9272 -0.9796
    3CHL1    C3  149   3.669   5.769  10.411 -0.2887  0.1365  0.3491
    3CHL1    H3  150   3.765   5.822  10.431 -0.3205  0.3618 -0.0831
    3CHL1    O3  151   3.616   5.710  10.529 -0.4678  0.1311 -0.3070
    3CHL1   H3'  152   3.531   5.670  10.509 -0.1009 -1.9797  1.9453
    3CHL1    C4  153   3.570   5.875  10.356 -0.7360 -0.7697  0.1863
    3CHL1   H4A  154   3.472   5.824  10.351  0.2260 -2.6528 -0.7805
    3CHL1   H4B  155   3.563   5.957  10.430  0.4067 -1.1233  0.7159
    3CHL1    C5  156   3.622   5.937  10.224  0.1911 -0.0020  0.1252
    3CHL1    C6  157   3.636   6.067  10.204 -0.2586  0.1032  0.0166
    3CHL1    H6  158   3.619   6.141  10.284 -0.3014 -0.7857  0.8568
    3CHL1    C7  159   3.673   6.120  10.071 -0.0704  0.0155  0.5425
    3CHL1   H7A  160   3.613   6.211  10.049  0.5811  0.7680  1.7834
    3CHL1   H7B  161   3.775   6.160  10.061 -0.3633  0.4554 -0.9541
    3CHL1    C8  162   3.661   6.024   9.949  0.3395  0.0185 -0.1326
    3CHL1    H8  163   3.551   6.020   9.936 -0.2236 -0.1028  3.6028
    3CHL1   C14  164   3.727   6.075   9.827 -0.4682 -0.6936  0.3800
    3CHL1   H14  165   3.834   6.063   9.852  0.3267  1.5258 -1.5686
    3CHL1   C15  166   3.721   6.224   9.789  0.6160 -0.0319  0.5608
    3CHL1  H15A  167   3.614   6.256   9.791  0.0505 -1.8516  1.3751
    3CHL1  H15B  168   3.772   6.295   9.858  1.2981 -0.3351  0.3783
    3CHL1   C16  169   3.748   6.226   9.641 -0.1717  0.3238  0.1372
    3CHL1  H16A  170   3.667   6.282   9.590 -0.3422 -0.4621 -0.4883
    3CHL1  H16B  171   3.846   6.269   9.614  0.2415 -1.2116 -0.9569
    3CHL1   C17  172   3.758   6.077   9.589 -0.1476  0.1613 -0.6058
    3CHL1   H17  173   3.867   6.059   9.579  0.1197  1.8435 -0.9827
    3CHL1   C13  174   3.701   5.987   9.702 -0.5996 -0.6327  0.0798
    3CHL1   C18  175   3.554   5.965   9.672 -0.6700 -0.4497 -0.1468
    3CHL1  H18A  176   3.547   5.910   9.576  2.8702 -0.1101 -0.7482
    3CHL1  H18B  177   3.506   5.906   9.752 -2.5512 -0.8917 -1.5400
    3CHL1  H18C  178   3.506   6.065   9.661  2.8136  1.2065 -2.4360
    3CHL1   C12  179   3.766   5.852   9.723 -0.3191 -0.2191 -0.0698
    3CHL1  H12A  180   3.748   5.779   9.641  1.0118 -0.6713  0.0167
    3CHL1  H12B  181   3.877   5.860   9.729 -0.2731 -0.8423  0.0513
    3CHL1   C11  182   3.727   5.790   9.861 -0.1521  0.0967  0.2761
    3CHL1  H11A  183   3.624   5.756   9.835 -0.1960  0.6423 -0.2767
    3CHL1  H11B  184   3.790   5.700   9.880  1.4770  0.6051 -2.2044
    3CHL1    C9  185   3.709   5.883   9.984 -0.2074  0.1496  0.0737
    3CHL1    H9  186   3.814   5.893  10.018 -0.5017  0.2015  0.9771
    3CHL1   C10  187   3.640   5.824  10.113 -0.4612 -0.1284  0.4383
    3CHL1   C19  188   3.509   5.759  10.070 -0.6711 -0.7889 -1.0776
    3CHL1  H19A  189   3.449   5.727  10.158 -0.2654  0.4302 -0.3442
    3CHL1  H19B  190   3.456   5.832  10.004  0.3315  0.8536 -0.1195
    3CHL1  H19C  191   3.526   5.669  10.006 -1.1580 -1.5875 -0.1212
    3CHL1    C1  192   3.731   5.712  10.173 -0.3612  0.0889  0.7600
    3CHL1   H1A  193   3.747   5.634  10.096 -2.0281  0.2625  0.1921
    3CHL1   H1B  194   3.829   5.762  10.186  0.3914 -0.7946 -1.1540
    3CHL1    C2  195   3.682   5.656  10.310  0.4765 -0.1841 -0.0040
    3CHL1   H2A  196   3.750   5.577  10.347 -0.6085 -1.6528 -1.0529
    3CHL1   H2B  197   3.584   5.608  10.290 -0.1835  1.1979 -0.2779
    3CHL1   C20  198   3.720   6.054   9.435 -0.5482 -0.5725 -0.2957
    3CHL1   H20  199   3.609   6.049   9.423 -0.6670 -0.4397  0.7158
    3CHL1   C21  200   3.791   5.929   9.376 -0.0107 -0.0270 -0.2173
    3CHL1  H21A  201   3.731   5.915   9.283 -0.6623 -0.9452  0.3294
    3CHL1  H21B  202   3.786   5.837   9.437  0.8185  2.0185  3.2206
    3CHL1  H21C  203   3.895   5.954   9.344 -0.3020  0.4294 -0.8533
    3CHL1   C22  204   3.763   6.176   9.350 -0.7808 -0.2436 -0.1017
    3CHL1  H22A  205   3.692   6.253   9.388 -0.0534  0.2102  0.3622
    3CHL1  H22B  206   3.858   6.229   9.369  0.5626 -1.2629 -3.2392
    3CHL1   C23  207   3.734   6.178   9.197  0.6506  0.0133  0.1539
    3CHL1  H23A  208   3.809   6.107   9.157  2.3468 -0.3871  3.6660
    3CHL1  H23B  209   3.635   6.130   9.181  0.7045  0.0557 -0.3368
    3CHL1   C24  210   3.745   6.324   9.145  0.3056 -0.4066 -0.3492
    3CHL1  H24A  211   3.677   6.393   9.200 -0.7075 -1.0374 -0.7900
    3CHL1  H24B  212   3.850   6.359   9.159 -0.7246  2.6534  0.3760
    3CHL1   C25  213   3.705   6.336   8.995 -0.8747  0.1791 -0.5178
    3CHL1   H25  214   3.732   6.439   8.965  2.1846 -0.1743  0.6996
    3CHL1   C26  215   3.779   6.239   8.901 -0.1396 -0.1402 -0.3180
    3CHL1  H26A  216   3.759   6.262   8.794 -1.4860  0.6032  0.0757
    3CHL1  H26B  217   3.890   6.251   8.905  0.0453 -1.5865 -0.5304
    3CHL1  H26C  218   3.751   6.134   8.924 -1.8319  0.7309  1.9456
    3CHL1   C27  219   3.549   6.318   8.987  0.0248 -0.7618  0.5663
    3CHL1  H27A  220   3.500   6.399   9.045  1.1212 -0.0019  0.4516
    3CHL1  H27B  221   3.518   6.323   8.881  2.7367 -1.8811 -0.3741
    3CHL1  H27C  222   3.515   6.224   9.035  1.3445 -0.7738  1.5500
    4CHL1    C3  223   2.419   2.393  10.591  0.1311 -0.3303 -0.1496
    4CHL1    H3  224   2.339   2.470  10.587  0.7478  0.3454  0.2588
    4CHL1    O3  225   2.453   2.368  10.728  0.1524  0.4298  0.0719
    4CHL1   H3'  226   2.543   2.396  10.739  0.0081  0.5120  1.1077
    4CHL1    C4  227   2.383   2.266  10.518  0.3058 -0.3072  0.1861
    4CHL1   H4A  228   2.455   2.185  10.544 -0.5871 -0.9315  0.7296
    4CHL1   H4B  229   2.287   2.228  10.559 -0.5148  0.7592 -0.6883
    4CHL1    C5  230   2.365   2.295  10.367 -0.0868 -0.0289  0.4850
    4CHL1    C6  231   2.246   2.291  10.313 -0.3794  0.7354  0.5442
    4CHL1    H6  232   2.153   2.271  10.369 -1.2292  1.0108 -0.7125
    4CHL1    C7  233   2.233   2.287  10.158 -0.1624 -0.5013 -0.0379
    4CHL1   H7A  234   2.164   2.207  10.124 -0.7630  0.1749 -0.4249
    4CHL1   H7B  235   2.182   2.382  10.131  4.3397  2.3652  0.4546
    4CHL1    C8  236   2.371   2.274  10.087  0.1040 -0.6902 -0.3347
    4CHL1    H8  237   2.397   2.166  10.094 -1.4259 -1.2234 -2.0053
    4CHL1   C14  238   2.365   2.312   9.944  0.0652 -0.3868  0.0886
    4CHL1   H14  239   2.319   2.413   9.950  2.3485  0.7635 -0.6708
    4CHL1   C15  240   2.246   2.256   9.854 -0.7133  0.4450 -1.0170
    4CHL1  H15A  241   2.248   2.145   9.860  1.1563  0.4671 -0.7383
    4CHL1  H15B  242   2.155   2.288   9.909 -1.0857 -1.6550 -0.3091
    4CHL1   C16  243   2.274   2.308   9.718 -0.8258 -0.3355 -0.0418
    4CHL1  H16A  244   2.257   2.237   9.634  2.5564  0.1041 -1.2548
    4CHL1  H16B  245   2.206   2.394   9.701 -2.3162 -1.7521 -1.7270
    4CHL1   C17  246   2.423   2.362   9.726  0.0861  0.3535  0.7398
    4CHL1   H17  247   2.413   2.472   9.726  1.6109  0.5548  3.1193
    4CHL1   C13  248   2.485   2.313   9.862  0.6896  0.5795  0.1043
    4CHL1   C18  249   2.548   2.173   9.857 -0.5379 -0.7782 -0.8257
    4CHL1  H18A  250   2.507   2.108   9.776 -1.1913  0.3245 -1.4002
    4CHL1  H18B  251   2.658   2.174   9.845 -0.3418 -0.0948  0.8768
    4CHL1  H18C  252   2.552   2.119   9.954  0.5652  2.8423  1.3559
    4CHL1   C12  253   2.580   2.419   9.921  0.5129  0.5894 -0.5944
    4CHL1  H12A  254   2.683   2.430   9.881  0.6434 -1.1516 -0.7937
    4CHL1  H12B  255   2.527   2.516   9.912  0.7157  1.1660  3.0574
    4CHL1   C11  256   2.604   2.391  10.069  0.0049  1.0780  0.1217
    4CHL1  H11A  257   2.665   2.298  10.068  0.2346  1.2274  0.0826
    4CHL1  H11B  258   2.667   2.473  10.108  1.2880 -0.5106  1.5446
    4CHL1    C9  259   2.477   2.358  10.150 -0.2693  0.8886 -0.5192
    4CHL1    H9  260   2.419   2.452  10.159  0.3245  1.0857  2.2006
    4CHL1   C10  261   2.499   2.319  10.302  0.7749 -0.8477  0.8209
    4CHL1   C19  262   2.600   2.196  10.304 -0.5946  0.1130 -0.0569
    4CHL1  H19A  263   2.692   2.234  10.257 -2.1010  1.0789 -2.3976
    4CHL1  H19B  264   2.620   2.179  10.412 -0.5221 -0.8098 -0.2066
    4CHL1  H19C  265   2.565   2.102  10.256 -1.1047 -0.3529  1.1678
    4CHL1    C1  266   2.541   2.453  10.371  0.3993 -0.4167 -0.1301
    4CHL1   H1A  267   2.642   2.478  10.333  0.4255 -0.6243 -0.1984
    4CHL1   H1B  268   2.460   2.527  10.351  1.3855  0.5661 -0.5852
    4CHL1    C2  269   2.548   2.449  10.528 -0.5520 -0.3584  0.0690
    4CHL1   H2A  270   2.575   2.553  10.559  2.3978 -0.9280 -0.2939
    4CHL1   H2B  271   2.632   2.381  10.551 -1.1986 -1.1495  0.1293
    4CHL1   C20  272   2.506   2.321   9.599 -0.3256  0.1521  0.0799
    4CHL1   H20  273   2.509   2.210   9.593  1.6084  0.1626  0.2607
    4CHL1   C21  274   2.651   2.373   9.615 -0.4556 -0.0673  0.2437
    4CHL1  H21A  275   2.705   2.331   9.703  1.0926 -0.5411 -0.8865
    4CHL1  H21B  276   2.644   2.483   9.618 -0.2876 -0.0365 -0.3821
    4CHL1  H21C  277   2.718   2.370   9.527 -1.1893  4.6300 -0.7261
    4CHL1   C22  278   2.434   2.368   9.462 -0.6607  0.1217 -0.1592
    4CHL1  H22A  279   2.324   2.368   9.473 -0.7774  1.0444 -1.1664
    4CHL1  H22B  280   2.476   2.470   9.454 -0.1389 -0.0914 -0.1715
    4CHL1   C23  281   2.464   2.286   9.337 -0.2510 -0.0952  0.2723
    4CHL1  H23A  282   2.574   2.278   9.328 -0.1706 -1.4878  1.9926
    4CHL1  H23B  283   2.428   2.181   9.343 -0.0754 -0.2435 -1.0330
    4CHL1   C24  284   2.393   2.343   9.215  0.6781 -0.5135  0.1461
    4CHL1  H24A  285   2.293   2.295   9.214  0.0237  0.7633 -1.9684
    4CHL1  H24B  286   2.378   2.452   9.232 -0.4675 -0.6509  0.1013
    4CHL1   C25  287   2.473   2.312   9.084  0.3652 -0.3698 -0.5356
    4CHL1   H25  288   2.579   2.334   9.109  0.6016 -0.0288 -1.7650
    4CHL1   C26  289   2.463   2.172   9.019 -0.8423  0.1100 -0.3542
    4CHL1  H26A  290   2.492   2.097   9.096 -1.2254  2.4515  2.2585
    4CHL1  H26B  291   2.360   2.146   8.985  0.0385 -3.8926 -0.3913
    4CHL1  H26C  292   2.545   2.169   8.945 -0.9426 -2.9912 -0.4586
    4CHL1   C27  293   2.432   2.415   8.977  0.3043  0.0016  0.2621
    4CHL1  H27A  294   2.325   2.417   8.948  1.1051 -1.0255 -3.2245
    4CHL1  H27B  295   2.454   2.513   9.024 -1.8848  0.7985 -0.2399
    4CHL1  H27C  296   2.488   2.400   8.882 -0.2038 -0.6005  0.0492
    5CHL1    C3  297   4.908   6.009  10.304  0.1641 -1.3375  0.1826
    5CHL1    H3  298   4.802   6.038  10.320  0.1762 -1.3120  0.2176
    5CHL1    O3  299   4.961   5.978  10.436  0.5042 -0.5734  0.4980
    5CHL1   H3'  300   4.945   6.059  10.485 -0.3946  1.0971 -2.3528
    5CHL1    C4  301   4.891   5.884  10.209 -0.6901  0.2380 -0.5355
    5CHL1   H4A  302   4.995   5.848  10.191 -0.9404 -0.2811 -0.9587
    5CHL1   H4B  303   4.829   5.802  10.249 -2.8404  2.3565  0.7595
    5CHL1    C5  304   4.836   5.930  10.076 -0.0177  0.3083 -0.5931
    5CHL1    C6  305   4.712   5.886  10.040  0.1803 -0.0865  0.4327
    5CHL1    H6  306   4.653   5.807  10.088 -0.7045 -0.9701 -1.9260
    5CHL1    C7  307   4.657   5.937   9.913  1.1745  0.2521 -0.4926
    5CHL1   H7A  308   4.588   5.863   9.868 -2.1107  1.7101  1.7127
    5CHL1   H7B  309   4.598   6.029   9.935  1.3884 -0.0120  1.4129
    5CHL1    C8  310   4.764   5.981   9.810 -0.4760  0.5890  0.4793
    5CHL1    H8  311   4.823   5.891   9.784  0.8200  1.7662 -0.8806
    5CHL1   C14  312   4.700   6.029   9.680 -0.8326  0.3016  0.4478
    5CHL1   H14  313   4.645   6.123   9.701 -1.3126 -0.1488  1.2413
    5CHL1   C15  314   4.601   5.940   9.609  0.0144  0.2430  0.5442
    5CHL1  H15A  315   4.631   5.833   9.601 -2.3322 -0.3930 -1.2283
    5CHL1  H15B  316   4.503   5.939   9.662 -0.8092  2.8085 -0.7637
    5CHL1   C16  317   4.581   6.001   9.470 -0.2312  0.0139 -0.0022
    5CHL1  H16A  318   4.577   5.917   9.397 -1.6936  0.5657 -0.5965
    5CHL1  H16B  319   4.496   6.072   9.465  1.4296  2.0005 -2.5779
    5CHL1   C17  320   4.703   6.098   9.456 -0.1210 -0.0805 -0.5039
    5CHL1   H17  321   4.654   6.196   9.475 -0.5650 -0.3619 -0.1688
    5CHL1   C13  322   4.803   6.073   9.575  1.1007  0.8007 -0.2328
    5CHL1   C18  323   4.891   5.950   9.538 -0.0796 -0.1098 -0.9545
    5CHL1  H18A  324   4.955   5.907   9.619 -3.0948  0.0812  1.6965
    5CHL1  H18B  325   4.821   5.868   9.512 -0.5334 -0.5491  1.4003
    5CHL1  H18C  326   4.956   5.971   9.450 -0.3633 -0.5299 -1.2733
    5CHL1   C12  327   4.889   6.190   9.632 -0.3027  0.3873 -0.6156
    5CHL1  H12A  328   4.969   6.228   9.565  2.0035 -0.6531  1.3853
    5CHL1  H12B  329   4.811   6.261   9.667 -1.1327 -0.4247 -0.7799
    5CHL1   C11  330   4.953   6.151   9.768 -0.0133 -0.6919 -0.6123
    5CHL1  H11A  331   5.034   6.078   9.747 -0.4974 -1.5494  0.4267
    5CHL1  H11B  332   4.970   6.243   9.827  0.5886 -1.1742 -0.0121
    5CHL1    C9  333   4.854   6.081   9.869 -0.4287 -0.2876  0.3387
    5CHL1    H9  334   4.782   6.162   9.892  0.9230  0.9321  0.3848
    5CHL1   C10  335   4.918   6.037  10.005 -0.4277  0.6015  0.2478
    5CHL1   C19  336   5.063   5.990   9.981  0.0987 -0.0310 -0.5496
    5CHL1  H19A  337   5.059   5.916   9.898  0.0757 -1.6657  0.8372
    5CHL1  H19B  338   5.124   6.078   9.954 -4.2115  3.6437  0.5410
    5CHL1  H19C  339   5.120   5.935  10.059  1.2317 -1.4551 -2.2828
    5CHL1    C1  340   4.930   6.158  10.097 -0.1501 -0.0397 -0.2061
    5CHL1   H1A  341   4.999   6.234  10.054  0.3839 -0.0109  0.6771
    5CHL1   H1B  342   4.828   6.200  10.109  0.0160  0.2001  0.4003
    5CHL1    C2  343   4.983   6.126  10.238 -0.6347  0.3499 -0.0797
    5CHL1   H2A  344   4.967   6.221  10.294 -0.6408  0.2353  0.1119
    5CHL1   H2B  345   5.092   6.106  10.241 -0.5402  0.9101  1.9217
    5CHL1   C20  346   4.762   6.103   9.312 -0.1238 -0.5467  0.1709
    5CHL1   H20  347   4.805   6.002   9.295 -2.1180 -1.9140  2.5389
    5CHL1   C21  348   4.862   6.214   9.292 -0.5328 -0.2833  0.1913
    5CHL1  H21A  349   4.900   6.228   9.189 -0.0462  0.1494  0.4299
    5CHL1  H21B  350   4.949   6.202   9.360 -1.2481  1.8776  1.5981
    5CHL1  H21C  351   4.814   6.311   9.316 -1.6996 -0.7005 -0.3491
    5CHL1   C22  352   4.647   6.133   9.209 -0.0128 -0.1590 -0.3079
    5CHL1  H22A  353   4.545   6.093   9.230 -0.2101  1.6187  2.7837
    5CHL1  H22B  354   4.626   6.240   9.228 -1.8092 -0.5264  0.0398
    5CHL1   C23  355   4.684   6.114   9.064 -0.2205 -0.7524 -0.5356
    5CHL1  H23A  356   4.763   6.187   9.037 -0.6093  0.0966  0.5495
    5CHL1  H23B  357   4.730   6.014   9.047 -1.3157 -1.8355  2.2631
    5CHL1   C24  358   4.575   6.147   8.963 -0.4848  0.0072 -0.3094
    5CHL1  H24A  359   4.500   6.066   8.962 -0.2909 -0.1702 -1.3850
    5CHL1  H24B  360   4.513   6.232   9.001  0.3938  1.2626 -1.5787
    5CHL1   C25  361   4.614   6.143   8.810 -0.6497 -0.1106  0.5707
    5CHL1   H25  362   4.715   6.188   8.799 -1.1897  1.0661  0.1623
    5CHL1   C26  363   4.632   5.996   8.767 -0.5083  0.6310 -0.8255
    5CHL1  H26A  364   4.674   5.987   8.664 -0.6431 -1.9723 -0.7077
    5CHL1  H26B  365   4.696   5.936   8.835 -0.8170 -1.8563 -2.5753
    5CHL1  H26C  366   4.529   5.953   8.770 -0.9247  1.3651 -2.7762
    5CHL1   C27  367   4.522   6.219   8.715  0.3635 -0.1461 -0.0992
    5CHL1  H27A  368   4.582   6.265   8.634 -1.5742  0.6944 -1.1374
    5CHL1  H27B  369   4.442   6.159   8.666  1.3369  0.5097 -2.6695
    5CHL1  H27C  370   4.494   6.308   8.776 -0.3582 -0.5506  0.1760
    6CHL1    C3  371   1.425   2.838  10.577  0.4969 -0.1038  0.1524
    6CHL1    H3  372   1.501   2.757  10.579  1.2628  0.5938  2.1191
    6CHL1    O3  373   1.412   2.874  10.715  0.1277  0.2217 -0.4418
    6CHL1   H3'  374   1.341   2.938  10.714 -0.2969 -0.2419 -0.6508
    6CHL1    C4  375   1.492   2.960  10.502  0.3241  0.0790 -0.3442
    6CHL1   H4A  376   1.433   3.047  10.538  0.5294  0.3281 -0.6021
    6CHL1   H4B  377   1.592   2.973  10.549 -0.3641 -0.8656  1.4668
    6CHL1    C5  378   1.497   2.943  10.353 -0.1001 -0.2783 -0.5895
    6CHL1    C6  379   1.615   2.952  10.292 -0.0224  0.1068  0.2524
    6CHL1    H6  380   1.703   2.995  10.341 -1.2108  0.1049  2.5430
    6CHL1    C7  381   1.624   2.924  10.142 -0.2180 -0.3175  0.7132
    6CHL1   H7A  382   1.686   3.006  10.099 -1.4887 -0.4472 -1.5343
    6CHL1   H7B  383   1.678   2.830  10.118  1.2374  0.4875  0.6862
    6CHL1    C8  384   1.488   2.931  10.073  0.1980  0.7780 -0.8972
    6CHL1    H8  385   1.459   3.038  10.073  2.4234  1.4350 -1.3393
    6CHL1   C14  386   1.497   2.886   9.928 -0.4577  0.1298 -0.5913
    6CHL1   H14  387   1.538   2.784   9.936  3.1733  1.1116 -3.6128
    6CHL1   C15  388   1.614   2.940   9.850 -0.0870 -0.7248  0.0234
    6CHL1  H15A  389   1.617   3.049   9.871 -0.9994 -1.2477  3.5093
    6CHL1  H15B  390   1.705   2.898   9.899  0.3211 -0.0552 -0.1421
    6CHL1   C16  391   1.576   2.903   9.710 -0.0422  0.8177  0.1165
    6CHL1  H16A  392   1.590   2.991   9.643  0.6830  0.7899  0.2204
    6CHL1  H16B  393   1.648   2.822   9.683  0.8491  1.8791 -0.7923
    6CHL1   C17  394   1.431   2.850   9.702 -0.0166  0.1391 -0.2580
    6CHL1   H17  395   1.431   2.739   9.715 -0.0708 -0.1691 -2.4723
    6CHL1   C13  396   1.373   2.897   9.839  0.2321  0.5533  0.1530
    6CHL1   C18  397   1.326   3.045   9.835 -0.7137 -0.3144  0.2021
    6CHL1  H18A  398   1.411   3.102   9.791  0.8965 -3.2082 -0.7408
    6CHL1  H18B  399   1.241   3.049   9.763 -0.5609 -2.6656 -0.1984
    6CHL1  H18C  400   1.299   3.081   9.936 -0.5150 -1.9198  0.8580
    6CHL1   C12  401   1.268   2.798   9.905 -0.7884 -0.8731  0.0183
    6CHL1  H12A  402   1.177   2.800   9.842  0.0428 -0.8239 -1.2244
    6CHL1  H12B  403   1.314   2.697   9.903  1.8049  0.2225  0.4176
    6CHL1   C11  404   1.246   2.822  10.055 -0.2607 -0.2265 -0.3027
    6CHL1  H11A  405   1.186   2.916  10.059  1.4140  0.8760  0.2787
    6CHL1  H11B  406   1.192   2.742  10.109  0.2033 -1.1723 -1.2156
    6CHL1    C9  407   1.381   2.841  10.142 -0.3771  0.7092 -0.5181
    6CHL1    H9  408   1.418   2.736  10.146 -1.4087  0.3685  0.7022
    6CHL1   C10  409   1.362   2.892  10.288 -0.0334 -0.6666 -0.3479
    6CHL1   C19  410   1.271   3.011  10.289  0.2433  0.6375  0.1299
    6CHL1  H19A  411   1.255   3.051  10.392  1.1356  2.0022 -0.2308
    6CHL1  H19B  412   1.305   3.094  10.224  0.3149  0.5467  0.0522
    6CHL1  H19C  413   1.169   2.989  10.251  0.2693  0.0154  0.4062
    6CHL1    C1  414   1.309   2.769  10.371  0.1855 -1.1587  0.0321
    6CHL1   H1A  415   1.207   2.735  10.341 -1.1081  2.4158 -0.1379
    6CHL1   H1B  416   1.381   2.687  10.353  1.6232  0.0040  0.2844
    6CHL1    C2  417   1.292   2.796  10.518 -0.7694  0.3525 -0.3967
    6CHL1   H2A  418   1.263   2.702  10.568  2.8971 -0.4404  0.5396
    6CHL1   H2B  419   1.213   2.873  10.533 -3.6400 -2.6395  0.9046
    6CHL1   C20  420   1.361   2.869   9.567  0.2421 -0.3245  0.4989
    6CHL1   H20  421   1.322   2.972   9.571  0.4753 -0.2736  1.7131
    6CHL1   C21  422   1.242   2.767   9.547  0.1716  0.2676 -0.1139
    6CHL1  H21A  423   1.277   2.662   9.551 -4.9503 -1.7302 -0.6998
    6CHL1  H21B  424   1.188   2.785   9.451  1.7212  2.2422 -0.7029
    6CHL1  H21C  425   1.163   2.789   9.622 -1.0285  0.4644 -1.3955
    6CHL1   C22  426   1.452   2.868   9.440 -0.5639 -0.0817  0.3612
    6CHL1  H22A  427   1.404   2.930   9.362 -0.2275 -0.7535 -0.3884
    6CHL1  H22B  428   1.546   2.923   9.462 -1.6200  1.7203  0.5015
    6CHL1   C23  429   1.502   2.739   9.375 -0.0919  0.7438  0.1541
    6CHL1  H23A  430   1.565   2.694   9.455  0.0194  0.5130 -0.0623
    6CHL1  H23B  431   1.412   2.680   9.346 -0.3551  1.4303 -0.4587
    6CHL1   C24  432   1.591   2.769   9.256 -0.2922  0.3989 -0.5954
    6CHL1  H24A  433   1.529   2.803   9.170 -2.0847 -1.7600 -0.2563
    6CHL1  H24B  434   1.646   2.864   9.274  2.5139 -1.1823 -0.3262
    6CHL1   C25  435   1.674   2.649   9.196 -0.4620 -0.3328  0.1803
    6CHL1   H25  436   1.747   2.610   9.269 -0.2706 -1.9955 -0.8596
    6CHL1   C26  437   1.574   2.537   9.157 -0.0050  0.9102 -0.2618
    6CHL1  H26A  438   1.633   2.450   9.122 -0.5669 -0.2757  1.5592
    6CHL1  H26B  439   1.507   2.496   9.236  0.4186  1.7964  0.5781
    6CHL1  H26C  440   1.507   2.568   9.074  0.5833  1.9509 -0.3566
    6CHL1   C27  441   1.748   2.698   9.074  0.1064  0.5294 -0.0995
    6CHL1  H27A  442   1.802   2.614   9.025  1.8773  1.9560 -0.7172
    6CHL1  H27B  443   1.679   2.749   9.003 -0.2228  1.4891  0.8904
    6CHL1  H27C  444   1.829   2.767   9.106 -1.5556  1.8986  1.3936
    7CHL1    C3  445   4.293   0.409  10.455 -0.0425  0.1099  0.0134
    7CHL1    H3  446   4.381   0.343  10.437 -0.5057 -1.0870  1.9246
    7CHL1    O3  447   4.289   0.420  10.591 -0.6363 -0.2996 -0.8428
    7CHL1   H3'  448   4.212   0.473  10.611 -0.0028  0.5833 -0.6758
    7CHL1    C4  449   4.290   0.553  10.396 -0.0040  0.3335 -0.1942
    7CHL1   H4A  450   4.193   0.601  10.418 -0.8299 -0.6526 -1.5367
    7CHL1   H4B  451   4.366   0.614  10.450 -0.5764  3.3234 -2.5069
    7CHL1    C5  452   4.303   0.551  10.248 -0.0338 -0.5581  0.6975
    7CHL1    C6  453   4.399   0.617  10.181  0.7436 -0.3476 -0.1109
    7CHL1    H6  454   4.481   0.664  10.238  0.9908 -0.5064 -0.3346
    7CHL1    C7  455   4.415   0.606  10.031 -0.0335 -0.2567  0.0743
    7CHL1   H7A  456   4.440   0.706   9.988  2.3507 -0.7926  0.0993
    7CHL1   H7B  457   4.510   0.554  10.005  1.7251  1.7098  2.1417
    7CHL1    C8  458   4.287   0.551   9.956 -0.0374  0.2062  0.9430
    7CHL1    H8  459   4.202   0.623   9.957 -0.4488 -0.2786  1.4457
    7CHL1   C14  460   4.310   0.523   9.807 -1.2749 -0.5589 -0.0071
    7CHL1   H14  461   4.389   0.445   9.804 -0.7967 -0.0614 -1.1600
    7CHL1   C15  462   4.357   0.643   9.726  0.1819  0.3397  0.1315
    7CHL1  H15A  463   4.292   0.733   9.723  0.4775  0.5379 -1.1397
    7CHL1  H15B  464   4.459   0.682   9.749 -0.4293  1.0539  1.7209
    7CHL1   C16  465   4.347   0.588   9.581 -0.0387 -0.6416 -0.2330
    7CHL1  H16A  466   4.282   0.655   9.521 -0.6142 -1.4629 -0.5368
    7CHL1  H16B  467   4.444   0.584   9.527 -0.4414  0.4991 -1.0656
    7CHL1   C17  468   4.269   0.451   9.599 -0.0486 -0.0944  0.2139
    7CHL1   H17  469   4.347   0.372   9.602 -0.7823 -0.8175  0.7974
    7CHL1   C13  470   4.199   0.455   9.739 -0.1108  0.4246 -0.8006
    7CHL1   C18  471   4.073   0.544   9.746 -0.2549 -0.5354  0.0007
    7CHL1  H18A  472   3.995   0.497   9.682 -0.6226 -0.6367  0.5239
    7CHL1  H18B  473   4.026   0.553   9.846 -0.0508  2.9075 -0.0928
    7CHL1  H18C  474   4.092   0.643   9.699  0.4784 -0.2806  0.8090
    7CHL1   C12  475   4.177   0.322   9.806  0.5205  0.3824 -0.2230
    7CHL1  H12A  476   4.108   0.249   9.760  1.4412 -0.2433 -0.6289
    7CHL1  H12B  477   4.270   0.263   9.808 -0.7005 -1.7414 -2.0571
    7CHL1   C11  478   4.132   0.341   9.962  0.4785  0.4385  0.7621
    7CHL1  H11A  479   4.031   0.389   9.959  0.1248 -0.3558 -0.4648
    7CHL1  H11B  480   4.124   0.237   9.999  0.7818  1.0582  2.6976
    7CHL1    C9  481   4.232   0.429  10.035 -1.0552 -0.6173 -0.0529
    7CHL1    H9  482   4.322   0.365  10.049 -1.9189 -1.8702  0.0280
    7CHL1   C10  483   4.196   0.459  10.184  0.3652 -0.1388  0.4170
    7CHL1   C19  484   4.057   0.532  10.184 -0.4338  0.5419  0.7656
    7CHL1  H19A  485   4.048   0.631  10.134  1.5427  0.7692  0.7825
    7CHL1  H19B  486   3.974   0.459  10.168  1.1720 -1.1446 -0.2797
    7CHL1  H19C  487   4.041   0.549  10.293 -1.2435 -1.4917  1.0216
    7CHL1    C1  488   4.191   0.319  10.253 -0.0196  0.6622 -0.3452
    7CHL1   H1A  489   4.108   0.265  10.202  0.4955 -0.4585 -0.0386
    7CHL1   H1B  490   4.279   0.260  10.218 -0.4343  1.2939 -2.6134
    7CHL1    C2  491   4.181   0.322  10.401  0.4191 -0.0421  0.5755
    7CHL1   H2A  492   4.169   0.224  10.451  0.4615  0.7150  2.1350
    7CHL1   H2B  493   4.085   0.375  10.421  0.3224 -0.8524  2.3649
    7CHL1   C20  494   4.188   0.420   9.474 -0.1371  0.3509  0.0962
    7CHL1   H20  495   4.106   0.494   9.481  0.5049  1.1072 -0.1655
    7CHL1   C21  496   4.121   0.284   9.487  0.2496 -0.2071 -0.8057
    7CHL1  H21A  497   4.062   0.264   9.396  0.4319  0.9566 -1.2015
    7CHL1  H21B  498   4.051   0.286   9.574 -0.0173  1.6454 -1.0187
    7CHL1  H21C  499   4.196   0.204   9.503 -0.7973 -0.9941  0.3815
    7CHL1   C22  500   4.252   0.456   9.342  0.4444  0.5670  0.4603
    7CHL1  H22A  501   4.181   0.434   9.259  0.0280  0.9851  0.6988
    7CHL1  H22B  502   4.284   0.561   9.329  1.4859  0.3067  0.8841
    7CHL1   C23  503   4.375   0.373   9.308 -1.0458  0.2628 -0.5692
    7CHL1  H23A  504   4.440   0.359   9.398 -0.0928  2.6684 -0.8060
    7CHL1  H23B  505   4.353   0.268   9.278  1.2358 -0.4905  0.1676
    7CHL1   C24  506   4.469   0.423   9.186  0.3198  0.2326  0.4885
    7CHL1  H24A  507   4.405   0.449   9.100 -0.0647  2.6706  1.4451
    7CHL1  H24B  508   4.526   0.509   9.228  1.4520  0.0914 -0.6887
    7CHL1   C25  509   4.569   0.317   9.132 -0.2295  0.3446  0.2186
    7CHL1   H25  510   4.519   0.221   9.107  2.1864 -0.9044 -0.1147
    7CHL1   C26  511   4.645   0.364   9.009 -0.0628  0.0847 -0.0624
    7CHL1  H26A  512   4.577   0.385   8.924 -0.6301 -1.9602 -0.1570
    7CHL1  H26B  513   4.701   0.458   9.030  0.2679 -0.2928  0.7718
    7CHL1  H26C  514   4.724   0.291   8.981 -1.0164 -1.1450  0.3979
    7CHL1   C27  515   4.672   0.274   9.238  0.0940  0.1914  0.1212
    7CHL1  H27A  516   4.730   0.358   9.281 -1.6253  1.4667  0.0571
    7CHL1  H27B  517   4.638   0.224   9.332 -1.5425  0.4787 -0.2891
    7CHL1  H27C  518   4.743   0.204   9.188 -0.6818 -0.3654 -0.2287
    8CHL1    C3  519   4.081   1.693  10.455  0.4869 -0.7586 -0.1255
    8CHL1    H3  520   4.095   1.799  10.425  1.7721 -0.1302  2.4595
    8CHL1    O3  521   4.108   1.703  10.597  0.1426  0.3049 -0.0133
    8CHL1   H3'  522   4.107   1.611  10.624 -3.9073 -0.2207 -1.2759
    8CHL1    C4  523   3.936   1.642  10.420  0.6083 -0.7924  0.0026
    8CHL1   H4A  524   3.922   1.540  10.461  0.2332 -1.1771 -1.0401
    8CHL1   H4B  525   3.868   1.706  10.480  1.1737  0.6452 -0.8186
    8CHL1    C5  526   3.921   1.645  10.265 -0.4110 -0.4832  0.2736
    8CHL1    C6  527   3.827   1.717  10.208  0.5281  0.0429  0.1262
    8CHL1    H6  528   3.761   1.787  10.260  0.9065 -0.5828  1.4919
    8CHL1    C7  529   3.790   1.717  10.065 -0.0291  0.7943 -0.4068
    8CHL1   H7A  530   3.680   1.698  10.064 -0.0625  0.9343  0.2881
    8CHL1   H7B  531   3.816   1.813  10.016 -1.9336  1.0191 -1.0785
    8CHL1    C8  532   3.862   1.595   9.987  0.1050 -0.6550 -0.1523
    8CHL1    H8  533   3.799   1.505  10.000 -0.0893 -0.4763  0.1506
    8CHL1   C14  534   3.875   1.634   9.842 -0.1095 -0.0296  0.2022
    8CHL1   H14  535   3.949   1.717   9.833 -1.0820  1.0609  1.7755
    8CHL1   C15  536   3.745   1.690   9.777  0.1581  0.1061 -0.2787
    8CHL1  H15A  537   3.673   1.623   9.829 -0.2059  1.0049  0.4055
    8CHL1  H15B  538   3.719   1.787   9.824  0.7698 -0.5165  1.4378
    8CHL1   C16  539   3.752   1.661   9.629  0.0117 -0.2776  0.1026
    8CHL1  H16A  540   3.673   1.584   9.616 -0.6987  0.7699 -2.2540
    8CHL1  H16B  541   3.745   1.749   9.562  1.8696 -1.0551 -1.1785
    8CHL1   C17  542   3.898   1.587   9.609  0.2472 -0.1889  0.2587
    8CHL1   H17  543   3.976   1.665   9.592  0.5217 -0.6510 -0.6873
    8CHL1   C13  544   3.922   1.525   9.745  0.5462 -0.4696  0.3848
    8CHL1   C18  545   3.838   1.393   9.756  0.5433 -0.4392 -0.1731
    8CHL1  H18A  546   3.835   1.347   9.857  1.0250 -1.2717 -0.5318
    8CHL1  H18B  547   3.733   1.416   9.728  0.6523 -1.1077 -1.2085
    8CHL1  H18C  548   3.863   1.303   9.696 -3.3320 -2.5130  0.9426
    8CHL1   C12  549   4.065   1.498   9.788 -0.0489  0.8444  0.5072
    8CHL1  H12A  550   4.111   1.425   9.717  1.5185  3.4986 -1.3752
    8CHL1  H12B  551   4.118   1.593   9.768  0.9164  0.7110  2.2266
    8CHL1   C11  552   4.082   1.470   9.936  0.0277 -0.4188 -0.7936
    8CHL1  H11A  553   4.048   1.367   9.958  1.6654 -0.6676  0.8187
    8CHL1  H11B  554   4.190   1.476   9.959  0.0239  0.1071 -0.8921
    8CHL1    C9  555   4.009   1.576  10.033 -0.4773  0.8801  0.4300
    8CHL1    H9  556   4.052   1.674  10.005 -0.5605  0.3795 -1.6242
    8CHL1   C10  557   4.023   1.555  10.184 -0.5305 -0.6560 -0.7663
    8CHL1   C19  558   4.002   1.405  10.220 -0.0717  0.7497  0.1274
    8CHL1  H19A  559   4.092   1.345  10.194 -0.5941 -0.5818  1.2425
    8CHL1  H19B  560   3.998   1.383  10.329  2.5807 -0.3108  0.0645
    8CHL1  H19C  561   3.916   1.359  10.165 -0.0585  1.3801 -0.4342
    8CHL1    C1  562   4.169   1.601  10.235 -0.0708 -0.4569 -0.2330
    8CHL1   H1A  563   4.241   1.552  10.166 -0.3646 -0.6841 -0.3795
    8CHL1   H1B  564   4.183   1.710  10.216  0.8580  0.2326  3.4959
    8CHL1    C2  565   4.185   1.600  10.387 -0.2266  0.3297  0.0960
    8CHL1   H2A  566   4.286   1.632  10.419  0.2545  1.2867 -2.1311
    8CHL1   H2B  567   4.165   1.501  10.433 -1.2324  0.9549  1.0442
    8CHL1   C20  568   3.893   1.499   9.477 -0.2405  0.1166 -0.1465
    8CHL1   H20  569   3.811   1.426   9.490 -2.4292  2.2772 -0.9376
    8CHL1   C21  570   4.028   1.431   9.463 -0.1031 -0.3788 -0.1503
    8CHL1  H21A  571   4.034   1.397   9.357 -1.1003  1.3268 -0.8020
    8CHL1  H21B  572   4.031   1.342   9.529 -0.9591  0.7614  1.4805
    8CHL1  H21C  573   4.109   1.507   9.474  0.3829 -0.8118 -0.6526
    8CHL1   C22  574   3.872   1.592   9.352 -0.0503  0.0115  0.0121
    8CHL1  H22A  575   3.797   1.669   9.380  0.9479  0.9859  0.0503
    8CHL1  H22B  576   3.961   1.652   9.323 -1.9726  2.0827 -1.9944
    8CHL1   C23  577   3.816   1.522   9.235  1.1781 -0.0394  0.7214
    8CHL1  H23A  578   3.898   1.483   9.170  1.0101 -2.1011  1.6504
    8CHL1  H23B  579   3.754   1.438   9.273  0.4666  0.5139  0.8106
    8CHL1   C24  580   3.731   1.609   9.141 -0.0590 -0.6070  0.7380
    8CHL1  H24A  581   3.641   1.642   9.198  0.8597 -0.2307  2.0395
    8CHL1  H24B  582   3.785   1.699   9.104 -3.6037  1.7103  0.7064
    8CHL1   C25  583   3.676   1.538   9.014 -0.1838 -0.4567 -0.3136
    8CHL1   H25  584   3.626   1.446   9.049 -1.1539  0.4904  0.9034
    8CHL1   C26  585   3.575   1.628   8.942  0.3041 -0.2606  0.2872
    8CHL1  H26A  586   3.618   1.714   8.885  0.0306 -0.4600 -0.2298
    8CHL1  H26B  587   3.517   1.569   8.868 -3.4993  0.2433  2.6086
    8CHL1  H26C  588   3.495   1.665   9.009 -0.3273 -1.3936  0.1829
    8CHL1   C27  589   3.792   1.501   8.921 -0.1105  0.6694 -0.1230
    8CHL1  H27A  590   3.873   1.577   8.917  1.2037 -0.5686  1.4857
    8CHL1  H27B  591   3.840   1.407   8.957 -0.3327  0.8746  0.7494
    8CHL1  H27C  592   3.749   1.474   8.822 -0.6226  1.2859 -0.0718
    9CHL1    C3  593   0.788   4.738  10.346 -0.7163 -0.8638  0.1123
    9CHL1    H3  594   0.885   4.792  10.349 -0.7098 -0.8011 -0.9044
    9CHL1    O3  595   0.749   4.702  10.476  0.3768  0.0877 -0.1388
    9CHL1   H3'  596   0.654   4.687  10.482  0.1379  0.6797 -1.8121
    9CHL1    C4  597   0.676   4.822  10.278 -0.0820 -0.7515 -0.2586
    9CHL1   H4A  598   0.583   4.761  10.278 -0.1811 -0.6098  0.6174
    9CHL1   H4B  599   0.674   4.909  10.346 -2.9245 -1.5533  0.8354
    9CHL1    C5  600   0.708   4.858  10.131 -0.3659 -0.0130 -0.3222
    9CHL1    C6  601   0.709   4.989  10.092  0.0245  0.5449 -0.0539
    9CHL1    H6  602   0.679   5.064  10.166  0.5821  0.0552  0.6875
    9CHL1    C7  603   0.734   5.032   9.947 -0.1760  1.0267 -0.1779
    9CHL1   H7A  604   0.650   5.094   9.909 -2.1573  0.4009  2.8180
    9CHL1   H7B  605   0.835   5.078   9.945  0.6215 -0.4376  2.2309
    9CHL1    C8  606   0.740   4.913   9.842 -0.4659  0.4416  0.2988
    9CHL1    H8  607   0.634   4.882   9.830 -0.4976  1.1188 -1.3803
    9CHL1   C14  608   0.795   4.947   9.702 -0.0991 -0.3481  0.1468
    9CHL1   H14  609   0.900   4.984   9.710 -0.1742 -0.3786  1.3906
    9CHL1   C15  610   0.739   5.066   9.622  0.1956 -0.1173 -0.4910
    9CHL1  H15A  611   0.629   5.076   9.633  0.1165 -2.1960  1.4899
    9CHL1  H15B  612   0.792   5.162   9.642 -0.1687  0.3749 -1.7999
    9CHL1   C16  613   0.772   5.038   9.476  0.0846  0.3753 -0.0872
    9CHL1  H16A  614   0.689   5.049   9.402 -0.0630 -0.4152 -0.0486
    9CHL1  H16B  615   0.850   5.110   9.445 -1.8709  2.5837 -0.2073
    9CHL1   C17  616   0.837   4.896   9.467 -0.2662 -0.3242 -0.4058
    9CHL1   H17  617   0.944   4.923   9.477 -0.0753 -0.9756 -0.6309
    9CHL1   C13  618   0.798   4.826   9.598  0.0299  0.1496  0.1161
    9CHL1   C18  619   0.654   4.778   9.572 -0.2693 -0.0370 -0.3196
    9CHL1  H18A  620   0.643   4.683   9.517 -1.5977  0.1543 -0.4110
    9CHL1  H18B  621   0.604   4.760   9.670  0.3257 -0.9020 -0.1656
    9CHL1  H18C  622   0.593   4.848   9.511  0.5293 -0.8771 -2.1394
    9CHL1   C12  623   0.898   4.720   9.664  0.3813 -0.2154 -0.2131
    9CHL1  H12A  624   0.913   4.625   9.607 -1.1760 -0.8091  0.3145
    9CHL1  H12B  625   0.998   4.764   9.685  0.6907 -0.5117 -0.9888
    9CHL1   C11  626   0.849   4.677   9.804 -0.1877  0.2174  0.7589
    9CHL1  H11A  627   0.758   4.617   9.781  1.3606 -1.1164 -2.6233
    9CHL1  H11B  628   0.914   4.602   9.854  0.7163 -1.2495 -2.3470
    9CHL1    C9  629   0.810   4.789   9.902 -0.2124 -0.6317 -0.4883
    9CHL1    H9  630   0.909   4.832   9.930 -0.8328  1.0219 -0.7539
    9CHL1   C10  631   0.747   4.742  10.040  0.9920  0.1209  0.6505
    9CHL1   C19  632   0.623   4.650  10.020 -0.8079  0.6026  0.1518
    9CHL1  H19A  633   0.563   4.692   9.937 -2.4013  0.5692  1.2601
    9CHL1  H19B  634   0.655   4.550   9.983  1.5497  1.6320 -0.8209
    9CHL1  H19C  635   0.558   4.628  10.106  0.0476 -0.6728  0.5060
    9CHL1    C1  636   0.861   4.653  10.118 -0.0323 -0.4321  1.0728
    9CHL1   H1A  637   0.881   4.557  10.065  0.3127  0.8446 -1.2469
    9CHL1   H1B  638   0.956   4.710  10.121 -1.1067  1.4076  1.3631
    9CHL1    C2  639   0.831   4.615  10.264 -0.0627  0.3741  0.7215
    9CHL1   H2A  640   0.908   4.557  10.319  1.4019 -0.5653 -2.1434
    9CHL1   H2B  641   0.742   4.549  10.257 -1.0081  1.7243 -0.8633
    9CHL1   C20  642   0.830   4.822   9.329 -0.5221  0.1476  0.2974
    9CHL1   H20  643   0.723   4.810   9.303 -0.1764  1.0690 -1.6825
    9CHL1   C21  644   0.904   4.680   9.334 -0.3445 -0.5380 -0.1916
    9CHL1  H21A  645   0.852   4.619   9.411  0.5183 -1.6026 -0.4289
    9CHL1  H21B  646   1.011   4.700   9.356 -1.0318  1.1430  1.9926
    9CHL1  H21C  647   0.889   4.627   9.238  0.1741 -3.2601  1.1398
    9CHL1   C22  648   0.880   4.900   9.210 -0.0026  0.0462 -0.3130
    9CHL1  H22A  649   0.891   5.008   9.232  1.9837  0.2766 -2.1521
    9CHL1  H22B  650   0.977   4.849   9.191 -0.4627 -1.0058  0.0308
    9CHL1   C23  651   0.791   4.879   9.081  0.0675 -0.7058 -1.0863
    9CHL1  H23A  652   0.808   4.776   9.042  0.3685 -0.2824 -2.1020
    9CHL1  H23B  653   0.683   4.905   9.089  0.3707  0.1335  0.9650
    9CHL1   C24  654   0.849   4.972   8.969  0.6547  0.2540 -0.4304
    9CHL1  H24A  655   0.866   5.077   8.999  0.6013  1.0427 -2.9714
    9CHL1  H24B  656   0.955   4.952   8.943  0.8007  1.7356 -1.0746
    9CHL1   C25  657   0.763   4.975   8.836  0.0305  0.0061 -0.1507
    9CHL1   H25  658   0.661   5.010   8.860 -0.3449 -1.3218  0.3079
    9CHL1   C26  659   0.827   5.085   8.742 -0.1705 -0.2247  0.8947
    9CHL1  H26A  660   0.777   5.101   8.644 -1.0920 -1.4042  1.1526
    9CHL1  H26B  661   0.845   5.181   8.795  0.4847 -0.2536  0.7447
    9CHL1  H26C  662   0.929   5.052   8.711  0.8276  1.7040  1.9157
    9CHL1   C27  663   0.772   4.836   8.772 -0.1243 -0.3691 -0.4111
    9CHL1  H27A  664   0.731   4.760   8.842  0.6437 -1.2288 -0.8664
    9CHL1  H27B  665   0.703   4.842   8.685 -3.5002  0.5867  2.1388
    9CHL1  H27C  666   0.873   4.799   8.744  0.0859  0.7473 -1.1658
   10CHL1    C3  667   5.835   1.996  10.455  0.8240 -0.3248 -0.3029
   10CHL1    H3  668   5.733   2.035  10.479 -0.6885 -4.1961  0.2750
   10CHL1    O3  669   5.919   1.992  10.569  0.2523  0.0855  0.2102
   10CHL1   H3'  670   5.944   1.900  10.580 -1.3832 -0.3020  1.0617
   10CHL1    C4  671   5.818   1.853  10.399  0.5425  0.1777  0.5221
   10CHL1   H4A  672   5.917   1.802  10.405 -0.0350 -1.0607 -0.2655
   10CHL1   H4B  673   5.753   1.794  10.467 -1.1188 -0.7046 -1.7208
   10CHL1    C5  674   5.769   1.845  10.252  0.4384  0.0490 -0.6433
   10CHL1    C6  675   5.664   1.768  10.218 -0.0671 -0.1510  0.0729
   10CHL1    H6  676   5.613   1.705  10.293  1.5521 -0.4084  1.0029
   10CHL1    C7  677   5.614   1.754  10.081  0.5786  0.2262 -0.0617
   10CHL1   H7A  678   5.575   1.652  10.062  1.3775 -0.4112  1.5107
   10CHL1   H7B  679   5.520   1.814  10.078  0.4265 -0.0550 -0.9744
   10CHL1    C8  680   5.715   1.801   9.976 -0.0260 -0.1269 -0.1910
   10CHL1    H8  681   5.799   1.728   9.967 -2.1779 -2.8683  0.5108
   10CHL1   C14  682   5.656   1.797   9.836  0.2289 -0.3703  0.2068
   10CHL1   H14  683   5.576   1.874   9.840  0.4308 -0.0228 -1.4809
   10CHL1   C15  684   5.595   1.663   9.791  0.0549  0.3332  0.3779
   10CHL1  H15A  685   5.667   1.582   9.811  0.7647  1.0859  0.9619
   10CHL1  H15B  686   5.505   1.649   9.855 -0.1630  2.5336  0.6437
   10CHL1   C16  687   5.587   1.682   9.640  0.7868 -0.8821 -0.7996
   10CHL1  H16A  688   5.626   1.599   9.578 -0.2823 -0.3478 -2.2633
   10CHL1  H16B  689   5.477   1.673   9.626  0.6662 -0.4723 -0.1635
   10CHL1   C17  690   5.645   1.820   9.600  0.4440  0.3026 -0.1524
   10CHL1   H17  691   5.567   1.899   9.601  0.6988  0.5623 -0.5805
   10CHL1   C13  692   5.741   1.847   9.724 -0.0180 -0.1917 -0.3361
   10CHL1   C18  693   5.872   1.758   9.710 -0.5073 -0.3376 -0.4971
   10CHL1  H18A  694   5.937   1.806   9.633 -0.7047  0.8210  0.0345
   10CHL1  H18B  695   5.920   1.766   9.810 -1.0309 -0.6370 -0.2135
   10CHL1  H18C  696   5.850   1.652   9.686  1.5703 -0.6753 -1.1128
   10CHL1   C12  697   5.782   2.003   9.749  0.8375  0.5835  0.4259
   10CHL1  H12A  698   5.861   2.026   9.674  2.7806 -1.5986  1.6556
   10CHL1  H12B  699   5.690   2.064   9.744  1.3226  1.5446  2.3789
   10CHL1   C11  700   5.843   2.012   9.895 -0.9977  0.4263  0.7341
   10CHL1  H11A  701   5.949   1.980   9.893 -1.1843 -0.2924 -2.0782
   10CHL1  H11B  702   5.845   2.122   9.909  2.7855  0.3530  1.8988
   10CHL1    C9  703   5.770   1.942  10.013  0.2741 -0.3101  0.0919
   10CHL1    H9  704   5.677   2.001  10.026  0.0621 -0.4334 -0.8242
   10CHL1   C10  705   5.840   1.938  10.156  0.1141 -0.8561  0.1735
   10CHL1   C19  706   5.988   1.892  10.142  0.3053  0.1415 -0.1085
   10CHL1  H19A  707   6.034   1.840  10.229  0.3028  0.9267  0.3677
   10CHL1  H19B  708   5.994   1.811  10.066  2.6497  2.0809 -2.1635
   10CHL1  H19C  709   6.044   1.976  10.095  0.5474 -0.1034 -0.2642
   10CHL1    C1  710   5.830   2.081  10.218 -0.0917 -0.3433 -0.4499
   10CHL1   H1A  711   5.865   2.157  10.145  1.1498 -3.1657 -2.9860
   10CHL1   H1B  712   5.721   2.102  10.229  0.4146  2.7625 -0.4769
   10CHL1    C2  713   5.901   2.085  10.353 -0.3159 -0.1140 -0.7327
   10CHL1   H2A  714   5.900   2.191  10.388 -0.4145 -0.2409 -0.3527
   10CHL1   H2B  715   6.010   2.065  10.342 -0.8378 -2.8755 -1.6481
   10CHL1   C20  716   5.699   1.805   9.465 -0.6911  0.5625  0.8705
   10CHL1   H20  717   5.781   1.730   9.458 -1.0872  0.2423 -0.9158
   10CHL1   C21  718   5.786   1.925   9.427 -0.3709 -0.9666 -0.4376
   10CHL1  H21A  719   5.836   1.906   9.330 -0.0785  1.5062 -0.8267
   10CHL1  H21B  720   5.871   1.946   9.495 -1.5855 -0.1490  0.8934
   10CHL1  H21C  721   5.725   2.018   9.427 -0.0390 -0.7062  1.6725
   10CHL1   C22  722   5.597   1.779   9.347  0.1876 -0.0757  0.0542
   10CHL1  H22A  723   5.532   1.701   9.393  0.5604  0.2906  1.2546
   10CHL1  H22B  724   5.534   1.871   9.349  0.9364  0.4999 -1.2855
   10CHL1   C23  725   5.637   1.744   9.212 -0.2484 -0.0910  0.1451
   10CHL1  H23A  726   5.698   1.827   9.171 -2.6967  2.4341  1.2685
   10CHL1  H23B  727   5.696   1.650   9.206 -0.9630 -0.6583  1.5272
   10CHL1   C24  728   5.507   1.736   9.129 -0.1515  0.3151  0.2866
   10CHL1  H24A  729   5.443   1.669   9.191  0.4536 -0.5542 -0.0089
   10CHL1  H24B  730   5.472   1.841   9.123 -1.7827 -0.2717 -2.0755
   10CHL1   C25  731   5.509   1.682   8.981  1.5363  0.3816 -0.5380
   10CHL1   H25  732   5.576   1.752   8.927  1.0737  1.4106  0.1916
   10CHL1   C26  733   5.557   1.539   8.963  0.1983  0.0086  0.4315
   10CHL1  H26A  734   5.564   1.498   8.860  0.2376 -1.2458  0.9146
   10CHL1  H26B  735   5.651   1.522   9.019 -1.1302 -1.4250  2.3416
   10CHL1  H26C  736   5.485   1.477   9.020 -0.1403  0.8911  0.9805
   10CHL1   C27  737   5.362   1.687   8.919 -0.5320 -0.1867 -0.4374
   10CHL1  H27A  738   5.289   1.633   8.984  0.2090 -1.8777 -0.9496
   10CHL1  H27B  739   5.318   1.788   8.911 -3.5134 -1.5084 -2.5594
   10CHL1  H27C  740   5.372   1.640   8.819  0.7398 -1.6405  0.3224
   11CHL1    C3  741   2.964   5.355  10.404  0.4213 -0.7126 -0.1542
   11CHL1    H3  742   2.874   5.307  10.361  0.8541 -0.9110 -0.8522
   11CHL1    O3  743   2.983   5.319  10.543  0.7188 -0.3554 -0.3656
   11CHL1   H3'  744   3.022   5.231  10.543 -2.3549 -1.8233 -0.3690
   11CHL1    C4  745   3.084   5.303  10.324  0.1417 -0.4275 -0.1893
   11CHL1   H4A  746   3.178   5.334  10.375 -1.4606  2.1697  1.4001
   11CHL1   H4B  747   3.088   5.193  10.332  1.0733 -0.3874 -0.0046
   11CHL1    C5  748   3.088   5.341  10.179 -0.3423  1.0134  0.2804
   11CHL1    C6  749   3.102   5.248  10.087  0.3167  0.5889  1.0210
   11CHL1    H6  750   3.130   5.148  10.124  0.6977  0.9140  1.6467
   11CHL1    C7  751   3.114   5.275   9.938  0.3323 -0.4620 -1.0059
   11CHL1   H7A  752   3.196   5.216   9.891 -0.6748 -3.5833  0.8499
   11CHL1   H7B  753   3.014   5.265   9.889 -2.0683 -0.9887  3.4929
   11CHL1    C8  754   3.142   5.424   9.915 -0.0975 -0.5187 -0.1526
   11CHL1    H8  755   3.248   5.445   9.941 -0.5087  0.4752  0.7418
   11CHL1   C14  756   3.127   5.449   9.769 -0.4566  0.9548  0.2371
   11CHL1   H14  757   3.020   5.428   9.748 -0.5463 -1.0502  2.2599
   11CHL1   C15  758   3.194   5.359   9.671 -0.3558  0.0179 -0.4805
   11CHL1  H15A  759   3.303   5.356   9.689 -0.9158  1.5439  4.5734
   11CHL1  H15B  760   3.158   5.254   9.664  0.0974 -0.3522  2.0577
   11CHL1   C16  761   3.187   5.432   9.532 -0.1943  0.3723 -0.2624
   11CHL1  H16A  762   3.288   5.435   9.487  0.5290 -1.8575  1.0525
   11CHL1  H16B  763   3.120   5.382   9.459 -1.0009 -0.2045  0.8437
   11CHL1   C17  764   3.119   5.571   9.561 -0.2363 -0.2209 -0.2499
   11CHL1   H17  765   3.009   5.558   9.558 -0.4971  1.4976  0.5742
   11CHL1   C13  766   3.150   5.590   9.715 -0.1665  0.1258  0.7231
   11CHL1   C18  767   3.299   5.630   9.731  0.0499 -0.3465 -0.4069
   11CHL1  H18A  768   3.377   5.583   9.666 -0.2631 -0.8117 -0.4502
   11CHL1  H18B  769   3.318   5.738   9.709  0.9751 -0.2153  0.9169
   11CHL1  H18C  770   3.335   5.588   9.827 -3.8501 -1.7269  0.6428
   11CHL1   C12  771   3.056   5.688   9.800 -0.4427 -0.5420  0.3010
   11CHL1  H12A  772   3.086   5.794   9.783 -0.1020 -0.5699  0.7259
   11CHL1  H12B  773   2.953   5.669   9.762  0.4850 -0.1353 -2.7342
   11CHL1   C11  774   3.065   5.660   9.954  0.0140  0.0110  0.4347
   11CHL1  H11A  775   3.166   5.697   9.979  1.0338 -2.1450 -0.2097
   11CHL1  H11B  776   2.989   5.722  10.006  1.2744  0.7229  1.4819
   11CHL1    C9  777   3.047   5.507   9.993  0.1248 -0.9583 -0.1960
   11CHL1    H9  778   2.941   5.487   9.969 -1.4705  3.4571  2.0666
   11CHL1   C10  779   3.076   5.489  10.142  0.3954  0.1618  0.9264
   11CHL1   C19  780   3.210   5.558  10.188  0.0332 -1.1555  0.4056
   11CHL1  H19A  781   3.231   5.663  10.157  0.6548 -0.6555  2.3872
   11CHL1  H19B  782   3.215   5.569  10.298 -1.5103 -1.2463  0.5014
   11CHL1  H19C  783   3.300   5.507  10.147  1.3195  0.8762  0.5860
   11CHL1    C1  784   2.951   5.538  10.222  0.6117 -0.2690  0.2117
   11CHL1   H1A  785   2.956   5.649  10.222  2.8169 -0.2903  1.9473
   11CHL1   H1B  786   2.866   5.498  10.164  0.9751  0.4867 -0.8775
   11CHL1    C2  787   2.938   5.504  10.373  0.0057 -0.2825  0.4578
   11CHL1   H2A  788   2.833   5.525  10.403 -0.8452 -1.5029 -1.4786
   11CHL1   H2B  789   2.999   5.571  10.438 -0.5912  0.2708  0.4600
   11CHL1   C20  790   3.160   5.672   9.456 -0.8454 -0.0910  0.9070
   11CHL1   H20  791   3.268   5.696   9.467 -0.1842 -1.8382 -1.1818
   11CHL1   C21  792   3.075   5.798   9.474  0.3221 -0.4652  0.6118
   11CHL1  H21A  793   2.966   5.777   9.476 -0.2035  2.0074  1.8065
   11CHL1  H21B  794   3.081   5.855   9.379 -0.6632 -0.1929  0.7012
   11CHL1  H21C  795   3.097   5.850   9.569 -0.2247 -1.0243  1.0581
   11CHL1   C22  796   3.148   5.630   9.304  0.3281 -0.5699  0.3319
   11CHL1  H22A  797   3.225   5.550   9.295  0.4969 -0.5948  1.8475
   11CHL1  H22B  798   3.048   5.589   9.278  0.4780 -0.6413 -0.1392
   11CHL1   C23  799   3.193   5.732   9.197 -0.0589 -0.1925 -0.0650
   11CHL1  H23A  800   3.120   5.816   9.195 -0.3846 -0.4889 -0.8039
   11CHL1  H23B  801   3.288   5.777   9.234 -0.5017  0.9864 -0.2969
   11CHL1   C24  802   3.190   5.682   9.052  0.3384 -0.2105 -0.5328
   11CHL1  H24A  803   3.248   5.587   9.040 -0.5900 -0.8959  0.1902
   11CHL1  H24B  804   3.083   5.657   9.035  0.0461 -0.5164  1.4785
   11CHL1   C25  805   3.229   5.790   8.951  0.1150 -0.8370  0.8027
   11CHL1   H25  806   3.142   5.858   8.943  0.9745  0.3094  0.9855
   11CHL1   C26  807   3.371   5.855   8.973  0.6514 -0.3535 -0.2871
   11CHL1  H26A  808   3.448   5.786   8.930 -0.1280 -0.5356 -1.4313
   11CHL1  H26B  809   3.370   5.950   8.916 -1.9632 -0.4415 -0.4655
   11CHL1  H26C  810   3.398   5.887   9.076 -0.7709  0.0600 -0.0269
   11CHL1   C27  811   3.216   5.726   8.809 -0.1415  0.4625  0.0133
   11CHL1  H27A  812   3.195   5.811   8.740  1.2073  0.0773 -0.9002
   11CHL1  H27B  813   3.315   5.686   8.780  0.4141  1.0130  1.0684
   11CHL1  H27C  814   3.141   5.645   8.798  1.4093 -0.9340 -0.6716
   12CHL1    C3  815   5.156   2.549  10.511  0.1191  0.1797  0.2770
   12CHL1    H3  816   5.220   2.639  10.504  1.0279 -0.5496 -1.9715
   12CHL1    O3  817   5.110   2.552  10.640  0.0047  0.0394  0.8669
   12CHL1   H3'  818   5.052   2.476  10.646 -0.6564  0.5020  0.4829
   12CHL1    C4  819   5.031   2.557  10.423  0.1994 -0.8247 -0.1075
   12CHL1   H4A  820   4.946   2.495  10.458 -0.4046 -0.1382 -0.3164
   12CHL1   H4B  821   4.998   2.663  10.423 -1.1688 -1.2317  0.0110
   12CHL1    C5  822   5.049   2.507  10.282  0.5443 -0.1526  0.3677
   12CHL1    C6  823   4.989   2.579  10.181  0.0908 -0.5054 -0.2710
   12CHL1    H6  824   4.931   2.669  10.206  0.4821 -0.6762  1.3493
   12CHL1    C7  825   5.005   2.542  10.043  0.5785  0.0130  0.2489
   12CHL1   H7A  826   4.904   2.548   9.997  0.7536 -1.4580 -0.3661
   12CHL1   H7B  827   5.079   2.613  10.001  2.4913 -1.6827  0.5930
   12CHL1    C8  828   5.057   2.398  10.007 -0.4911 -0.2112  0.0512
   12CHL1    H8  829   4.971   2.328  10.001  0.1119 -0.8328 -3.3289
   12CHL1   C14  830   5.113   2.389   9.868  0.0571  0.2708  0.2047
   12CHL1   H14  831   5.204   2.453   9.878  1.3150 -1.5639  1.1163
   12CHL1   C15  832   5.037   2.442   9.748 -0.3566  0.1441  0.6867
   12CHL1  H15A  833   4.939   2.390   9.760  0.7571 -2.2321  0.1381
   12CHL1  H15B  834   5.030   2.553   9.748  0.4862  0.2580 -1.7930
   12CHL1   C16  835   5.113   2.390   9.621 -0.3206  0.6373  0.3831
   12CHL1  H16A  836   5.037   2.351   9.549 -0.7156  0.7496  0.7371
   12CHL1  H16B  837   5.172   2.474   9.578  3.2393 -0.5406  2.5882
   12CHL1   C17  838   5.222   2.296   9.686  0.0334  0.0773 -0.0394
   12CHL1   H17  839   5.311   2.360   9.704 -1.4312  1.9974  0.7558
   12CHL1   C13  840   5.174   2.254   9.824 -0.1549 -0.0408 -0.4502
   12CHL1   C18  841   5.055   2.152   9.817 -0.4361  0.0485 -0.0078
   12CHL1  H18A  842   5.103   2.052   9.827 -0.3505 -0.0344 -1.1424
   12CHL1  H18B  843   4.988   2.158   9.905 -1.8550  2.4595 -1.1553
   12CHL1  H18C  844   4.981   2.162   9.735 -0.1545  1.6300 -0.0889
   12CHL1   C12  845   5.281   2.212   9.930 -0.7805 -0.0469 -0.2811
   12CHL1  H12A  846   5.335   2.118   9.903  0.0561  0.2101  0.4692
   12CHL1  H12B  847   5.360   2.290   9.938 -0.3316 -0.5830  0.7397
   12CHL1   C11  848   5.224   2.220  10.071  0.3612  0.2297 -0.1208
   12CHL1  H11A  849   5.133   2.156  10.073 -0.2598  1.0442 -1.3157
   12CHL1  H11B  850   5.291   2.186  10.154 -0.0454 -0.0025  0.1134
   12CHL1    C9  851   5.165   2.359  10.107  0.3468  0.5139 -0.0354
   12CHL1    H9  852   5.253   2.424  10.088  0.7679  0.2895  1.0650
   12CHL1   C10  853   5.129   2.383  10.256 -0.5298 -0.4110 -0.3535
   12CHL1   C19  854   5.032   2.265  10.303 -0.0211  0.7075 -0.5181
   12CHL1  H19A  855   5.026   2.267  10.414 -0.2566  0.0325 -0.5119
   12CHL1  H19B  856   4.932   2.265  10.253 -0.1204 -0.9202 -0.3557
   12CHL1  H19C  857   5.072   2.163  10.289 -2.2522 -0.6481  2.0543
   12CHL1    C1  858   5.264   2.383  10.339  0.0723 -0.7825 -0.1837
   12CHL1   H1A  859   5.323   2.289  10.347  1.3821 -0.0419 -0.7487
   12CHL1   H1B  860   5.339   2.450  10.293  0.4140 -0.8093  0.3338
   12CHL1    C2  861   5.242   2.421  10.491  0.0992 -0.3429 -0.2734
   12CHL1   H2A  862   5.338   2.431  10.546  1.8116  2.0023 -3.3200
   12CHL1   H2B  863   5.197   2.327  10.529  1.9659 -1.2894 -0.2607
   12CHL1   C20  864   5.249   2.175   9.586 -0.3265  0.0165  0.6393
   12CHL1   H20  865   5.154   2.124   9.559  0.7648 -1.2746 -0.9605
   12CHL1   C21  866   5.341   2.067   9.651 -0.1293 -0.1447  0.6519
   12CHL1  H21A  867   5.372   2.002   9.565  3.9925  0.2057  1.6987
   12CHL1  H21B  868   5.286   2.005   9.726 -0.6567 -0.1310  0.2847
   12CHL1  H21C  869   5.432   2.099   9.705  0.3662 -1.8820  0.9058
   12CHL1   C22  870   5.298   2.227   9.452 -0.6118 -0.2184  0.2475
   12CHL1  H22A  871   5.247   2.322   9.427 -0.9571 -0.0527  1.5436
   12CHL1  H22B  872   5.407   2.246   9.458 -0.7304  0.9302 -0.7458
   12CHL1   C23  873   5.285   2.127   9.335  0.3279  0.2978 -0.3916
   12CHL1  H23A  874   5.356   2.159   9.255 -0.2880 -0.6485 -1.3292
   12CHL1  H23B  875   5.298   2.022   9.368 -1.4541 -0.0428 -0.6890
   12CHL1   C24  876   5.144   2.139   9.275  0.8721 -0.8616  1.1320
   12CHL1  H24A  877   5.060   2.134   9.348 -0.7980  1.6463 -0.4629
   12CHL1  H24B  878   5.139   2.240   9.231  1.0804 -0.7900  1.2713
   12CHL1   C25  879   5.112   2.032   9.168  0.2455  0.3838  0.3699
   12CHL1   H25  880   5.123   1.934   9.219 -0.4609  0.3729  0.5112
   12CHL1   C26  881   4.960   2.057   9.137 -0.2043  0.8312  0.2660
   12CHL1  H26A  882   4.911   2.026   9.232  1.9718  0.8931  1.4902
   12CHL1  H26B  883   4.950   2.163   9.107 -2.0663  0.1994 -1.5407
   12CHL1  H26C  884   4.928   1.989   9.055  1.3247 -1.6302  1.5918
   12CHL1   C27  885   5.199   2.023   9.042  1.0780 -0.5128 -0.6364
   12CHL1  H27A  886   5.149   1.952   8.973 -0.1628 -2.0049  1.6442
   12CHL1  H27B  887   5.191   2.119   8.987  1.0839  0.4292  0.9410
   12CHL1  H27C  888   5.304   1.992   9.061  1.0172  0.0108  0.6716
   13CHL1    C3  889   4.382   3.390  10.123 -0.1847 -0.0999 -1.1251
   13CHL1    H3  890   4.272   3.374  10.127 -0.3597  1.3330  0.7087
   13CHL1    O3  891   4.401   3.411  10.266  0.0381  0.2894  0.8424
   13CHL1   H3'  892   4.492   3.441  10.274 -0.0211  0.4707  0.8444
   13CHL1    C4  893   4.462   3.274  10.057  0.0839 -0.6625 -0.5611
   13CHL1   H4A  894   4.567   3.293  10.089  0.9960 -1.9006 -2.5891
   13CHL1   H4B  895   4.437   3.177  10.105  0.9267 -0.0679  1.1455
   13CHL1    C5  896   4.455   3.277   9.906 -0.0751  0.5163 -0.1697
   13CHL1    C6  897   4.415   3.164   9.841 -0.1958  0.1124  0.8026
   13CHL1    H6  898   4.390   3.072   9.897 -1.2408  1.6521  3.0150
   13CHL1    C7  899   4.430   3.151   9.690 -0.1388  0.3949 -0.1544
   13CHL1   H7A  900   4.468   3.049   9.671 -0.9830 -0.1358  0.8711
   13CHL1   H7B  901   4.329   3.138   9.645 -0.1434  0.2660 -0.1088
   13CHL1    C8  902   4.505   3.270   9.626 -0.5205 -0.4462 -0.1550
   13CHL1    H8  903   4.613   3.261   9.651 -0.2707  1.7888 -0.1888
   13CHL1   C14  904   4.478   3.283   9.479 -0.4479 -0.0951 -0.0909
   13CHL1   H14  905   4.371   3.304   9.461  0.0275  2.1955 -0.5962
   13CHL1   C15  906   4.516   3.158   9.401  0.6227 -0.5061 -0.0166
   13CHL1  H15A  907   4.619   3.118   9.414  1.3364  0.5335 -1.9737
   13CHL1  H15B  908   4.443   3.076   9.418  1.2424 -0.7794  1.4667
   13CHL1   C16  909   4.518   3.196   9.257 -0.4857 -1.1242  0.0731
   13CHL1  H16A  910   4.613   3.156   9.215 -0.6298 -0.5958 -0.7783
   13CHL1  H16B  911   4.424   3.168   9.205 -2.6186  3.7326  0.7811
   13CHL1   C17  912   4.520   3.354   9.253 -0.1651 -0.2110  0.0207
   13CHL1   H17  913   4.414   3.377   9.229 -0.1555 -0.4709 -0.2701
   13CHL1   C13  914   4.548   3.400   9.398 -1.0541  0.7536 -0.4603
   13CHL1   C18  915   4.697   3.397   9.417 -0.3833 -0.0128  0.3205
   13CHL1  H18A  916   4.741   3.481   9.358  2.0650 -1.2336  0.2742
   13CHL1  H18B  917   4.729   3.395   9.523  0.5101  3.2969  0.2285
   13CHL1  H18C  918   4.743   3.304   9.378  1.0141 -0.4631  2.8282
   13CHL1   C12  919   4.494   3.527   9.460  0.5004 -0.3610 -0.1106
   13CHL1  H12A  920   4.536   3.622   9.422  0.1302 -0.7065 -1.4196
   13CHL1  H12B  921   4.385   3.543   9.447  0.3851 -1.1187 -0.1280
   13CHL1   C11  922   4.519   3.532   9.618 -0.6261  0.0921  0.3329
   13CHL1  H11A  923   4.629   3.533   9.633 -0.2135 -2.8494 -1.6675
   13CHL1  H11B  924   4.473   3.621   9.665  0.1457 -0.9612  3.2888
   13CHL1    C9  925   4.461   3.407   9.692  0.3657 -0.3663 -0.0421
   13CHL1    H9  926   4.351   3.400   9.685  0.4875 -0.5414 -2.6520
   13CHL1   C10  927   4.497   3.404   9.842 -1.2190  0.3096  0.1235
   13CHL1   C19  928   4.653   3.435   9.870 -0.3197 -0.2033  0.3061
   13CHL1  H19A  929   4.685   3.533   9.831 -0.7872 -0.0485  0.3049
   13CHL1  H19B  930   4.662   3.433   9.981 -1.1333 -1.5412  0.3724
   13CHL1  H19C  931   4.705   3.349   9.821 -0.2536  0.4064 -0.7250
   13CHL1    C1  932   4.415   3.526   9.903 -0.3415 -0.0562 -0.5450
   13CHL1   H1A  933   4.462   3.616   9.858  0.0901  0.1143  0.2302
   13CHL1   H1B  934   4.309   3.513   9.870 -0.6718 -0.4491  0.6175
   13CHL1    C2  935   4.418   3.521  10.062 -0.3295 -0.0483  0.7352
   13CHL1   H2A  936   4.338   3.592  10.094  1.0796  2.3902 -0.8562
   13CHL1   H2B  937   4.514   3.559  10.103 -0.4062  0.7577  0.2122
   13CHL1   C20  938   4.596   3.415   9.134  0.5361 -0.0465  0.6201
   13CHL1   H20  939   4.704   3.394   9.144  0.7212 -0.2342 -1.4507
   13CHL1   C21  940   4.574   3.569   9.129 -0.6250 -0.5208  0.5213
   13CHL1  H21A  941   4.660   3.609   9.186 -0.8873 -0.3896  0.8357
   13CHL1  H21B  942   4.476   3.582   9.182 -0.3919  0.6251  0.6823
   13CHL1  H21C  943   4.588   3.602   9.024 -0.5169  0.3201  0.7915
   13CHL1   C22  944   4.563   3.341   8.998 -0.0777  0.1421  0.9112
   13CHL1  H22A  945   4.578   3.232   9.008 -0.6876 -0.0111  0.2625
   13CHL1  H22B  946   4.453   3.347   8.983  0.1007  1.9721 -0.1067
   13CHL1   C23  947   4.631   3.393   8.869  0.4400 -0.0104  0.4375
   13CHL1  H23A  948   4.622   3.503   8.862 -1.2485 -0.0896  1.1135
   13CHL1  H23B  949   4.738   3.365   8.859  0.6087  0.4283  0.9631
   13CHL1   C24  950   4.559   3.342   8.740  0.4454  0.1218  0.5243
   13CHL1  H24A  951   4.579   3.237   8.710  0.4904  0.2630  0.0527
   13CHL1  H24B  952   4.453   3.346   8.774  0.3241 -1.0808  0.3514
   13CHL1   C25  953   4.594   3.419   8.612  0.1774 -0.1201 -0.6253
   13CHL1   H25  954   4.585   3.528   8.635 -1.7879 -0.3672  0.0058
   13CHL1   C26  955   4.736   3.398   8.562 -0.1380  0.0999 -0.2639
   13CHL1  H26A  956   4.764   3.450   8.468  0.3119 -1.7363 -1.2040
   13CHL1  H26B  957   4.807   3.427   8.643 -2.5844  0.0198  2.0541
   13CHL1  H26C  958   4.754   3.290   8.542 -1.9530 -0.2835  0.0800
   13CHL1   C27  959   4.497   3.400   8.498  0.3450 -0.4723  0.8186
   13CHL1  H27A  960   4.520   3.304   8.448  3.4486  1.7014 -2.3768
   13CHL1  H27B  961   4.391   3.416   8.529  0.0811  1.6925 -0.9362
   13CHL1  H27C  962   4.520   3.473   8.418 -1.0481  2.5562  2.9470
   14CHL1    C3  963   4.229   6.607  10.424 -0.9762  1.0938 -0.1879
   14CHL1    H3  964   4.155   6.541  10.375 -0.7139  0.3473  0.4029
   14CHL1    O3  965   4.204   6.609  10.567  0.3060 -0.1304  0.1342
   14CHL1   H3'  966   4.116   6.645  10.579 -0.5575 -2.4291  1.3388
   14CHL1    C4  967   4.370   6.545  10.396  0.6675 -0.1831  0.2766
   14CHL1   H4A  968   4.451   6.605  10.443 -0.6854  1.4324  0.6144
   14CHL1   H4B  969   4.372   6.444  10.443  0.5677 -0.4277 -0.2409
   14CHL1    C5  970   4.384   6.531  10.244  0.8478 -0.1078 -0.7219
   14CHL1    C6  971   4.401   6.415  10.182 -0.2880 -0.0250 -0.0753
   14CHL1    H6  972   4.403   6.322  10.241 -0.6616 -0.9169 -1.4234
   14CHL1    C7  973   4.414   6.395  10.032  0.5515 -0.2199 -0.4344
   14CHL1   H7A  974   4.480   6.306  10.016 -1.6302 -1.6008 -2.2745
   14CHL1   H7B  975   4.318   6.364   9.986  0.5068 -1.8963  0.6857
   14CHL1    C8  976   4.468   6.519   9.966  0.3076  0.2152  0.2137
   14CHL1    H8  977   4.571   6.543  10.000  1.3402 -1.5535 -1.5240
   14CHL1   C14  978   4.472   6.507   9.815 -0.1164  0.5564  0.3134
   14CHL1   H14  979   4.366   6.483   9.792 -0.2762  1.7791 -0.2902
   14CHL1   C15  980   4.563   6.394   9.753 -0.3811  0.9915 -0.3849
   14CHL1  H15A  981   4.663   6.384   9.800 -1.2456 -0.9829  1.2061
   14CHL1  H15B  982   4.523   6.290   9.758  2.4835 -0.1542  0.3297
   14CHL1   C16  983   4.580   6.443   9.603 -0.0237 -0.7189 -0.3622
   14CHL1  H16A  984   4.688   6.442   9.578  0.1891  0.0483  0.4558
   14CHL1  H16B  985   4.546   6.361   9.537 -0.0106 -0.5642 -0.5611
   14CHL1   C17  986   4.496   6.569   9.586  0.1724  0.1195  0.7471
   14CHL1   H17  987   4.391   6.544   9.559  0.6074 -0.8017 -0.1110
   14CHL1   C13  988   4.497   6.633   9.732 -0.1376 -0.2350  0.3562
   14CHL1   C18  989   4.636   6.685   9.757 -0.4482 -0.2069  0.3449
   14CHL1  H18A  990   4.722   6.615   9.763  1.7444  2.2139 -0.6603
   14CHL1  H18B  991   4.660   6.761   9.679  1.3728 -2.3908 -1.3779
   14CHL1  H18C  992   4.645   6.744   9.850 -0.1540 -2.4500  1.8158
   14CHL1   C12  993   4.396   6.738   9.759  0.5010  0.0946 -0.0410
   14CHL1  H12A  994   4.411   6.837   9.711 -3.0369  1.8783  2.0483
   14CHL1  H12B  995   4.295   6.700   9.733 -1.4020  2.6998  2.7363
   14CHL1   C11  996   4.386   6.763   9.916 -0.1454 -0.3663 -0.9976
   14CHL1  H11A  997   4.483   6.813   9.934 -1.7231  2.5139  0.1540
   14CHL1  H11B  998   4.305   6.831   9.950  0.0401  0.5405 -2.3201
   14CHL1    C9  999   4.373   6.639  10.005  0.6947 -0.0377 -0.2741
   14CHL1    H9 1000   4.270   6.604   9.985 -0.1277  1.2911  1.3542
   14CHL1   C10 1001   4.362   6.658  10.158 -0.2725  0.3867 -0.7332
   14CHL1   C19 1002   4.475   6.758  10.197 -0.8566 -0.1183  0.0187
   14CHL1  H19A 1003   4.577   6.715  10.190  0.0807  2.1624 -1.3628
   14CHL1  H19B 1004   4.469   6.846  10.130  2.1917  0.5106  0.4318
   14CHL1  H19C 1005   4.472   6.805  10.298  0.8009 -0.3282  0.1961
   14CHL1    C1 1006   4.225   6.727  10.197 -0.1037  0.7077 -0.2331
   14CHL1   H1A 1007   4.213   6.826  10.149 -0.7916  0.7994  0.1142
   14CHL1   H1B 1008   4.140   6.660  10.170 -0.1156 -0.1396  1.7077
   14CHL1    C2 1009   4.209   6.739  10.353  0.0064 -0.2264  0.0046
   14CHL1   H2A 1010   4.108   6.778  10.378 -0.8113 -1.5115 -1.1200
   14CHL1   H2B 1011   4.280   6.811  10.400  0.4554 -1.2808  0.9756
   14CHL1   C20 1012   4.539   6.655   9.463  0.3533 -0.0430  0.4087
   14CHL1   H20 1013   4.636   6.704   9.486 -0.4320  1.5124  0.5533
   14CHL1   C21 1014   4.438   6.762   9.426  0.1040  0.3050  0.7142
   14CHL1  H21A 1015   4.335   6.722   9.420  0.2602 -0.0589  0.4094
   14CHL1  H21B 1016   4.454   6.784   9.318  2.5669 -0.2870  0.8978
   14CHL1  H21C 1017   4.448   6.855   9.486 -1.7116  0.6125  0.6047
   14CHL1   C22 1018   4.580   6.566   9.338  0.2345 -0.6483  0.0758
   14CHL1  H22A 1019   4.664   6.500   9.369  0.7364 -0.1832 -0.2928
   14CHL1  H22B 1020   4.498   6.491   9.325  0.6028 -1.3718  1.6721
   14CHL1   C23 1021   4.621   6.634   9.207  0.2982 -0.0868 -0.9971
   14CHL1  H23A 1022   4.543   6.688   9.150 -0.2232  1.9485  1.5331
   14CHL1  H23B 1023   4.698   6.708   9.237  1.4213 -1.2487 -0.8639
   14CHL1   C24 1024   4.686   6.536   9.105 -0.7383 -0.4101 -0.3330
   14CHL1  H24A 1025   4.764   6.477   9.156 -0.2500  1.4579  1.2190
   14CHL1  H24B 1026   4.608   6.468   9.066  0.9680 -2.4164 -0.3976
   14CHL1   C25 1027   4.746   6.612   8.985 -0.9290  0.3433  0.5068
   14CHL1   H25 1028   4.804   6.693   9.033 -0.2653  0.1814 -0.0086
   14CHL1   C26 1029   4.846   6.524   8.905  0.4923  0.1362 -0.0310
   14CHL1  H26A 1030   4.905   6.598   8.847 -0.0595  1.5269  1.1214
   14CHL1  H26B 1031   4.912   6.478   8.983  2.1656  1.8161 -0.3677
   14CHL1  H26C 1032   4.796   6.447   8.844 -0.3246  0.6920 -0.0807
   14CHL1   C27 1033   4.636   6.680   8.896 -0.0563  0.1837 -0.2321
   14CHL1  H27A 1034   4.561   6.605   8.861 -2.2165  2.1192 -0.0074
   14CHL1  H27B 1035   4.577   6.752   8.956 -0.5067 -1.5417  1.4942
   14CHL1  H27C 1036   4.688   6.728   8.810  0.8010 -0.5691 -0.1482
   15CHL1    C3 1037   5.377   5.689  10.357 -0.6604 -0.3353 -0.4920
   15CHL1    H3 1038   5.312   5.617  10.303  2.2764 -2.6751 -1.1345
   15CHL1    O3 1039   5.321   5.703  10.493  0.4334 -0.7632 -0.2433
   15CHL1   H3' 1040   5.364   5.775  10.540  1.8492 -1.1070 -0.9601
   15CHL1    C4 1041   5.521   5.633  10.355 -0.2290  0.7240  0.2389
   15CHL1   H4A 1042   5.583   5.700  10.418 -1.8224  1.1891  1.3555
   15CHL1   H4B 1043   5.525   5.535  10.407 -2.5593  0.5237  0.1295
   15CHL1    C5 1044   5.580   5.626  10.213  0.5595  0.2627 -0.6375
   15CHL1    C6 1045   5.621   5.505  10.178 -0.2857 -0.9439 -0.0860
   15CHL1    H6 1046   5.622   5.429  10.257  0.9817  2.5296  3.5897
   15CHL1    C7 1047   5.674   5.472  10.038  0.3861 -0.3210  0.5706
   15CHL1   H7A 1048   5.772   5.424  10.062  1.0713  0.8557  0.2309
   15CHL1   H7B 1049   5.602   5.408   9.982  0.7277 -0.5250  0.3589
   15CHL1    C8 1050   5.698   5.600   9.952  0.6349 -0.9746  0.8518
   15CHL1    H8 1051   5.798   5.638   9.982  0.2917 -0.9785  2.0405
   15CHL1   C14 1052   5.694   5.561   9.800 -0.7710  0.0809 -0.8256
   15CHL1   H14 1053   5.587   5.535   9.796 -0.5695 -1.2433  0.9446
   15CHL1   C15 1054   5.791   5.439   9.767  1.1562  0.4401  0.7258
   15CHL1  H15A 1055   5.887   5.467   9.815  1.0997 -0.1538  1.2100
   15CHL1  H15B 1056   5.750   5.343   9.806  2.2238  0.1689  1.2330
   15CHL1   C16 1057   5.786   5.453   9.612  0.7422 -0.1168 -0.0654
   15CHL1  H16A 1058   5.892   5.459   9.579  0.4955 -1.1831 -1.1283
   15CHL1  H16B 1059   5.741   5.367   9.559  0.6624 -1.9949  2.8359
   15CHL1   C17 1060   5.727   5.598   9.575 -0.4942 -0.6387 -0.4973
   15CHL1   H17 1061   5.620   5.584   9.553 -0.9128  0.6476  0.5922
   15CHL1   C13 1062   5.717   5.678   9.705 -0.5186 -0.4500  0.0087
   15CHL1   C18 1063   5.856   5.741   9.742 -0.4305 -0.0452  0.1078
   15CHL1  H18A 1064   5.880   5.821   9.669 -0.8740 -2.3264 -2.7232
   15CHL1  H18B 1065   5.856   5.790   9.842  0.6228 -0.9138  0.5615
   15CHL1  H18C 1066   5.932   5.660   9.743 -1.0896 -0.6696  0.2634
   15CHL1   C12 1067   5.607   5.784   9.720  0.9297 -0.1868  0.5750
   15CHL1  H12A 1068   5.625   5.865   9.647 -0.1540 -0.1422  0.3364
   15CHL1  H12B 1069   5.510   5.742   9.686  0.1366  0.6881  1.6939
   15CHL1   C11 1070   5.595   5.824   9.869  0.2447 -0.0277  0.6839
   15CHL1  H11A 1071   5.676   5.893   9.900 -0.2386  1.1256 -0.5157
   15CHL1  H11B 1072   5.496   5.874   9.879 -0.5723 -1.5771  0.7098
   15CHL1    C9 1073   5.584   5.700   9.974 -0.6658 -0.1678 -0.4544
   15CHL1    H9 1074   5.488   5.653   9.944 -0.4342 -1.7894  1.1431
   15CHL1   C10 1075   5.567   5.747  10.121  0.1768  0.5588 -1.1130
   15CHL1   C19 1076   5.680   5.842  10.166  0.0405  0.5283 -0.4568
   15CHL1  H19A 1077   5.690   5.866  10.274  0.7439 -2.5189  0.2307
   15CHL1  H19B 1078   5.778   5.796  10.143 -0.2098 -1.1020  1.4461
   15CHL1  H19C 1079   5.666   5.940  10.116 -0.3214 -0.0641 -1.5510
   15CHL1    C1 1080   5.429   5.814  10.141  0.0741 -0.5111 -0.2051
   15CHL1   H1A 1081   5.432   5.916  10.098  3.7693 -0.9080 -1.2017
   15CHL1   H1B 1082   5.349   5.754  10.092 -0.4192  0.2766 -0.3799
   15CHL1    C2 1083   5.382   5.834  10.291 -0.4399  0.4054  0.1377
   15CHL1   H2A 1084   5.283   5.876  10.318 -1.1209 -1.3222  0.5245
   15CHL1   H2B 1085   5.458   5.897  10.343 -0.5433  1.3528 -0.8546
   15CHL1   C20 1086   5.800   5.655   9.455 -0.6037 -0.1192 -0.2819
   15CHL1   H20 1087   5.906   5.680   9.478 -0.4001  0.7970 -2.0619
   15CHL1   C21 1088   5.744   5.792   9.404 -0.8859  0.8369  0.0504
   15CHL1  H21A 1089   5.790   5.824   9.308 -2.5206  0.1647 -1.0064
   15CHL1  H21B 1090   5.766   5.868   9.482  1.8886  0.6245 -0.4390
   15CHL1  H21C 1091   5.634   5.785   9.390 -0.9232 -1.1958  0.9270
   15CHL1   C22 1092   5.801   5.560   9.334 -0.3437  0.2127 -0.0690
   15CHL1  H22A 1093   5.836   5.627   9.253 -1.1903  1.5296  0.6207
   15CHL1  H22B 1094   5.876   5.479   9.348  0.2381  0.9589  1.3452
   15CHL1   C23 1095   5.663   5.501   9.291 -0.0300 -0.3733 -0.0802
   15CHL1  H23A 1096   5.640   5.414   9.357  0.6910  0.6882  1.6347
   15CHL1  H23B 1097   5.583   5.578   9.290  2.1266  2.0490  0.7700
   15CHL1   C24 1098   5.676   5.447   9.151  0.5760 -0.1184  0.1113
   15CHL1  H24A 1099   5.758   5.371   9.153  1.4175  0.6995 -1.4037
   15CHL1  H24B 1100   5.582   5.393   9.128  0.1239  1.1629 -1.1748
   15CHL1   C25 1101   5.699   5.551   9.040 -0.2814 -0.5332 -0.0747
   15CHL1   H25 1102   5.763   5.630   9.084 -0.0693  1.1380 -3.1663
   15CHL1   C26 1103   5.772   5.480   8.922  0.2337 -0.3834 -0.3830
   15CHL1  H26A 1104   5.775   5.539   8.829 -2.7543 -2.8681 -2.2638
   15CHL1  H26B 1105   5.878   5.461   8.949  0.8466  0.9633 -1.7028
   15CHL1  H26C 1106   5.715   5.386   8.906 -0.1762 -0.1465 -0.3358
   15CHL1   C27 1107   5.568   5.622   8.999  0.1348  0.0585  0.0012
   15CHL1  H27A 1108   5.613   5.713   8.953  0.1532  0.3822  0.6400
   15CHL1  H27B 1109   5.516   5.570   8.917  2.5589 -1.4455 -0.6960
   15CHL1  H27C 1110   5.498   5.641   9.084  0.2209  2.3215 -0.3596
   16CHL1    C3 1111   6.105   6.102  10.540  0.4593 -0.0889 -0.9103
   16CHL1    H3 1112   6.111   5.991  10.530 -5.1530 -0.8792  1.0765
   16CHL1    O3 1113   6.108   6.129  10.678 -0.3696 -0.3598 -0.6654
   16CHL1   H3' 1114   6.075   6.219  10.675  0.9930  0.1452 -1.3477
   16CHL1    C4 1115   6.227   6.177  10.472  0.5415  0.1368  0.8712
   16CHL1   H4A 1116   6.227   6.283  10.506  0.2210  1.0246 -1.6217
   16CHL1   H4B 1117   6.319   6.143  10.522  2.7707  2.0648 -1.6090
   16CHL1    C5 1118   6.227   6.152  10.324 -0.0068 -0.4463 -0.0323
   16CHL1    C6 1119   6.323   6.093  10.249 -0.3652  0.2088 -0.1122
   16CHL1    H6 1120   6.418   6.062  10.294 -1.1405 -1.4823  0.4346
   16CHL1    C7 1121   6.315   6.043  10.107 -0.3457 -0.1079  0.5543
   16CHL1   H7A 1122   6.415   6.057  10.061 -1.5991  1.2047 -1.9744
   16CHL1   H7B 1123   6.284   5.936  10.104 -2.1201  0.3368  1.4442
   16CHL1    C8 1124   6.215   6.131  10.033  1.0544  0.2064  0.7693
   16CHL1    H8 1125   6.255   6.234  10.025 -1.5625  1.2052 -0.6906
   16CHL1   C14 1126   6.187   6.067   9.896  0.2168 -0.6554 -0.6695
   16CHL1   H14 1127   6.152   5.962   9.911 -0.0487 -0.7588 -1.9462
   16CHL1   C15 1128   6.312   6.051   9.808 -0.0164 -0.2431  0.2218
   16CHL1  H15A 1129   6.359   6.151   9.803 -0.5569  0.0198  0.3316
   16CHL1  H15B 1130   6.385   5.971   9.829  0.9351  0.8418  1.1832
   16CHL1   C16 1131   6.259   6.023   9.665 -0.1802 -0.3115 -0.5278
   16CHL1  H16A 1132   6.310   6.084   9.588  1.8884 -0.9976  0.2237
   16CHL1  H16B 1133   6.283   5.915   9.657  2.8176  0.2370  0.1000
   16CHL1   C17 1134   6.104   6.045   9.675 -0.5579 -0.2551 -0.1517
   16CHL1   H17 1135   6.052   5.948   9.684  0.8173 -1.0717 -0.8014
   16CHL1   C13 1136   6.082   6.134   9.804  0.2465 -0.5161  0.0554
   16CHL1   C18 1137   6.116   6.287   9.768  0.1493 -0.6961  0.2411
   16CHL1  H18A 1138   6.032   6.335   9.715  1.1136  1.2027  0.3535
   16CHL1  H18B 1139   6.141   6.348   9.858  1.4300 -0.7249 -0.0637
   16CHL1  H18C 1140   6.195   6.284   9.690 -0.5766  0.5434 -0.5694
   16CHL1   C12 1141   5.950   6.127   9.880 -0.1440  0.4713  0.2758
   16CHL1  H12A 1142   5.881   6.177   9.810 -1.1009 -0.4050  0.5692
   16CHL1  H12B 1143   5.925   6.020   9.896  0.0761  0.3123 -0.4120
   16CHL1   C11 1144   5.968   6.193  10.014  0.6039  0.5097  0.0095
   16CHL1  H11A 1145   5.993   6.300  10.000  0.5115  1.0240  3.0929
   16CHL1  H11B 1146   5.874   6.179  10.071  1.1336 -2.0740  0.3637
   16CHL1    C9 1147   6.076   6.131  10.105  0.0593  0.4628  0.1990
   16CHL1    H9 1148   6.051   6.023  10.106  3.2876 -0.4407 -1.0156
   16CHL1   C10 1149   6.091   6.188  10.251  0.0423 -0.1534 -0.3490
   16CHL1   C19 1150   6.079   6.340  10.253  0.2520 -0.8810 -0.2142
   16CHL1  H19A 1151   6.090   6.377  10.357 -0.6816  1.4203 -0.8777
   16CHL1  H19B 1152   6.166   6.376  10.194  0.3623 -1.7090 -0.5714
   16CHL1  H19C 1153   5.981   6.375  10.215 -1.2617 -5.4010 -1.1440
   16CHL1    C1 1154   5.970   6.120  10.330 -0.2422  0.8967 -0.2433
   16CHL1   H1A 1155   5.872   6.144  10.282 -2.2956 -0.0609  3.1079
   16CHL1   H1B 1156   5.983   6.011  10.317 -2.9682  0.5713 -0.9514
   16CHL1    C2 1157   5.971   6.146  10.476  0.2730  0.6056  0.2169
   16CHL1   H2A 1158   5.901   6.082  10.534  2.3742 -0.7016  1.4296
   16CHL1   H2B 1159   5.946   6.252  10.494 -0.6553 -0.0147  2.9838
   16CHL1   C20 1160   6.053   6.103   9.542  0.3267 -0.0515 -0.0845
   16CHL1   H20 1161   6.098   6.201   9.519  2.8519 -0.8632  1.0909
   16CHL1   C21 1162   5.905   6.123   9.551 -0.2868  0.5734 -0.8271
   16CHL1  H21A 1163   5.850   6.054   9.618 -1.1152  0.8610 -1.1982
   16CHL1  H21B 1164   5.848   6.118   9.456 -2.0849 -0.0327  0.2464
   16CHL1  H21C 1165   5.888   6.222   9.599 -2.0709  0.1273 -0.4632
   16CHL1   C22 1166   6.093   5.996   9.432 -0.5134  0.4133 -0.0271
   16CHL1  H22A 1167   6.198   5.961   9.429 -1.0039 -1.4683  2.2724
   16CHL1  H22B 1168   6.043   5.898   9.444 -0.9208  0.1750 -2.9699
   16CHL1   C23 1169   6.059   6.041   9.287 -0.3114 -0.0007  0.4038
   16CHL1  H23A 1170   5.965   6.099   9.277 -1.3243 -1.1023  2.8190
   16CHL1  H23B 1171   6.146   6.103   9.255  1.1700 -1.4018  1.5070
   16CHL1   C24 1172   6.041   5.930   9.184 -0.9365  0.5203 -0.0417
   16CHL1  H24A 1173   6.124   5.857   9.198  1.6305  3.1931 -0.3166
   16CHL1  H24B 1174   5.946   5.877   9.204  0.9376 -3.4381 -0.7280
   16CHL1   C25 1175   6.039   5.975   9.045 -0.8830  0.5643  0.5065
   16CHL1   H25 1176   5.944   6.032   9.034 -1.0465  0.5762  1.8405
   16CHL1   C26 1177   6.169   6.051   8.996  0.7105  0.2782  0.2888
   16CHL1  H26A 1178   6.257   5.985   9.007  0.6105 -0.4318 -2.4382
   16CHL1  H26B 1179   6.165   6.077   8.888  0.2605  0.7414  0.4091
   16CHL1  H26C 1180   6.196   6.142   9.055  0.2058  0.0881  0.8263
   16CHL1   C27 1181   6.017   5.858   8.949  0.4933  0.3145  0.3438
   16CHL1  H27A 1182   5.936   5.792   8.985  1.9673 -1.3294  0.8099
   16CHL1  H27B 1183   6.000   5.893   8.845 -2.9467  0.5208  0.8785
   16CHL1  H27C 1184   6.105   5.790   8.955  0.7723  0.6276 -0.0806
   17CHL1    C3 1185   0.172   3.924  10.543 -0.1488 -0.2109 -0.4293
   17CHL1    H3 1186   0.236   4.014  10.538  1.2372 -1.2359 -2.0285
   17CHL1    O3 1187   0.165   3.914  10.690  0.7303 -0.3338 -0.0709
   17CHL1   H3' 1188   0.125   3.997  10.715 -0.3903 -1.6105  2.8411
   17CHL1    C4 1189   0.033   3.944  10.469  0.0026 -0.1295 -0.1360
   17CHL1   H4A 1190  -0.045   3.867  10.490  0.6721 -0.8268 -0.1643
   17CHL1   H4B 1191  -0.005   4.043  10.502  1.8044  0.0611  1.5137
   17CHL1    C5 1192   0.056   3.944  10.319  0.3747  0.1714 -0.3892
   17CHL1    C6 1193  -0.000   4.038  10.244  0.1830  0.4183  0.3691
   17CHL1    H6 1194  -0.048   4.126  10.290  1.3398  1.0610  0.3712
   17CHL1    C7 1195   0.009   4.043  10.090  0.8187  0.0146 -0.0692
   17CHL1   H7A 1196  -0.091   4.070  10.050  0.2473  1.0607  1.9354
   17CHL1   H7B 1197   0.083   4.120  10.060  0.5141 -0.1754 -1.3613
   17CHL1    C8 1198   0.047   3.907  10.038 -0.4375 -0.4157  0.0678
   17CHL1    H8 1199  -0.041   3.840  10.044  0.2415 -1.3156  0.1314
   17CHL1   C14 1200   0.082   3.918   9.887  0.6213  0.0577 -0.2225
   17CHL1   H14 1201   0.181   3.965   9.868  0.0585  2.9710  2.9685
   17CHL1   C15 1202  -0.007   4.001   9.791  0.1017  0.7950 -0.0991
   17CHL1  H15A 1203  -0.106   3.984   9.838  1.0537 -0.8128  1.4578
   17CHL1  H15B 1204   0.031   4.105   9.784  2.2057  0.0638 -0.6136
   17CHL1   C16 1205   0.021   3.943   9.646  0.1536 -0.2576  0.1133
   17CHL1  H16A 1206  -0.068   3.895   9.598 -0.3267  0.7316 -0.0083
   17CHL1  H16B 1207   0.063   4.024   9.583  1.5722  0.3387  1.7605
   17CHL1   C17 1208   0.129   3.826   9.670 -0.2552 -0.1454 -0.7543
   17CHL1   H17 1209   0.229   3.875   9.668 -0.4039  0.3265  1.1084
   17CHL1   C13 1210   0.103   3.783   9.818 -0.1952 -0.3315  0.1011
   17CHL1   C18 1211  -0.022   3.690   9.820  0.5514 -0.0302 -0.1510
   17CHL1  H18A 1212  -0.059   3.669   9.923 -0.5308  1.2773 -0.2600
   17CHL1  H18B 1213  -0.107   3.738   9.768  0.3010 -0.1052  0.1814
   17CHL1  H18C 1214  -0.003   3.594   9.766 -1.5915 -0.3583 -0.4147
   17CHL1   C12 1215   0.223   3.721   9.894 -0.9262  0.1351 -0.1515
   17CHL1  H12A 1216   0.241   3.616   9.861 -0.9611 -0.8502  2.6439
   17CHL1  H12B 1217   0.314   3.776   9.862 -0.1510  0.2704  2.0429
   17CHL1   C11 1218   0.216   3.712  10.048 -0.0449  1.0039 -0.0010
   17CHL1  H11A 1219   0.150   3.627  10.074  2.5547 -0.1145  3.6758
   17CHL1  H11B 1220   0.315   3.683  10.088 -0.7646 -0.1119  1.0532
   17CHL1    C9 1221   0.162   3.844  10.116  0.3296  0.1762 -0.7188
   17CHL1    H9 1222   0.249   3.913  10.110  0.3735  0.2741  0.7531
   17CHL1   C10 1223   0.133   3.827  10.266  0.4177 -0.3080  0.2597
   17CHL1   C19 1224   0.033   3.700  10.287 -0.2912 -1.6595  0.6996
   17CHL1  H19A 1225   0.095   3.611  10.262  2.0153  0.4268 -1.5178
   17CHL1  H19B 1226   0.005   3.682  10.393  1.5885  2.9058  2.1777
   17CHL1  H19C 1227  -0.047   3.697  10.210  0.9029  0.6010 -0.7381
   17CHL1    C1 1228   0.268   3.809  10.341  0.4133 -0.3321  0.0134
   17CHL1   H1A 1229   0.315   3.717  10.301 -1.5313 -0.8233 -1.3025
   17CHL1   H1B 1230   0.333   3.898  10.323 -0.1437  0.1706  0.4393
   17CHL1    C2 1231   0.241   3.804  10.494  0.2362  0.8840 -0.2740
   17CHL1   H2A 1232   0.331   3.770  10.550 -0.0260 -0.5359 -0.6819
   17CHL1   H2B 1233   0.164   3.725  10.505  1.5584 -0.0682  3.5688
   17CHL1   C20 1234   0.121   3.717   9.563  0.0192  0.9899  0.7575
   17CHL1   H20 1235   0.021   3.670   9.564  0.1427  0.6156 -1.0371
   17CHL1   C21 1236   0.233   3.609   9.579  0.0867 -0.7214  0.1544
   17CHL1  H21A 1237   0.334   3.655   9.588 -0.8300  1.7782 -1.2701
   17CHL1  H21B 1238   0.233   3.551   9.485  1.3723 -0.6049  0.0757
   17CHL1  H21C 1239   0.208   3.543   9.665  0.6903  0.5753  1.3824
   17CHL1   C22 1240   0.132   3.769   9.416 -0.4507 -0.6153  0.8920
   17CHL1  H22A 1241   0.110   3.686   9.345 -0.9069 -0.1097  0.4333
   17CHL1  H22B 1242   0.053   3.842   9.390  1.1227  0.9327  0.2769
   17CHL1   C23 1243   0.267   3.836   9.373 -0.1637  0.9597  0.5270
   17CHL1  H23A 1244   0.309   3.874   9.468  0.4513  0.8358  0.3103
   17CHL1  H23B 1245   0.327   3.754   9.327 -3.1346  0.0259 -1.9958
   17CHL1   C24 1246   0.241   3.953   9.266  0.0220  0.0383 -0.1910
   17CHL1  H24A 1247   0.175   3.917   9.185  2.0250  0.4786 -2.0987
   17CHL1  H24B 1248   0.202   4.042   9.322 -1.7019 -1.8025  1.7264
   17CHL1   C25 1249   0.375   3.986   9.198 -0.3564 -0.0252  0.3544
   17CHL1   H25 1250   0.434   3.895   9.178 -1.4532 -0.8332  0.6913
   17CHL1   C26 1251   0.349   4.039   9.056  0.1065  0.6367 -0.3279
   17CHL1  H26A 1252   0.449   4.063   9.014 -0.8586  0.5531 -2.9099
   17CHL1  H26B 1253   0.299   3.975   8.980 -0.9883  1.0193  0.0552
   17CHL1  H26C 1254   0.293   4.135   9.066  0.1204  0.4084  2.6247
   17CHL1   C27 1255   0.452   4.082   9.288 -0.4266 -0.4360  0.0777
   17CHL1  H27A 1256   0.381   4.165   9.309  0.3102  1.1253 -2.9790
   17CHL1  H27B 1257   0.491   4.027   9.376  0.6840 -0.3730 -0.3606
   17CHL1  H27C 1258   0.537   4.109   9.222  1.4030 -2.7460  1.3269
   18CHL1    C3 1259   0.423   1.731  10.427 -0.2915 -0.1662 -0.3345
   18CHL1    H3 1260   0.516   1.781  10.394 -1.2494  1.9750  0.0138
   18CHL1    O3 1261   0.431   1.669  10.558  0.4390  0.4671  0.1836
   18CHL1   H3' 1262   0.461   1.741  10.615  1.4678  0.1651  0.0480
   18CHL1    C4 1263   0.317   1.847  10.430 -0.2804  0.0733  0.4097
   18CHL1   H4A 1264   0.228   1.808  10.484  0.1473 -0.4006  0.7888
   18CHL1   H4B 1265   0.364   1.923  10.497  1.7318 -0.6002 -0.1921
   18CHL1    C5 1266   0.294   1.895  10.286 -0.3916  0.4173  0.1282
   18CHL1    C6 1267   0.312   2.025  10.251 -0.1173 -0.9164 -0.3578
   18CHL1    H6 1268   0.338   2.097  10.330 -0.5911 -1.1436  0.0108
   18CHL1    C7 1269   0.278   2.087  10.116 -0.3349  0.2415  0.8937
   18CHL1   H7A 1270   0.219   2.181  10.121 -3.3055 -1.5447  1.4690
   18CHL1   H7B 1271   0.383   2.110  10.085  0.7225 -1.2775  3.0632
   18CHL1    C8 1272   0.216   1.989  10.019 -0.0815  0.0718 -0.0713
   18CHL1    H8 1273   0.107   1.997  10.037  0.0607 -0.4579  1.1094
   18CHL1   C14 1274   0.224   2.040   9.873 -0.1289 -0.9282  0.6394
   18CHL1   H14 1275   0.331   2.042   9.845 -0.7507 -1.7958 -2.0828
   18CHL1   C15 1276   0.162   2.175   9.841  0.1640 -0.0538  0.1125
   18CHL1  H15A 1277   0.067   2.183   9.898  0.7869  1.3159  1.0120
   18CHL1  H15B 1278   0.229   2.257   9.874  2.0443 -0.3097 -2.7586
   18CHL1   C16 1279   0.155   2.176   9.685  0.1122 -0.6601  0.2933
   18CHL1  H16A 1280   0.054   2.208   9.651  0.7417  0.7940 -0.2682
   18CHL1  H16B 1281   0.226   2.252   9.646  0.2511 -0.5802  0.6938
   18CHL1   C17 1282   0.194   2.030   9.643 -0.8560  0.9282  0.4140
   18CHL1   H17 1283   0.303   2.014   9.630 -0.6957  1.5170  0.9875
   18CHL1   C13 1284   0.166   1.941   9.770  1.0262 -0.0890  0.7330
   18CHL1   C18 1285   0.014   1.932   9.787 -0.0932 -0.5293 -0.3585
   18CHL1  H18A 1286  -0.031   2.022   9.740  1.5448  1.7860  2.1608
   18CHL1  H18B 1287  -0.017   1.838   9.738  0.2029 -0.5077 -0.5920
   18CHL1  H18C 1288  -0.014   1.928   9.895  0.3035  0.7153 -0.1887
   18CHL1   C12 1289   0.232   1.801   9.790 -0.4005  0.1714 -0.1235
   18CHL1  H12A 1290   0.193   1.733   9.712  0.5619 -1.4056  0.7168
   18CHL1  H12B 1291   0.341   1.817   9.783 -0.4010  0.2685  0.0657
   18CHL1   C11 1292   0.215   1.741   9.933  0.2496  0.0714 -0.5815
   18CHL1  H11A 1293   0.106   1.725   9.942 -0.2733  1.1346 -3.7499
   18CHL1  H11B 1294   0.277   1.648   9.928  1.0666  0.1906  3.8673
   18CHL1    C9 1295   0.268   1.843  10.037 -0.3694 -0.8584  0.3732
   18CHL1    H9 1296   0.374   1.850  10.007 -0.5800 -1.5889 -0.5925
   18CHL1   C10 1297   0.274   1.793  10.179 -0.2180 -0.1833  0.7955
   18CHL1   C19 1298   0.132   1.727  10.205 -0.6849 -0.0689  0.0479
   18CHL1  H19A 1299   0.108   1.708  10.312 -2.8438  1.0204 -0.1952
   18CHL1  H19B 1300   0.053   1.800  10.178  0.7406  1.4537 -0.2083
   18CHL1  H19C 1301   0.110   1.633  10.151  0.4821 -2.3516  3.2136
   18CHL1    C1 1302   0.378   1.683  10.189 -0.7982 -0.0807  0.0060
   18CHL1   H1A 1303   0.351   1.598  10.122  2.1941 -0.6617 -0.5995
   18CHL1   H1B 1304   0.483   1.711  10.166 -0.0900 -0.6758  2.2207
   18CHL1    C2 1305   0.392   1.624  10.330 -0.3997  0.3737 -0.1477
   18CHL1   H2A 1306   0.471   1.546  10.324 -0.6454  0.0826  0.3944
   18CHL1   H2B 1307   0.297   1.579  10.364 -1.6283  2.8184 -0.1838
   18CHL1   C20 1308   0.127   1.997   9.497 -0.6543 -0.0656  0.3122
   18CHL1   H20 1309   0.021   2.030   9.505 -0.3215  1.3706 -0.7584
   18CHL1   C21 1310   0.137   1.851   9.457  0.0139  0.5590 -0.7714
   18CHL1  H21A 1311   0.243   1.820   9.448  0.1199  0.6253  0.1741
   18CHL1  H21B 1312   0.086   1.824   9.362 -1.8278  0.2793  0.2588
   18CHL1  H21C 1313   0.109   1.783   9.541  1.6193 -1.0171 -1.4453
   18CHL1   C22 1314   0.188   2.090   9.385 -0.2794  0.3763  0.3273
   18CHL1  H22A 1315   0.196   2.193   9.428 -1.5021  0.4708  0.3577
   18CHL1  H22B 1316   0.290   2.052   9.365  0.5143  1.7282  1.5629
   18CHL1   C23 1317   0.107   2.075   9.256  0.0730 -0.5570 -0.1757
   18CHL1  H23A 1318   0.118   1.975   9.208 -2.0277 -1.6806  1.5254
   18CHL1  H23B 1319   0.000   2.085   9.286 -0.5958 -2.2867 -1.7965
   18CHL1   C24 1320   0.147   2.190   9.163 -0.2153 -0.3803 -0.1679
   18CHL1  H24A 1321   0.128   2.289   9.209  0.3252  0.9147 -2.5561
   18CHL1  H24B 1322   0.256   2.196   9.144 -0.3007  1.9667 -0.3041
   18CHL1   C25 1323   0.075   2.192   9.023 -0.4887  0.3880  0.3447
   18CHL1   H25 1324   0.090   2.091   8.980  0.9765  0.0277  1.5931
   18CHL1   C26 1325  -0.080   2.214   9.028 -0.4550  0.6868 -0.0779
   18CHL1  H26A 1326  -0.130   2.129   9.080  1.1000 -0.8134 -0.9393
   18CHL1  H26B 1327  -0.107   2.313   9.071  0.2563  0.2562  1.4528
   18CHL1  H26C 1328  -0.119   2.202   8.925 -1.6086 -2.2397  0.5694
   18CHL1   C27 1329   0.147   2.292   8.927 -0.1088 -0.0374  0.1128
   18CHL1  H27A 1330   0.092   2.281   8.831 -1.8018  0.1877  1.0107
   18CHL1  H27B 1331   0.141   2.394   8.970 -0.9915  0.1447 -0.3971
   18CHL1  H27C 1332   0.256   2.274   8.917 -0.2134  0.1433 -1.7095
   19CHL1    C3 1333   4.736   4.824  10.331  0.1574  0.5893  0.9471
   19CHL1    H3 1334   4.804   4.911  10.341  1.1584 -0.2638  1.8078
   19CHL1    O3 1335   4.682   4.802  10.460 -0.6534  0.3036  0.1033
   19CHL1   H3' 1336   4.590   4.828  10.455 -2.4205 -4.6774  1.1321
   19CHL1    C4 1337   4.628   4.847  10.231 -0.9942  0.0160 -0.2942
   19CHL1   H4A 1338   4.571   4.752  10.228 -0.6597 -0.1567 -1.6110
   19CHL1   H4B 1339   4.563   4.927  10.273  0.6145  0.1384  2.1796
   19CHL1    C5 1340   4.677   4.881  10.089 -0.4696  0.0227 -0.8957
   19CHL1    C6 1341   4.648   5.000  10.035  0.0480 -0.4243 -0.1601
   19CHL1    H6 1342   4.566   5.058  10.081 -0.1007 -1.5160  1.0136
   19CHL1    C7 1343   4.685   5.042   9.896 -1.0057  0.5734 -0.0357
   19CHL1   H7A 1344   4.596   5.078   9.840 -1.9234 -1.1487  0.2539
   19CHL1   H7B 1345   4.759   5.125   9.892 -2.6847  2.1518  0.0424
   19CHL1    C8 1346   4.752   4.925   9.817  0.4573  0.5695  0.2922
   19CHL1    H8 1347   4.670   4.860   9.779  1.0187 -0.7097  1.2133
   19CHL1   C14 1348   4.836   4.981   9.703  0.6748  0.8900  0.0330
   19CHL1   H14 1349   4.923   5.032   9.750  0.2868 -0.5080  2.4615
   19CHL1   C15 1350   4.778   5.083   9.599 -0.0997 -0.7226 -0.3368
   19CHL1  H15A 1351   4.671   5.054   9.590 -0.2509  0.0955 -1.2990
   19CHL1  H15B 1352   4.777   5.179   9.654 -1.5398 -0.1978 -1.2582
   19CHL1   C16 1353   4.860   5.077   9.469 -0.5670  0.5985  0.7302
   19CHL1  H16A 1354   4.803   5.081   9.373 -0.5485 -1.2863  0.5946
   19CHL1  H16B 1355   4.936   5.157   9.461 -0.0802  0.1293  0.5779
   19CHL1   C17 1356   4.962   4.958   9.496 -0.1603  0.3908  1.0918
   19CHL1   H17 1357   5.059   5.002   9.528  0.6477  1.0540 -1.9748
   19CHL1   C13 1358   4.900   4.871   9.613 -0.4674  0.2815 -0.0254
   19CHL1   C18 1359   4.790   4.776   9.550 -0.1444  1.0216  0.3185
   19CHL1  H18A 1360   4.723   4.716   9.615  0.2054  1.5109  1.1526
   19CHL1  H18B 1361   4.723   4.842   9.489  0.6773 -0.0530 -1.8625
   19CHL1  H18C 1362   4.852   4.712   9.485 -0.9810  1.1165 -0.6128
   19CHL1   C12 1363   4.994   4.793   9.698 -0.2163 -0.2077 -0.2573
   19CHL1  H12A 1364   5.036   4.717   9.628 -1.7869  0.7718 -2.3702
   19CHL1  H12B 1365   5.078   4.856   9.734  0.0484  1.9623 -4.0768
   19CHL1   C11 1366   4.919   4.733   9.821 -0.4549 -0.2603 -0.2438
   19CHL1  H11A 1367   4.841   4.665   9.782 -0.5043 -1.6595  2.1057
   19CHL1  H11B 1368   5.000   4.683   9.879  1.5296  0.0512 -2.5739
   19CHL1    C9 1369   4.842   4.843   9.904  0.4701  0.6477 -0.6396
   19CHL1    H9 1370   4.920   4.910   9.946 -0.2944  1.2103 -0.0806
   19CHL1   C10 1371   4.774   4.780  10.030  0.1338 -0.6473  1.4867
   19CHL1   C19 1372   4.681   4.667   9.986  0.0074  0.2036  0.1657
   19CHL1  H19A 1373   4.593   4.706   9.930 -0.4155  1.5681  1.6892
   19CHL1  H19B 1374   4.743   4.589   9.937  0.4418  0.3133  0.5314
   19CHL1  H19C 1375   4.646   4.616  10.078  0.1136 -2.5214 -1.2200
   19CHL1    C1 1376   4.872   4.728  10.127 -0.0600 -0.2305 -0.0299
   19CHL1   H1A 1377   4.925   4.639  10.087 -0.6367 -0.5922 -0.0110
   19CHL1   H1B 1378   4.939   4.815  10.144 -2.8254  1.8098  1.4641
   19CHL1    C2 1379   4.816   4.705  10.276  0.0303 -0.2223 -0.1026
   19CHL1   H2A 1380   4.904   4.692  10.343  0.9475  2.7357 -0.5592
   19CHL1   H2B 1381   4.748   4.618  10.282 -3.3028  2.2762  2.0898
   19CHL1   C20 1382   5.002   4.884   9.360  0.3368 -0.2636  0.2236
   19CHL1   H20 1383   4.911   4.846   9.309  0.0413  0.7746 -0.0611
   19CHL1   C21 1384   5.110   4.777   9.381  0.2164  0.2572  0.4511
   19CHL1  H21A 1385   5.076   4.674   9.403  1.5671 -0.2824  0.0945
   19CHL1  H21B 1386   5.180   4.804   9.463 -0.6250  0.5342  1.0890
   19CHL1  H21C 1387   5.154   4.752   9.282 -3.2076 -0.9033 -0.9169
   19CHL1   C22 1388   5.069   4.994   9.271 -0.0142 -0.5683 -0.1415
   19CHL1  H22A 1389   4.988   5.070   9.265 -0.8891 -1.3997  0.8259
   19CHL1  H22B 1390   5.148   5.045   9.331 -0.6344  1.0215 -0.6447
   19CHL1   C23 1391   5.111   4.945   9.130 -0.2524  0.6111 -0.4490
   19CHL1  H23A 1392   5.216   4.910   9.125 -0.2168  0.8020 -1.2712
   19CHL1  H23B 1393   5.042   4.862   9.101  0.9148 -0.2604 -0.8140
   19CHL1   C24 1394   5.118   5.060   9.030 -0.0077 -0.1469  0.4234
   19CHL1  H24A 1395   5.028   5.125   9.026  0.1268 -0.0324 -1.6646
   19CHL1  H24B 1396   5.206   5.120   9.062  0.7981 -0.6336 -0.8390
   19CHL1   C25 1397   5.160   5.010   8.886 -0.6484 -0.5267  0.1559
   19CHL1   H25 1398   5.253   4.948   8.883 -0.4731 -0.2402 -1.6548
   19CHL1   C26 1399   5.043   4.936   8.814 -0.4033 -0.4467 -0.8899
   19CHL1  H26A 1400   5.003   4.852   8.875  0.0992  0.3986  0.6498
   19CHL1  H26B 1401   4.962   5.011   8.818 -2.5988 -2.6617 -1.6357
   19CHL1  H26C 1402   5.061   4.921   8.705 -0.8118  1.7447 -1.2934
   19CHL1   C27 1403   5.197   5.142   8.809  0.6070  0.3125  0.3890
   19CHL1  H27A 1404   5.104   5.204   8.809 -1.0266 -1.9992  0.4221
   19CHL1  H27B 1405   5.279   5.190   8.866  0.4467 -0.2495  1.1076
   19CHL1  H27C 1406   5.231   5.113   8.707 -0.4874 -1.8549  0.5754
   20CHL1    C3 1407   6.549   6.323  10.626  0.3685  0.2161 -0.3662
   20CHL1    H3 1408   6.504   6.223  10.614  1.2508 -0.1708 -0.5707
   20CHL1    O3 1409   6.582   6.346  10.761  0.0848  0.8465 -0.3272
   20CHL1   H3' 1410   6.663   6.397  10.759 -1.2717  3.1644  0.4151
   20CHL1    C4 1411   6.683   6.309  10.554  0.4569 -0.4887 -1.1416
   20CHL1   H4A 1412   6.756   6.392  10.563  3.1692 -2.5850 -2.5225
   20CHL1   H4B 1413   6.731   6.227  10.610  0.2176 -0.4180 -0.8259
   20CHL1    C5 1414   6.667   6.304  10.404 -0.0032 -0.9504  0.7068
   20CHL1    C6 1415   6.711   6.209  10.334 -0.5183  0.3640  0.0536
   20CHL1    H6 1416   6.754   6.124  10.388 -1.0063 -0.4563 -0.8173
   20CHL1    C7 1417   6.697   6.194  10.186 -0.5765 -0.6318  0.3315
   20CHL1   H7A 1418   6.784   6.151  10.131  0.2898 -0.3500  1.4447
   20CHL1   H7B 1419   6.602   6.138  10.175 -1.9050  1.1540  2.0138
   20CHL1    C8 1420   6.666   6.331  10.118  0.0166 -0.2460  0.4985
   20CHL1    H8 1421   6.755   6.398  10.128 -0.0888  0.0153 -0.2355
   20CHL1   C14 1422   6.614   6.313   9.977 -0.2519 -0.2593  0.1713
   20CHL1   H14 1423   6.519   6.257   9.984  0.6541 -1.9514 -0.5792
   20CHL1   C15 1424   6.696   6.220   9.884  0.3734  0.6586  0.3720
   20CHL1  H15A 1425   6.806   6.234   9.882  0.5011 -0.2658 -1.6519
   20CHL1  H15B 1426   6.692   6.113   9.914  0.1795  0.0618 -1.6324
   20CHL1   C16 1427   6.635   6.251   9.747 -0.5305 -1.0077 -0.0223
   20CHL1  H16A 1428   6.705   6.270   9.663  0.1677 -0.8014  0.5929
   20CHL1  H16B 1429   6.567   6.165   9.732 -0.2737 -1.3597  0.7527
   20CHL1   C17 1430   6.540   6.380   9.766 -0.0919  0.5110 -0.3894
   20CHL1   H17 1431   6.442   6.338   9.796  0.4124  0.5598  1.4292
   20CHL1   C13 1432   6.584   6.441   9.900  1.0290  0.3244  0.3721
   20CHL1   C18 1433   6.707   6.533   9.872  0.0189  0.1099  0.3368
   20CHL1  H18A 1434   6.776   6.490   9.797  1.0534  4.3372 -1.4655
   20CHL1  H18B 1435   6.671   6.631   9.833  0.2954  0.9385  2.0846
   20CHL1  H18C 1436   6.764   6.559   9.963 -1.3426 -0.0368  1.2627
   20CHL1   C12 1437   6.467   6.517   9.973 -0.2759 -0.6299 -0.1915
   20CHL1  H12A 1438   6.468   6.623   9.939  0.4229 -0.7971 -0.7112
   20CHL1  H12B 1439   6.374   6.461   9.950 -0.2369 -0.2811 -1.2983
   20CHL1   C11 1440   6.510   6.537  10.120 -0.2978  0.1780 -0.6915
   20CHL1  H11A 1441   6.603   6.597  10.116  1.5584 -2.5090 -0.6276
   20CHL1  H11B 1442   6.430   6.595  10.170 -0.4410 -0.0455 -0.6581
   20CHL1    C9 1443   6.549   6.409  10.195 -0.0919  0.7445 -0.3498
   20CHL1    H9 1444   6.458   6.346  10.194  0.3609  0.0342  0.6165
   20CHL1   C10 1445   6.582   6.426  10.351  0.7437  0.4126  0.4561
   20CHL1   C19 1446   6.673   6.549  10.369  0.1875 -0.2539  0.2684
   20CHL1  H19A 1447   6.612   6.637  10.339  0.5953  0.1323  0.5451
   20CHL1  H19B 1448   6.695   6.571  10.475  0.6824 -0.9452  0.3184
   20CHL1  H19C 1449   6.763   6.549  10.303 -1.2674  1.2360 -1.8370
   20CHL1    C1 1450   6.455   6.456  10.426 -0.2426  0.0942  0.6000
   20CHL1   H1A 1451   6.406   6.551  10.398 -1.4166 -0.0732  1.9577
   20CHL1   H1B 1452   6.378   6.380  10.403 -1.2423  0.6528  1.9731
   20CHL1    C2 1453   6.466   6.446  10.577  0.0972  0.2395  0.4329
   20CHL1   H2A 1454   6.365   6.453  10.623  0.6888  0.9595  1.6770
   20CHL1   H2B 1455   6.521   6.536  10.612  0.9234 -0.6417  1.4934
   20CHL1   C20 1456   6.524   6.469   9.645 -0.4188  0.5029  0.1156
   20CHL1   H20 1457   6.629   6.484   9.612 -0.4396  1.1105  0.3197
   20CHL1   C21 1458   6.443   6.601   9.657  0.1032  0.7483 -0.3925
   20CHL1  H21A 1459   6.456   6.663   9.566  2.7391 -0.4226 -0.9114
   20CHL1  H21B 1460   6.489   6.660   9.740  2.4511 -1.4352 -0.0073
   20CHL1  H21C 1461   6.337   6.589   9.688  1.0097 -1.5724  2.3128
   20CHL1   C22 1462   6.465   6.383   9.523  0.3293 -0.0779  0.9311
   20CHL1  H22A 1463   6.514   6.284   9.513 -2.7802 -1.7998  1.7498
   20CHL1  H22B 1464   6.358   6.368   9.546  0.6406 -0.6178  2.0915
   20CHL1   C23 1465   6.485   6.459   9.387  0.3398  0.2213 -0.1534
   20CHL1  H23A 1466   6.431   6.556   9.401 -1.7037 -0.9654  0.5357
   20CHL1  H23B 1467   6.586   6.496   9.359 -0.1984  0.7776 -1.4654
   20CHL1   C24 1468   6.427   6.382   9.267 -0.3001  0.3184 -1.1104
   20CHL1  H24A 1469   6.496   6.297   9.249 -0.8013 -0.6090  1.0347
   20CHL1  H24B 1470   6.331   6.334   9.296  1.0406 -3.6605 -2.6148
   20CHL1   C25 1471   6.400   6.465   9.139  0.2335  0.1328 -0.1637
   20CHL1   H25 1472   6.320   6.539   9.162 -1.1418 -0.4017 -2.7749
   20CHL1   C26 1473   6.523   6.538   9.095  0.2104  1.3139  0.1740
   20CHL1  H26A 1474   6.504   6.607   9.011 -1.1788 -1.3598 -1.8582
   20CHL1  H26B 1475   6.559   6.604   9.177  1.9635  1.4481 -0.6543
   20CHL1  H26C 1476   6.606   6.470   9.065  0.4066  2.0656 -1.0648
   20CHL1   C27 1477   6.356   6.377   9.022 -0.5698  0.3986  0.6343
   20CHL1  H27A 1478   6.345   6.439   8.930  0.0215  0.2968  0.4943
   20CHL1  H27B 1479   6.432   6.299   9.002  0.5171  1.1731  1.6488
   20CHL1  H27C 1480   6.254   6.336   9.041 -1.5157  2.3936  0.1266
   21CHL1    C3 1481   4.796   1.991  10.432 -0.9345  0.2494 -0.5591
   21CHL1    H3 1482   4.900   1.990  10.394 -0.5931  1.0816  0.3174
   21CHL1    O3 1483   4.796   2.035  10.564  0.0680 -0.3359  0.3408
   21CHL1   H3' 1484   4.703   2.048  10.580 -0.3790 -1.8987 -0.8257
   21CHL1    C4 1485   4.719   2.079  10.338  0.1265 -0.6841  0.8546
   21CHL1   H4A 1486   4.616   2.105  10.370 -0.2696 -0.3023 -0.6415
   21CHL1   H4B 1487   4.775   2.175  10.342  1.6329 -1.5195  0.5678
   21CHL1    C5 1488   4.716   2.018  10.196  0.6534 -0.5428  0.0050
   21CHL1    C6 1489   4.777   2.075  10.096 -0.3059  0.6332  0.6505
   21CHL1    H6 1490   4.820   2.175  10.113  2.6746 -0.5065  0.4816
   21CHL1    C7 1491   4.772   2.031   9.951 -0.4150  0.4016 -0.1370
   21CHL1   H7A 1492   4.762   2.123   9.889  0.1328  0.9424  0.5619
   21CHL1   H7B 1493   4.871   1.983   9.938 -0.2695  0.5895  0.2437
   21CHL1    C8 1494   4.646   1.928   9.930  0.5049 -0.3083 -0.8498
   21CHL1    H8 1495   4.555   1.992   9.938  0.8574  0.1471 -0.4172
   21CHL1   C14 1496   4.648   1.865   9.790 -0.6236  0.6434 -0.5496
   21CHL1   H14 1497   4.747   1.815   9.791  0.6288  3.0016 -0.2893
   21CHL1   C15 1498   4.657   1.954   9.672 -0.1194  0.2969 -0.4361
   21CHL1  H15A 1499   4.617   2.057   9.689 -0.0664  0.2130  0.2100
   21CHL1  H15B 1500   4.764   1.968   9.647  0.5116  0.8501  2.2412
   21CHL1   C16 1501   4.582   1.886   9.564 -0.7648  0.3938 -0.1796
   21CHL1  H16A 1502   4.483   1.933   9.547 -0.5456  0.5952 -0.9049
   21CHL1  H16B 1503   4.643   1.899   9.472  1.8187 -1.5113  1.1098
   21CHL1   C17 1504   4.549   1.742   9.619 -0.1514  0.1073 -0.7328
   21CHL1   H17 1505   4.644   1.685   9.620  0.6008  1.1043  3.1727
   21CHL1   C13 1506   4.529   1.762   9.768 -0.2003 -1.4407  0.0084
   21CHL1   C18 1507   4.396   1.833   9.792  0.2049  0.2199  0.5788
   21CHL1  H18A 1508   4.380   1.931   9.743 -0.1238 -0.1290 -0.0313
   21CHL1  H18B 1509   4.312   1.769   9.757 -1.8508  2.9440  0.1838
   21CHL1  H18C 1510   4.372   1.859   9.897  0.3893  0.9458  0.4441
   21CHL1   C12 1511   4.549   1.652   9.864  0.1311  0.2943 -0.9617
   21CHL1  H12A 1512   4.481   1.565   9.856 -1.0687  1.3023 -2.2053
   21CHL1  H12B 1513   4.649   1.606   9.849  0.4950  0.3211  1.1252
   21CHL1   C11 1514   4.563   1.704  10.018  0.1695 -0.1726 -0.0365
   21CHL1  H11A 1515   4.458   1.736  10.034 -0.7872 -0.6412 -4.1881
   21CHL1  H11B 1516   4.592   1.619  10.084  0.0224  0.8185  1.3442
   21CHL1    C9 1517   4.658   1.824  10.042 -0.2438 -0.9010 -0.3240
   21CHL1    H9 1518   4.762   1.786  10.036 -1.1906 -4.0699  1.1883
   21CHL1   C10 1519   4.647   1.884  10.185 -1.0999 -0.0603  0.2337
   21CHL1   C19 1520   4.504   1.891  10.235 -0.0902 -0.4932 -0.1372
   21CHL1  H19A 1521   4.437   1.955  10.173  0.4327  1.3926  1.1762
   21CHL1  H19B 1522   4.459   1.789  10.231 -2.1171  0.3896 -1.8289
   21CHL1  H19C 1523   4.492   1.931  10.338 -0.9380  1.4295 -0.9425
   21CHL1    C1 1524   4.730   1.801  10.288 -0.3448  0.1050 -0.9455
   21CHL1   H1A 1525   4.682   1.701  10.290 -4.6343  1.9350  0.9526
   21CHL1   H1B 1526   4.832   1.788  10.245 -0.3838 -2.2358 -0.4409
   21CHL1    C2 1527   4.731   1.851  10.434  0.2917 -1.4971 -0.1262
   21CHL1   H2A 1528   4.775   1.773  10.499  0.8518 -1.2875 -0.2472
   21CHL1   H2B 1529   4.625   1.855  10.467  0.4782  2.5628  0.5779
   21CHL1   C20 1530   4.443   1.678   9.534  0.9621  0.0036  0.2318
   21CHL1   H20 1531   4.345   1.730   9.531  0.1827 -1.4478 -0.1582
   21CHL1   C21 1532   4.398   1.545   9.600  0.5359 -0.1464 -0.8264
   21CHL1  H21A 1533   4.334   1.483   9.533 -1.5563  0.6881  0.2926
   21CHL1  H21B 1534   4.324   1.561   9.681 -1.2224 -3.0787 -1.6781
   21CHL1  H21C 1535   4.484   1.488   9.641 -0.3074 -0.5406  0.4620
   21CHL1   C22 1536   4.484   1.666   9.387  0.1741  0.7043  0.5813
   21CHL1  H22A 1537   4.514   1.758   9.332  3.9560 -2.5772 -3.6779
   21CHL1  H22B 1538   4.571   1.597   9.379 -1.7275 -1.9838  1.7094
   21CHL1   C23 1539   4.368   1.611   9.304  0.3630  0.0238 -0.0944
   21CHL1  H23A 1540   4.335   1.510   9.335 -3.7627  1.3128  0.3367
   21CHL1  H23B 1541   4.273   1.665   9.325 -0.8326 -1.7757 -0.6833
   21CHL1   C24 1542   4.380   1.616   9.152  0.1572  0.4225  0.0329
   21CHL1  H24A 1543   4.375   1.724   9.125 -0.7245  1.0897  2.5425
   21CHL1  H24B 1544   4.468   1.574   9.099 -0.9828  1.9870 -3.3791
   21CHL1   C25 1545   4.257   1.546   9.086  0.4342  0.2451 -0.2477
   21CHL1   H25 1546   4.160   1.579   9.128 -0.2755 -1.9573 -0.0465
   21CHL1   C26 1547   4.241   1.586   8.944 -0.0581  0.2120  0.4335
   21CHL1  H26A 1548   4.156   1.537   8.892  0.6796  0.0565 -0.6698
   21CHL1  H26B 1549   4.243   1.696   8.927 -0.5164  0.3645  1.3303
   21CHL1  H26C 1550   4.332   1.548   8.892 -1.4974 -0.0326 -2.0362
   21CHL1   C27 1551   4.267   1.399   9.103  0.3000 -0.0395 -0.0560
   21CHL1  H27A 1552   4.289   1.369   9.208 -0.1261 -1.2900 -0.3109
   21CHL1  H27B 1553   4.168   1.361   9.071  0.8949 -1.7159  0.0080
   21CHL1  H27C 1554   4.348   1.365   9.035  1.1616  0.6014  0.6078
   22CHL1    C3 1555   5.412   2.814  10.166 -0.0810  0.0518 -0.0893
   22CHL1    H3 1556   5.519   2.795  10.187  0.3708  1.8158 -0.6393
   22CHL1    O3 1557   5.373   2.825  10.297  0.1955  0.2100 -0.2164
   22CHL1   H3' 1558   5.279   2.846  10.296 -0.1661 -1.2797  0.0639
   22CHL1    C4 1559   5.378   2.941  10.090 -0.0307 -0.0474 -0.0466
   22CHL1   H4A 1560   5.270   2.966  10.101  0.4661  2.1024  0.3936
   22CHL1   H4B 1561   5.432   3.025  10.139 -0.3928  0.4037 -0.4077
   22CHL1    C5 1562   5.406   2.943   9.943  0.5104 -0.2139  0.3767
   22CHL1    C6 1563   5.475   3.038   9.882  0.1710 -0.6556  0.1274
   22CHL1    H6 1564   5.510   3.119   9.947  0.5537 -0.1777 -0.6547
   22CHL1    C7 1565   5.497   3.054   9.729 -0.4903  0.3072 -0.1528
   22CHL1   H7A 1566   5.451   3.141   9.677 -1.1793  0.3613  0.5246
   22CHL1   H7B 1567   5.606   3.051   9.707 -0.4180 -0.6208  0.3075
   22CHL1    C8 1568   5.422   2.943   9.646 -0.1747 -0.1001 -0.3340
   22CHL1    H8 1569   5.316   2.973   9.634 -0.2849 -0.6875 -0.8965
   22CHL1   C14 1570   5.487   2.927   9.512  0.2176 -0.1131  0.7423
   22CHL1   H14 1571   5.595   2.904   9.524  0.5755  2.0045  1.9623
   22CHL1   C15 1572   5.473   3.062   9.427  0.4042  0.2038  0.0820
   22CHL1  H15A 1573   5.376   3.112   9.442 -0.7938 -1.2064 -2.2949
   22CHL1  H15B 1574   5.553   3.131   9.461 -1.5417  1.3597  2.6215
   22CHL1   C16 1575   5.467   3.015   9.281  0.1988  0.6841  0.2752
   22CHL1  H16A 1576   5.372   3.040   9.230  0.0371 -1.0440 -0.3346
   22CHL1  H16B 1577   5.544   3.043   9.207 -2.3933  0.0650 -2.8755
   22CHL1   C17 1578   5.485   2.863   9.290  0.0265  0.4262 -1.1650
   22CHL1   H17 1579   5.591   2.847   9.320 -1.0113 -3.5338  1.1326
   22CHL1   C13 1580   5.417   2.824   9.425 -0.5129 -0.1610 -0.0672
   22CHL1   C18 1581   5.258   2.858   9.416 -0.1450  0.4002  0.3121
   22CHL1  H18A 1582   5.202   2.836   9.510 -1.1369 -0.4653 -0.4555
   22CHL1  H18B 1583   5.242   2.965   9.389  0.5018  0.2180 -0.8389
   22CHL1  H18C 1584   5.220   2.800   9.330  0.9576 -1.4015  0.9808
   22CHL1   C12 1585   5.437   2.688   9.496 -0.4481  0.0324  0.9371
   22CHL1  H12A 1586   5.402   2.601   9.437  1.3018  0.4368 -0.7732
   22CHL1  H12B 1587   5.545   2.666   9.505 -0.9573 -2.7266  0.9968
   22CHL1   C11 1588   5.377   2.693   9.638 -0.0297  1.2611  0.5843
   22CHL1  H11A 1589   5.266   2.693   9.626  0.2137 -0.9013 -4.2660
   22CHL1  H11B 1590   5.400   2.595   9.684 -1.7968  1.3619  1.7569
   22CHL1    C9 1591   5.431   2.807   9.727  0.1035 -0.4029 -0.4617
   22CHL1    H9 1592   5.539   2.786   9.742  0.7191  2.0417 -1.1279
   22CHL1   C10 1593   5.366   2.815   9.868  0.2142 -0.0449 -0.0997
   22CHL1   C19 1594   5.213   2.820   9.842 -0.0331 -0.0878  0.1336
   22CHL1  H19A 1595   5.169   2.726   9.804  0.7342 -0.6274  0.5668
   22CHL1  H19B 1596   5.150   2.825   9.934 -1.9819 -2.0330 -1.0023
   22CHL1  H19C 1597   5.187   2.905   9.775 -1.0764 -0.1951  0.3800
   22CHL1    C1 1598   5.398   2.686   9.949 -0.6475 -0.9157 -0.2084
   22CHL1   H1A 1599   5.362   2.591   9.904  0.9774 -2.1940  1.0656
   22CHL1   H1B 1600   5.508   2.672   9.949 -0.4774 -0.4127 -3.4166
   22CHL1    C2 1601   5.356   2.687  10.092 -0.0575 -0.9700  0.2051
   22CHL1   H2A 1602   5.388   2.597  10.149  1.5275 -0.9713 -0.6287
   22CHL1   H2B 1603   5.247   2.707  10.093 -0.0110 -0.6900  1.1534
   22CHL1   C20 1604   5.441   2.793   9.160 -0.0691 -1.1232  0.2959
   22CHL1   H20 1605   5.330   2.787   9.166 -0.4661  3.0294  0.1489
   22CHL1   C21 1606   5.499   2.644   9.162  0.2677 -0.3833 -0.4365
   22CHL1  H21A 1607   5.603   2.663   9.196  0.1781  1.7031 -1.1309
   22CHL1  H21B 1608   5.498   2.606   9.057 -0.8273  0.6854 -0.8407
   22CHL1  H21C 1609   5.448   2.578   9.235 -0.3852 -0.8778 -1.3206
   22CHL1   C22 1610   5.472   2.872   9.029  0.4753  0.3155  0.6584
   22CHL1  H22A 1611   5.426   2.973   9.033 -2.0983 -0.7258 -0.7680
   22CHL1  H22B 1612   5.582   2.871   9.013  0.4550  0.0257  0.5283
   22CHL1   C23 1613   5.411   2.817   8.903  0.3102 -0.4827 -0.3634
   22CHL1  H23A 1614   5.454   2.718   8.876  3.3054 -0.4359  3.4465
   22CHL1  H23B 1615   5.306   2.783   8.918  0.5691 -1.3953 -0.5528
   22CHL1   C24 1616   5.436   2.908   8.780  0.2309  0.0024  0.6875
   22CHL1  H24A 1617   5.406   3.011   8.811 -1.0812 -0.4629  1.0213
   22CHL1  H24B 1618   5.545   2.923   8.768  0.1079 -0.2491 -1.0066
   22CHL1   C25 1619   5.367   2.875   8.647 -0.4663 -0.3530 -0.2258
   22CHL1   H25 1620   5.417   2.944   8.575 -0.4213  1.0738  1.1196
   22CHL1   C26 1621   5.401   2.742   8.582  0.0043  0.1226  0.1308
   22CHL1  H26A 1622   5.358   2.730   8.480  1.3471 -1.2696 -0.3015
   22CHL1  H26B 1623   5.510   2.725   8.573 -0.4091 -1.8265 -2.1548
   22CHL1  H26C 1624   5.369   2.660   8.649  1.5456  0.8782  1.8768
   22CHL1   C27 1625   5.216   2.899   8.636 -0.3345 -0.5733  0.1058
   22CHL1  H27A 1626   5.164   2.853   8.722  0.9462 -0.2167  1.1057
   22CHL1  H27B 1627   5.197   3.007   8.652 -0.4187 -0.9968  3.7775
   22CHL1  H27C 1628   5.181   2.859   8.538  3.1474  0.2639 -1.6676
   23CHL1    C3 1629   1.490   4.194  10.371  0.1925  0.0421 -1.2605
   23CHL1    H3 1630   1.391   4.147  10.352  0.6555 -0.3848 -2.7879
   23CHL1    O3 1631   1.488   4.248  10.506 -0.3569  0.5092 -0.0958
   23CHL1   H3' 1632   1.570   4.296  10.516  1.1720 -2.1897  1.8393
   23CHL1    C4 1633   1.602   4.090  10.350  0.4886 -0.0168 -0.5690
   23CHL1   H4A 1634   1.701   4.132  10.378  0.5053  0.9262 -1.9244
   23CHL1   H4B 1635   1.581   4.011  10.426 -1.2491 -0.5385 -1.5405
   23CHL1    C5 1636   1.604   4.034  10.209  0.4091 -0.7042 -0.3170
   23CHL1    C6 1637   1.605   3.904  10.180  0.2688  0.5199  0.6177
   23CHL1    H6 1638   1.610   3.834  10.264  1.7337  0.3423  0.4014
   23CHL1    C7 1639   1.612   3.844  10.041  0.2751  0.4649  0.0744
   23CHL1   H7A 1640   1.693   3.769  10.035  0.4866  0.8096 -2.4126
   23CHL1   H7B 1641   1.523   3.784  10.012  0.7135 -0.5984  0.8680
   23CHL1    C8 1642   1.643   3.946   9.933 -0.8938 -0.0452  0.7131
   23CHL1    H8 1643   1.753   3.954   9.935 -0.8650 -0.5111  0.9548
   23CHL1   C14 1644   1.614   3.887   9.794  0.5841  0.6638 -0.1291
   23CHL1   H14 1645   1.504   3.870   9.787  0.7804 -1.8571  1.5052
   23CHL1   C15 1646   1.676   3.743   9.746  0.6670  0.0197  0.5248
   23CHL1  H15A 1647   1.775   3.738   9.796  0.9420  1.2943  0.1583
   23CHL1  H15B 1648   1.614   3.658   9.781 -1.8374  0.0877 -3.1738
   23CHL1   C16 1649   1.668   3.751   9.594 -0.1790 -0.6047  0.5115
   23CHL1  H16A 1650   1.762   3.714   9.549 -0.2985  0.5006 -0.6958
   23CHL1  H16B 1651   1.588   3.679   9.569  0.1212 -2.9599  5.1621
   23CHL1   C17 1652   1.634   3.896   9.555  0.4851  0.1821  0.2580
   23CHL1   H17 1653   1.523   3.898   9.546  0.2739  1.6262  2.3887
   23CHL1   C13 1654   1.656   3.983   9.676 -0.0874 -0.2820 -1.2392
   23CHL1   C18 1655   1.813   4.009   9.683 -0.0313  0.2681  0.5319
   23CHL1  H18A 1656   1.873   3.941   9.619 -3.2987 -0.7444 -1.7024
   23CHL1  H18B 1657   1.842   4.113   9.655  0.6151  0.7454  2.7510
   23CHL1  H18C 1658   1.866   3.978   9.776  0.7624  1.0637  0.3570
   23CHL1   C12 1659   1.573   4.108   9.704 -0.4784  0.3851  1.1088
   23CHL1  H12A 1660   1.592   4.193   9.635  0.2372 -0.7050 -0.0833
   23CHL1  H12B 1661   1.467   4.089   9.677 -0.5673  2.8017 -0.5800
   23CHL1   C11 1662   1.591   4.167   9.837 -0.2553 -0.1015  0.6063
   23CHL1  H11A 1663   1.698   4.198   9.838 -0.0252 -0.7889 -0.4817
   23CHL1  H11B 1664   1.528   4.258   9.842  0.0465  0.0749  1.4720
   23CHL1    C9 1665   1.579   4.079   9.957  0.6030  0.2496  0.6237
   23CHL1    H9 1666   1.471   4.055   9.970  0.2265  1.8627  0.7416
   23CHL1   C10 1667   1.607   4.144  10.095  0.2415 -0.2535  0.5604
   23CHL1   C19 1668   1.752   4.202  10.090 -0.3449 -0.4901 -0.3032
   23CHL1  H19A 1669   1.782   4.262  10.179  1.2883  1.2937 -1.9441
   23CHL1  H19B 1670   1.826   4.122  10.073  1.2445  1.2827 -2.3104
   23CHL1  H19C 1671   1.765   4.285  10.017 -0.6009  0.2588  0.4792
   23CHL1    C1 1672   1.495   4.250  10.127 -0.0285 -0.0339  0.6374
   23CHL1   H1A 1673   1.492   4.328  10.048  1.5806 -1.1891 -0.6000
   23CHL1   H1B 1674   1.400   4.192  10.125  0.2825 -0.5298  0.0662
   23CHL1    C2 1675   1.508   4.307  10.266 -0.5044  0.0248  0.2837
   23CHL1   H2A 1676   1.421   4.374  10.280 -3.1121 -2.6107 -1.8533
   23CHL1   H2B 1677   1.608   4.354  10.279 -0.5226 -0.3891  2.3839
   23CHL1   C20 1678   1.691   3.939   9.412  0.4048  0.2126  0.0147
   23CHL1   H20 1679   1.800   3.922   9.423  0.4304 -0.0538 -0.5877
   23CHL1   C21 1680   1.653   4.083   9.379 -0.0864  0.6465 -0.3478
   23CHL1  H21A 1681   1.544   4.106   9.384  0.3607  3.5236 -1.9227
   23CHL1  H21B 1682   1.685   4.110   9.277 -0.1416  1.5865 -0.1228
   23CHL1  H21C 1683   1.711   4.145   9.452 -0.5082  0.9908 -0.3002
   23CHL1   C22 1684   1.656   3.839   9.302 -0.0010 -0.0014  0.1758
   23CHL1  H22A 1685   1.711   3.743   9.307 -2.3766 -1.4412 -0.0659
   23CHL1  H22B 1686   1.550   3.814   9.324  0.8306 -2.5594  1.6009
   23CHL1   C23 1687   1.683   3.880   9.155 -0.1039 -0.2631 -0.1940
   23CHL1  H23A 1688   1.612   3.955   9.114  0.3611 -0.8876 -2.2793
   23CHL1  H23B 1689   1.780   3.933   9.151  0.2636 -0.9164 -0.0473
   23CHL1   C24 1690   1.685   3.761   9.061 -0.2596 -0.4985 -0.1311
   23CHL1  H24A 1691   1.741   3.678   9.109 -0.5066 -0.0087  1.0299
   23CHL1  H24B 1692   1.580   3.733   9.038 -0.2786  1.2643 -2.5497
   23CHL1   C25 1693   1.744   3.788   8.920 -0.4631 -0.1092 -0.8337
   23CHL1   H25 1694   1.849   3.819   8.938 -0.0613 -1.6183 -0.4765
   23CHL1   C26 1695   1.754   3.656   8.838 -0.8062 -0.1003 -0.1904
   23CHL1  H26A 1696   1.780   3.683   8.734  1.0244  3.4362  1.0029
   23CHL1  H26B 1697   1.819   3.579   8.884  2.3244  1.0189 -2.4136
   23CHL1  H26C 1698   1.650   3.616   8.835 -2.6737  4.2900 -2.4988
   23CHL1   C27 1699   1.661   3.891   8.843  0.0136  0.0569  0.6387
   23CHL1  H27A 1700   1.555   3.867   8.867  0.0522  0.3334  1.0862
   23CHL1  H27B 1701   1.686   3.992   8.881  1.1683 -0.4471  1.2726
   23CHL1  H27C 1702   1.677   3.887   8.733  0.3402 -0.7851  0.7078
   24CHL1    C3 1703   2.725   5.017  10.411  0.0661 -0.5504  0.5315
   24CHL1    H3 1704   2.814   5.082  10.423 -1.4660  1.6601  0.4774
   24CHL1    O3 1705   2.696   4.961  10.534 -0.1177  0.0925  0.3538
   24CHL1   H3' 1706   2.772   4.912  10.566  0.1240  2.1760  3.3851
   24CHL1    C4 1707   2.608   5.095  10.349  0.5994 -0.4920  0.5007
   24CHL1   H4A 1708   2.517   5.031  10.345  0.2017  0.1192 -1.2584
   24CHL1   H4B 1709   2.588   5.183  10.413 -2.0553 -1.2103  0.7991
   24CHL1    C5 1710   2.620   5.134  10.207 -0.9849 -0.5049  0.4655
   24CHL1    C6 1711   2.609   5.267  10.175  0.5063  0.4621  0.0030
   24CHL1    H6 1712   2.570   5.337  10.250 -0.5429 -0.0211 -0.0725
   24CHL1    C7 1713   2.623   5.324  10.038  0.9768  0.3142  0.5896
   24CHL1   H7A 1714   2.545   5.396  10.004  0.5335 -0.6813 -0.5831
   24CHL1   H7B 1715   2.720   5.376  10.044  2.6646 -2.7386  1.8518
   24CHL1    C8 1716   2.642   5.212   9.930  0.0632 -0.0905 -0.3176
   24CHL1    H8 1717   2.541   5.183   9.897 -0.3205  0.4785  0.3132
   24CHL1   C14 1718   2.704   5.279   9.806  0.0509 -0.4103 -0.1451
   24CHL1   H14 1719   2.800   5.316   9.848 -1.0607  0.9094  1.3810
   24CHL1   C15 1720   2.643   5.409   9.758  0.0712  0.2366  0.5332
   24CHL1  H15A 1721   2.533   5.413   9.764 -0.1329 -1.2153 -1.3590
   24CHL1  H15B 1722   2.678   5.491   9.825 -0.4812  0.3172  0.7289
   24CHL1   C16 1723   2.699   5.423   9.618  1.1563 -0.8730  0.1355
   24CHL1  H16A 1724   2.609   5.420   9.552  1.1688  1.5985 -0.1108
   24CHL1  H16B 1725   2.772   5.507   9.611 -0.0091  0.3135  1.5761
   24CHL1   C17 1726   2.786   5.294   9.579  0.4008 -0.0239 -0.2396
   24CHL1   H17 1727   2.891   5.323   9.601  0.6927 -2.1122  1.5320
   24CHL1   C13 1728   2.732   5.191   9.687 -0.0197  0.1451  0.4147
   24CHL1   C18 1729   2.598   5.129   9.625 -0.7756 -0.6567 -0.5059
   24CHL1  H18A 1730   2.530   5.207   9.586 -1.9815 -1.6497 -0.4684
   24CHL1  H18B 1731   2.613   5.057   9.542  2.1525 -2.0013  1.0000
   24CHL1  H18C 1732   2.536   5.086   9.707 -2.0562  0.4476 -0.8782
   24CHL1   C12 1733   2.828   5.080   9.738 -0.4368 -0.0030 -0.2220
   24CHL1  H12A 1734   2.858   5.014   9.654  0.7899 -0.2827  0.4231
   24CHL1  H12B 1735   2.918   5.139   9.766 -1.7958  2.3482 -0.4977
   24CHL1   C11 1736   2.775   5.005   9.863  0.4396  0.3665  0.2015
   24CHL1  H11A 1737   2.689   4.943   9.832  1.4482 -1.1511  0.3495
   24CHL1  H11B 1738   2.853   4.936   9.902 -0.3602 -0.8336 -0.2943
   24CHL1    C9 1739   2.725   5.100   9.982 -0.3252  0.3999  0.6711
   24CHL1    H9 1740   2.826   5.141  10.005  1.9023 -3.9264 -0.1545
   24CHL1   C10 1741   2.675   5.033  10.113 -0.0571 -0.2819 -0.1452
   24CHL1   C19 1742   2.560   4.937  10.071  0.1846 -0.8259  0.7014
   24CHL1  H19A 1743   2.489   4.981   9.997 -0.0117 -2.5443 -0.1781
   24CHL1  H19B 1744   2.614   4.857  10.016  1.3935 -0.6195  1.5496
   24CHL1  H19C 1745   2.494   4.896  10.150 -1.7127 -0.4074 -0.5812
   24CHL1    C1 1746   2.798   4.960  10.179  0.1753 -0.0662 -0.3385
   24CHL1   H1A 1747   2.855   4.879  10.128  4.9454  2.6539  0.0586
   24CHL1   H1B 1748   2.878   5.032  10.206  0.2865 -0.1275 -0.5010
   24CHL1    C2 1749   2.769   4.901  10.316  0.2968  0.6076 -0.3731
   24CHL1   H2A 1750   2.853   4.834  10.345  0.0832 -0.8833 -2.9070
   24CHL1   H2B 1751   2.679   4.835  10.311 -0.3830  1.4295  0.5294
   24CHL1   C20 1752   2.776   5.248   9.430  0.6392  0.0379 -1.2878
   24CHL1   H20 1753   2.678   5.210   9.395  0.7068  0.8103 -2.3737
   24CHL1   C21 1754   2.888   5.146   9.398  0.3349  0.3346 -0.5127
   24CHL1  H21A 1755   2.846   5.049   9.429 -1.9398  1.3665 -0.2211
   24CHL1  H21B 1756   2.977   5.167   9.461  0.3135  2.4169 -1.0918
   24CHL1  H21C 1757   2.915   5.151   9.290  1.2455  1.4260 -0.2609
   24CHL1   C22 1758   2.795   5.382   9.344  0.1737  0.3451  0.0072
   24CHL1  H22A 1759   2.703   5.442   9.363  1.2185  2.4565 -1.3258
   24CHL1  H22B 1760   2.886   5.439   9.372 -0.2756  0.3161  1.6587
   24CHL1   C23 1761   2.795   5.370   9.192 -0.2840 -0.7645  0.7662
   24CHL1  H23A 1762   2.895   5.338   9.154 -0.1985 -1.1779  1.3393
   24CHL1  H23B 1763   2.725   5.289   9.162  1.2246 -1.4097 -1.2803
   24CHL1   C24 1764   2.765   5.505   9.122 -0.1456 -0.4137  0.4364
   24CHL1  H24A 1765   2.670   5.553   9.152  0.5490  1.9020 -0.8186
   24CHL1  H24B 1766   2.838   5.586   9.143 -0.7514  0.6292 -1.3285
   24CHL1   C25 1767   2.746   5.478   8.962 -0.1317 -0.9496  0.1996
   24CHL1   H25 1768   2.673   5.395   8.957 -0.6128 -0.5059 -0.3529
   24CHL1   C26 1769   2.695   5.598   8.897  0.1157  0.4643 -0.7468
   24CHL1  H26A 1770   2.681   5.575   8.789 -1.7854  1.3612 -0.7258
   24CHL1  H26B 1771   2.596   5.620   8.944  0.1479  0.5719 -0.7302
   24CHL1  H26C 1772   2.760   5.684   8.922 -0.0971 -0.2234  2.6911
   24CHL1   C27 1773   2.875   5.428   8.892  0.2082 -0.4339 -0.6857
   24CHL1  H27A 1774   2.849   5.390   8.791 -1.6883  0.9927 -0.7853
   24CHL1  H27B 1775   2.948   5.509   8.873  0.7102 -0.7193 -0.0277
   24CHL1  H27C 1776   2.928   5.348   8.949  1.1083  0.6706  0.0786
   25CHL1    C3 1777   4.730   0.482  10.454 -0.9778  0.6371  0.8001
   25CHL1    H3 1778   4.667   0.563  10.410 -1.3170 -0.4558 -0.7958
   25CHL1    O3 1779   4.686   0.469  10.586  0.2376  0.2334 -0.4714
   25CHL1   H3' 1780   4.767   0.441  10.630  0.5690 -0.8823 -1.7431
   25CHL1    C4 1781   4.695   0.345  10.385 -0.0067  0.7246  0.1405
   25CHL1   H4A 1782   4.757   0.268  10.434 -0.4910 -0.1144 -0.5360
   25CHL1   H4B 1783   4.591   0.321  10.417  0.0879 -2.3878 -1.5122
   25CHL1    C5 1784   4.721   0.338  10.235 -0.5638 -0.1439  0.3026
   25CHL1    C6 1785   4.631   0.323  10.133  0.1502 -0.1186 -0.2376
   25CHL1    H6 1786   4.525   0.311  10.160  0.7844 -0.8891  2.1646
   25CHL1    C7 1787   4.670   0.325   9.989  0.1743 -0.0462  0.1232
   25CHL1   H7A 1788   4.620   0.238   9.942 -3.3744  2.1480 -0.6059
   25CHL1   H7B 1789   4.626   0.404   9.923 -0.7619 -0.8107 -0.1857
   25CHL1    C8 1790   4.826   0.316   9.958 -0.2741 -0.3494  0.0003
   25CHL1    H8 1791   4.854   0.210   9.972  1.0616  0.1833  1.6308
   25CHL1   C14 1792   4.857   0.367   9.817 -0.2666 -0.1744 -0.4580
   25CHL1   H14 1793   4.817   0.470   9.810  1.2062  0.4397 -0.2372
   25CHL1   C15 1794   4.775   0.305   9.701 -0.4686 -0.3219  0.5157
   25CHL1  H15A 1795   4.791   0.195   9.714  1.0185 -0.2268 -0.2261
   25CHL1  H15B 1796   4.669   0.336   9.698 -0.3265  0.1706  0.5757
   25CHL1   C16 1797   4.859   0.338   9.574 -0.0133  0.0217 -0.6345
   25CHL1  H16A 1798   4.881   0.241   9.525 -2.7207 -0.8860 -0.2460
   25CHL1  H16B 1799   4.794   0.396   9.506  1.3486  3.3853  0.7160
   25CHL1   C17 1800   4.983   0.408   9.617 -0.5599  0.4203 -0.1535
   25CHL1   H17 1801   4.959   0.517   9.620 -0.4135  0.5171 -1.6971
   25CHL1   C13 1802   5.007   0.367   9.771 -0.5262 -0.0814 -0.0663
   25CHL1   C18 1803   5.076   0.234   9.774  0.4694 -0.0381 -0.6428
   25CHL1  H18A 1804   5.077   0.191   9.876 -0.7714  1.5325  0.0766
   25CHL1  H18B 1805   5.018   0.166   9.708 -0.1200 -0.8978  0.7292
   25CHL1  H18C 1806   5.178   0.249   9.732  0.8201 -0.1583  0.1557
   25CHL1   C12 1807   5.074   0.465   9.867 -0.0667 -0.9484  1.0858
   25CHL1  H12A 1808   5.184   0.463   9.852 -0.3660 -0.8757 -1.7325
   25CHL1  H12B 1809   5.046   0.572   9.853  0.5039 -0.9603 -0.2625
   25CHL1   C11 1810   5.045   0.430  10.013 -0.5284 -0.0527  0.0100
   25CHL1  H11A 1811   5.107   0.340  10.032  1.1298  0.7308 -1.4220
   25CHL1  H11B 1812   5.093   0.510  10.075 -0.5220  0.4527 -0.6373
   25CHL1    C9 1813   4.901   0.404  10.057  0.3182  0.1373  0.3981
   25CHL1    H9 1814   4.848   0.500  10.042  0.7208  0.1831 -0.8865
   25CHL1   C10 1815   4.872   0.375  10.201  0.2920 -0.2252 -0.4782
   25CHL1   C19 1816   4.964   0.260  10.250 -0.4782 -0.4559 -0.0068
   25CHL1  H19A 1817   4.951   0.247  10.359 -2.9849  0.3913 -0.1413
   25CHL1  H19B 1818   4.943   0.162  10.203  0.4497 -0.2118 -0.9854
   25CHL1  H19C 1819   5.070   0.281  10.224 -0.1721 -2.5067 -0.5763
   25CHL1    C1 1820   4.920   0.500  10.281 -0.4904 -0.4679  0.3467
   25CHL1   H1A 1821   5.030   0.511  10.272 -0.5324 -0.2572  0.0792
   25CHL1   H1B 1822   4.870   0.587  10.234  2.0680  1.5416  1.1502
   25CHL1    C2 1823   4.883   0.515  10.437  0.2219 -0.4022  0.1304
   25CHL1   H2A 1824   4.897   0.621  10.467 -2.8252  0.1623 -0.0818
   25CHL1   H2B 1825   4.936   0.440  10.498  1.9605  0.2038 -0.5889
   25CHL1   C20 1826   5.089   0.404   9.510 -0.1397  0.5904  0.0510
   25CHL1   H20 1827   5.136   0.304   9.505  0.7791  1.0785 -2.1668
   25CHL1   C21 1828   5.202   0.505   9.552 -0.2087 -0.3993  0.2111
   25CHL1  H21A 1829   5.236   0.493   9.658  0.0262  1.0804  0.3240
   25CHL1  H21B 1830   5.160   0.608   9.541  1.3277  0.7013  3.2642
   25CHL1  H21C 1831   5.297   0.497   9.497  1.3752 -1.1241  2.8558
   25CHL1   C22 1832   5.029   0.436   9.367 -0.1662  0.1043 -0.1797
   25CHL1  H22A 1833   4.954   0.358   9.339 -0.6943  0.8209 -0.7993
   25CHL1  H22B 1834   4.977   0.529   9.400  1.1839  0.0729  2.3213
   25CHL1   C23 1835   5.123   0.454   9.258 -0.1304 -0.5233  0.5811
   25CHL1  H23A 1836   5.183   0.546   9.276  0.5149 -1.0649  1.2382
   25CHL1  H23B 1837   5.185   0.362   9.260  3.8655  1.8059 -2.3519
   25CHL1   C24 1838   5.055   0.463   9.121 -0.2913 -0.0633 -0.1170
   25CHL1  H24A 1839   4.976   0.385   9.114 -1.9424  1.6793 -2.8773
   25CHL1  H24B 1840   4.997   0.556   9.106  0.4659  0.2896 -0.9992
   25CHL1   C25 1841   5.151   0.453   9.005 -0.6244  0.2975  0.6858
   25CHL1   H25 1842   5.229   0.532   9.014  0.2210 -0.6435  2.0929
   25CHL1   C26 1843   5.210   0.310   9.007  0.0492 -0.0086 -0.5574
   25CHL1  H26A 1844   5.243   0.289   8.903 -1.0228  2.9354 -1.6029
   25CHL1  H26B 1845   5.290   0.292   9.081  1.6013 -0.0215 -2.1792
   25CHL1  H26C 1846   5.138   0.229   9.030  1.0609 -0.5694  0.7277
   25CHL1   C27 1847   5.074   0.479   8.872 -0.1034  0.3019  0.7132
   25CHL1  H27A 1848   5.017   0.574   8.880  0.3269  0.6691 -0.4823
   25CHL1  H27B 1849   5.143   0.474   8.785  0.3375  2.8852  0.8286
   25CHL1  H27C 1850   5.003   0.394   8.868 -0.5318  0.6867 -0.0822
   26CHL1    C3 1851   0.509   4.285  10.419 -0.1105  0.0661  0.0628
   26CHL1    H3 1852   0.482   4.393  10.427  2.8504  0.8269  1.4444
   26CHL1    O3 1853   0.555   4.236  10.542  0.2255  0.1661  0.2921
   26CHL1   H3' 1854   0.476   4.230  10.596 -0.8583  0.3441 -1.2253
   26CHL1    C4 1855   0.382   4.205  10.365  0.3890  0.4029 -0.1173
   26CHL1   H4A 1856   0.411   4.098  10.365  0.0465  0.2348 -2.9374
   26CHL1   H4B 1857   0.295   4.213  10.434  1.4588 -1.5197  1.5868
   26CHL1    C5 1858   0.351   4.254  10.225  0.2641  1.0174  0.3667
   26CHL1    C6 1859   0.236   4.314  10.200  0.6421  0.5131  0.1703
   26CHL1    H6 1860   0.148   4.320  10.266 -1.8967 -0.8396 -2.8722
   26CHL1    C7 1861   0.201   4.375  10.066 -0.1904 -0.5000 -0.6768
   26CHL1   H7A 1862   0.094   4.362  10.040 -0.7748  0.1529  1.2756
   26CHL1   H7B 1863   0.214   4.485  10.071 -2.0700 -0.3095  1.0153
   26CHL1    C8 1864   0.286   4.318   9.954  0.1464 -0.3670 -0.5328
   26CHL1    H8 1865   0.256   4.211   9.941  0.3427 -0.4706 -0.1495
   26CHL1   C14 1866   0.266   4.403   9.831  0.5109  0.0082 -0.1982
   26CHL1   H14 1867   0.306   4.500   9.867  1.4175 -0.9192  1.4181
   26CHL1   C15 1868   0.122   4.418   9.776 -0.3616 -0.1186 -0.5146
   26CHL1  H15A 1869   0.082   4.314   9.777  1.5829 -0.9137  1.1961
   26CHL1  H15B 1870   0.047   4.482   9.828  1.4525 -0.5639  2.9296
   26CHL1   C16 1871   0.136   4.473   9.634 -0.3285  0.3958  0.5613
   26CHL1  H16A 1872   0.078   4.401   9.573 -0.4557 -0.9492  2.2018
   26CHL1  H16B 1873   0.090   4.572   9.614 -2.6247 -0.7044  0.0434
   26CHL1   C17 1874   0.283   4.466   9.600 -0.0623 -0.8244  0.1367
   26CHL1   H17 1875   0.327   4.565   9.626 -1.0272 -0.9132  2.3251
   26CHL1   C13 1876   0.338   4.368   9.701 -0.6009 -0.3558 -0.2960
   26CHL1   C18 1877   0.307   4.232   9.650  1.0361 -0.2468 -0.0225
   26CHL1  H18A 1878   0.198   4.216   9.631  0.3103 -0.0307  3.3116
   26CHL1  H18B 1879   0.364   4.202   9.560  2.6462 -2.1589  1.5514
   26CHL1  H18C 1880   0.325   4.157   9.730 -0.2114 -0.6279 -0.0706
   26CHL1   C12 1881   0.489   4.373   9.738  0.7399  0.4686  0.2544
   26CHL1  H12A 1882   0.543   4.331   9.650  3.2141 -0.6856  2.1893
   26CHL1  H12B 1883   0.524   4.478   9.749 -0.8567  1.1785 -1.0228
   26CHL1   C11 1884   0.535   4.312   9.868  0.0852 -0.6193 -0.2032
   26CHL1  H11A 1885   0.537   4.203   9.849 -0.4735 -1.1890  2.5306
   26CHL1  H11B 1886   0.633   4.350   9.902  0.1262 -2.0339  1.3411
   26CHL1    C9 1887   0.431   4.325   9.985  0.4415 -0.2420 -0.2303
   26CHL1    H9 1888   0.449   4.429  10.020 -0.7658 -0.7864  2.2090
   26CHL1   C10 1889   0.469   4.256  10.123  0.6326  0.1197 -0.5421
   26CHL1   C19 1890   0.514   4.105  10.104  0.3192 -0.7055  0.3218
   26CHL1  H19A 1891   0.514   4.049  10.199 -2.6692 -1.9542 -0.2990
   26CHL1  H19B 1892   0.453   4.047  10.032  2.2369 -1.4520 -0.7770
   26CHL1  H19C 1893   0.616   4.104  10.061  0.7355  0.1378  1.2613
   26CHL1    C1 1894   0.589   4.326  10.183  0.0707 -0.2223 -0.1497
   26CHL1   H1A 1895   0.677   4.329  10.115  0.6244 -1.2412  0.5050
   26CHL1   H1B 1896   0.552   4.427  10.208 -0.1648 -1.1326  3.7628
   26CHL1    C2 1897   0.630   4.279  10.323  0.1280  0.7315 -0.8290
   26CHL1   H2A 1898   0.696   4.355  10.371 -1.7342  0.5657  2.2399
   26CHL1   H2B 1899   0.671   4.176  10.320 -0.8040  0.2749  0.9142
   26CHL1   C20 1900   0.313   4.445   9.439 -0.5426 -0.3912  0.1035
   26CHL1   H20 1901   0.328   4.335   9.426  3.0306 -0.0239  0.0922
   26CHL1   C21 1902   0.451   4.506   9.403 -0.1403 -0.1505 -0.0383
   26CHL1  H21A 1903   0.429   4.614   9.395  0.2210  0.0162  1.0356
   26CHL1  H21B 1904   0.480   4.462   9.306 -2.2223 -1.8355  0.0169
   26CHL1  H21C 1905   0.520   4.480   9.486 -0.7504 -4.5224 -0.6682
   26CHL1   C22 1906   0.211   4.509   9.344  0.4745 -0.0584  0.7282
   26CHL1  H22A 1907   0.107   4.481   9.372 -0.4977  2.2260 -0.3552
   26CHL1  H22B 1908   0.201   4.618   9.363 -0.0681 -0.3890  2.5569
   26CHL1   C23 1909   0.228   4.470   9.193 -0.2535  0.4168  0.5016
   26CHL1  H23A 1910   0.333   4.475   9.158 -0.6739 -0.3397 -0.9881
   26CHL1  H23B 1911   0.206   4.361   9.194 -0.3946  0.4438  0.2264
   26CHL1   C24 1912   0.141   4.551   9.105 -0.3280 -0.3395  0.1049
   26CHL1  H24A 1913   0.034   4.532   9.128  0.1101 -1.0418  1.7123
   26CHL1  H24B 1914   0.161   4.658   9.129  0.0124 -0.0605 -1.3268
   26CHL1   C25 1915   0.175   4.533   8.958  0.8449 -0.0690 -0.4173
   26CHL1   H25 1916   0.282   4.558   8.942  0.7085 -0.7690 -2.9094
   26CHL1   C26 1917   0.143   4.398   8.898  0.0366  0.4737  0.7635
   26CHL1  H26A 1918   0.046   4.356   8.931 -1.0125  2.4852  0.4127
   26CHL1  H26B 1919   0.146   4.415   8.789  0.2474  1.2222  0.8811
   26CHL1  H26C 1920   0.225   4.329   8.928 -0.3939 -0.6424 -0.5699
   26CHL1   C27 1921   0.097   4.639   8.880  1.3174  0.4076  0.3635
   26CHL1  H27A 1922  -0.013   4.625   8.892  0.6199  2.1759 -2.8861
   26CHL1  H27B 1923   0.125   4.735   8.928  2.4665 -1.3834  3.5849
   26CHL1  H27C 1924   0.120   4.631   8.772 -0.0713  0.0470  0.0781
   27CHL1    C3 1925   5.272   0.354  10.524 -0.4925  0.0065  0.3114
   27CHL1    H3 1926   5.175   0.359  10.469 -0.2371 -1.0682 -0.2507
   27CHL1    O3 1927   5.267   0.365  10.667  0.2585 -0.7159 -0.1325
   27CHL1   H3' 1928   5.229   0.285  10.704  0.9341 -1.3681 -0.7890
   27CHL1    C4 1929   5.351   0.226  10.490 -0.2764 -0.3351  0.0206
   27CHL1   H4A 1930   5.450   0.238  10.541 -0.7568 -2.4421  1.5850
   27CHL1   H4B 1931   5.305   0.139  10.541 -0.3224  0.2542  1.0065
   27CHL1    C5 1932   5.367   0.201  10.342  0.8155 -0.1983  0.3145
   27CHL1    C6 1933   5.303   0.108  10.271 -0.9213  0.8119 -0.4410
   27CHL1    H6 1934   5.235   0.037  10.320 -0.0983 -0.3967 -1.0092
   27CHL1    C7 1935   5.313   0.092  10.117  0.4819  0.7057  0.4109
   27CHL1   H7A 1936   5.322  -0.014  10.086 -0.4398  0.2751  1.5294
   27CHL1   H7B 1937   5.221   0.108  10.058  0.3652 -1.2251  0.0022
   27CHL1    C8 1938   5.429   0.175  10.057  0.4754  0.2967 -0.5496
   27CHL1    H8 1939   5.525   0.131  10.091  1.0643  1.3370 -0.8429
   27CHL1   C14 1940   5.426   0.175   9.908  0.9149  0.5649 -0.0262
   27CHL1   H14 1941   5.327   0.223   9.893  0.8302  0.4455  0.1550
   27CHL1   C15 1942   5.421   0.044   9.832  0.2077 -0.1637  0.0931
   27CHL1  H15A 1943   5.488  -0.040   9.861  0.5322 -0.5020 -1.5597
   27CHL1  H15B 1944   5.314   0.014   9.831 -0.7149  2.8018 -0.6222
   27CHL1   C16 1945   5.458   0.088   9.692 -1.1276  0.2702  0.0244
   27CHL1  H16A 1946   5.545   0.031   9.653 -1.6119 -0.5247  0.0804
   27CHL1  H16B 1947   5.375   0.070   9.620 -1.3953  1.3410  0.0400
   27CHL1   C17 1948   5.495   0.242   9.693 -0.1491  1.0395  0.3771
   27CHL1   H17 1949   5.404   0.302   9.672 -0.8539 -0.8258 -2.5154
   27CHL1   C13 1950   5.529   0.266   9.840  0.0525  0.5570  0.4612
   27CHL1   C18 1951   5.667   0.206   9.867 -0.3739 -0.1601 -0.1306
   27CHL1  H18A 1952   5.688   0.108   9.821 -0.7472 -1.9125  3.1546
   27CHL1  H18B 1953   5.749   0.272   9.834 -1.4349  1.4611  0.3284
   27CHL1  H18C 1954   5.671   0.196   9.977 -1.6353 -2.0191 -0.2043
   27CHL1   C12 1955   5.513   0.411   9.895 -0.6786  0.0755 -0.7313
   27CHL1  H12A 1956   5.586   0.482   9.849 -1.9962  2.2880  0.4025
   27CHL1  H12B 1957   5.413   0.452   9.867 -0.1884  1.7446 -0.1784
   27CHL1   C11 1958   5.521   0.419  10.041  0.1691 -0.8251  0.5395
   27CHL1  H11A 1959   5.628   0.413  10.071  0.3828  1.0283  0.2769
   27CHL1  H11B 1960   5.480   0.517  10.074  0.5736 -0.8324  1.0816
   27CHL1    C9 1961   5.428   0.313  10.113 -0.1503  0.0596  0.2155
   27CHL1    H9 1962   5.327   0.357  10.096  0.3904  2.3258  2.2932
   27CHL1   C10 1963   5.435   0.315  10.268  0.1358 -0.2941  0.5908
   27CHL1   C19 1964   5.588   0.321  10.304  0.3114  0.1099 -0.1008
   27CHL1  H19A 1965   5.612   0.307  10.411  0.2807  2.9128  0.3596
   27CHL1  H19B 1966   5.647   0.245  10.248  3.3063  0.9337  1.7406
   27CHL1  H19C 1967   5.633   0.422  10.290  0.5562  0.7402  4.1000
   27CHL1    C1 1968   5.369   0.451  10.322  0.0565  0.1772  0.2261
   27CHL1   H1A 1969   5.431   0.535  10.286 -1.6296  1.3178 -0.1312
   27CHL1   H1B 1970   5.271   0.467  10.273 -0.3379 -1.4659  0.3968
   27CHL1    C2 1971   5.345   0.474  10.475 -0.3259  0.2246  0.4648
   27CHL1   H2A 1972   5.291   0.569  10.496  0.4916  0.4298  1.7662
   27CHL1   H2B 1973   5.439   0.482  10.533 -0.1104 -0.9652  0.2976
   27CHL1   C20 1974   5.598   0.260   9.581  0.0833 -0.1210  0.2828
   27CHL1   H20 1975   5.690   0.201   9.603  1.9222  2.3012 -0.4127
   27CHL1   C21 1976   5.641   0.402   9.576 -0.2677 -0.6155  0.1428
   27CHL1  H21A 1977   5.716   0.417   9.496 -1.5886 -0.4975 -1.1059
   27CHL1  H21B 1978   5.684   0.434   9.673 -1.2867  2.1885 -0.2297
   27CHL1  H21C 1979   5.556   0.468   9.550 -0.5357 -1.6815 -1.8979
   27CHL1   C22 1980   5.533   0.228   9.444 -0.6307 -0.0639  0.3160
   27CHL1  H22A 1981   5.501   0.122   9.442 -0.6753 -0.0500  0.2579
   27CHL1  H22B 1982   5.442   0.291   9.432 -0.8240 -0.6128 -1.4181
   27CHL1   C23 1983   5.629   0.236   9.325  0.2044 -0.0693 -0.3893
   27CHL1  H23A 1984   5.661   0.342   9.313 -2.3104  1.0852  1.8631
   27CHL1  H23B 1985   5.717   0.171   9.344 -0.7483 -1.1841  0.3124
   27CHL1   C24 1986   5.563   0.199   9.188  0.3876 -0.6480  0.6958
   27CHL1  H24A 1987   5.499   0.109   9.193 -0.0509 -0.3639  0.2966
   27CHL1  H24B 1988   5.498   0.282   9.151  1.4475 -0.1370 -0.0904
   27CHL1   C25 1989   5.650   0.170   9.058  0.0787  0.2924  0.5377
   27CHL1   H25 1990   5.705   0.265   9.039 -1.1035  0.7390 -0.9387
   27CHL1   C26 1991   5.737   0.046   9.076  0.4854  0.0684  0.2526
   27CHL1  H26A 1992   5.786   0.025   8.978  0.6668  0.8255  0.1796
   27CHL1  H26B 1993   5.811   0.069   9.156 -0.3711  0.2276  1.0130
   27CHL1  H26C 1994   5.677  -0.040   9.113 -0.2296  0.7339  0.6456
   27CHL1   C27 1995   5.563   0.148   8.933 -0.7209 -0.2951  0.0301
   27CHL1  H27A 1996   5.514   0.048   8.926 -0.3376 -0.6002  1.4208
   27CHL1  H27B 1997   5.477   0.219   8.934 -2.0873 -1.8787 -0.4639
   27CHL1  H27C 1998   5.611   0.161   8.834 -2.6261 -1.4764 -1.1232
   28CHL1    C3 1999   5.048   5.182  10.462 -0.2778 -0.1034 -0.6598
   28CHL1    H3 2000   5.121   5.253  10.506 -2.0152 -0.0293  2.3467
   28CHL1    O3 2001   4.997   5.115  10.576  0.1365  0.1010  0.1355
   28CHL1   H3' 2002   5.043   5.032  10.587  0.2206  0.1920  0.4676
   28CHL1    C4 2003   4.943   5.258  10.380 -0.3019  0.2284 -0.3704
   28CHL1   H4A 2004   4.869   5.188  10.337  0.7803 -0.6550 -0.8253
   28CHL1   H4B 2005   4.887   5.326  10.448  0.1365  0.4971 -0.2717
   28CHL1    C5 2006   5.007   5.333  10.264 -0.1695 -0.0236 -0.0210
   28CHL1    C6 2007   4.989   5.460  10.241 -0.7250 -0.5438  0.2829
   28CHL1    H6 2008   4.914   5.524  10.290 -0.9972  0.5624 -1.4540
   28CHL1    C7 2009   5.027   5.525  10.110  0.5593 -0.0494 -0.1121
   28CHL1   H7A 2010   4.948   5.591  10.067 -1.4747 -2.0777  0.3310
   28CHL1   H7B 2011   5.114   5.592  10.127  0.9149 -0.6615  0.5014
   28CHL1    C8 2012   5.063   5.420   9.998  0.3480  0.6505  0.2136
   28CHL1    H8 2013   4.973   5.362   9.968  0.2554  1.0821 -0.3650
   28CHL1   C14 2014   5.123   5.493   9.876 -0.0867 -0.2617  0.3003
   28CHL1   H14 2015   5.213   5.541   9.921  0.6479 -1.1105 -0.2225
   28CHL1   C15 2016   5.051   5.602   9.817  0.2643  0.3226 -0.0254
   28CHL1  H15A 2017   4.949   5.573   9.785 -0.9996  3.0331  1.1454
   28CHL1  H15B 2018   5.034   5.703   9.861 -3.0599  0.3721 -1.1470
   28CHL1   C16 2019   5.130   5.629   9.686 -0.7261  0.5589  0.5558
   28CHL1  H16A 2020   5.066   5.625   9.596  0.8232  0.6675 -0.5841
   28CHL1  H16B 2021   5.184   5.726   9.689 -0.7430  0.5938 -0.0850
   28CHL1   C17 2022   5.232   5.504   9.669  0.8116  0.0067 -0.4110
   28CHL1   H17 2023   5.327   5.535   9.717  0.2045  0.9324  0.2333
   28CHL1   C13 2024   5.173   5.400   9.764  0.5535  0.0641 -0.3369
   28CHL1   C18 2025   5.061   5.313   9.703  0.0682 -0.4901 -0.1505
   28CHL1  H18A 2026   5.004   5.376   9.631 -0.1384 -0.6486 -0.1251
   28CHL1  H18B 2027   5.092   5.227   9.640 -0.7234 -1.0497  0.2154
   28CHL1  H18C 2028   4.994   5.276   9.783  1.4614 -1.1029  0.7934
   28CHL1   C12 2029   5.280   5.299   9.823  0.4704 -0.5333 -0.5972
   28CHL1  H12A 2030   5.315   5.228   9.745 -3.5193 -1.6421 -1.5782
   28CHL1  H12B 2031   5.367   5.355   9.863  0.0007 -0.6414  0.6096
   28CHL1   C11 2032   5.217   5.221   9.935  0.5489  0.0445  0.1909
   28CHL1  H11A 2033   5.134   5.163   9.889  1.9455 -2.2971  0.4962
   28CHL1  H11B 2034   5.287   5.143   9.972  0.2876  0.1155  0.8547
   28CHL1    C9 2035   5.157   5.311  10.054  0.0308 -0.7473  0.5533
   28CHL1    H9 2036   5.243   5.368  10.095  1.5938 -1.6913 -1.2348
   28CHL1   C10 2037   5.087   5.238  10.169 -0.0339  0.1161  1.0003
   28CHL1   C19 2038   4.992   5.137  10.105  0.4444 -0.4573 -0.1056
   28CHL1  H19A 2039   5.044   5.073  10.030 -0.5330 -0.5568 -0.7237
   28CHL1  H19B 2040   4.937   5.070  10.173  1.0487 -1.0026 -0.1436
   28CHL1  H19C 2041   4.918   5.187  10.039 -0.7651 -1.0543  0.7743
   28CHL1    C1 2042   5.191   5.160  10.250  0.1748  0.4768  0.3991
   28CHL1   H1A 2043   5.230   5.077  10.188  1.0456  0.6205  0.7439
   28CHL1   H1B 2044   5.270   5.231  10.284  0.9294 -0.8225  1.4652
   28CHL1    C2 2045   5.125   5.083  10.371  0.7674 -0.4910 -0.0849
   28CHL1   H2A 2046   5.208   5.038  10.432 -0.9728 -1.9266  1.3542
   28CHL1   H2B 2047   5.054   5.004  10.340  0.3208 -0.2519  0.3188
   28CHL1   C20 2048   5.252   5.467   9.526 -0.1560  0.4979  0.1317
   28CHL1   H20 2049   5.163   5.409   9.493  0.9173 -0.4466 -1.1995
   28CHL1   C21 2050   5.366   5.362   9.520 -0.2679  0.8774  0.1057
   28CHL1  H21A 2051   5.390   5.349   9.412 -2.6926  2.5713 -0.7285
   28CHL1  H21B 2052   5.333   5.258   9.542 -0.7348  1.2626  1.3117
   28CHL1  H21C 2053   5.457   5.389   9.576 -0.1711 -2.5200  1.8551
   28CHL1   C22 2054   5.275   5.571   9.417 -0.4888 -0.5946  0.0287
   28CHL1  H22A 2055   5.207   5.658   9.434 -0.0885  0.3301 -2.6470
   28CHL1  H22B 2056   5.382   5.600   9.420 -0.8596  0.8451 -0.0956
   28CHL1   C23 2057   5.246   5.520   9.277  0.4837  0.2978 -0.0899
   28CHL1  H23A 2058   5.321   5.449   9.237  0.1503  0.3831 -0.8896
   28CHL1  H23B 2059   5.145   5.473   9.279  0.5694  0.1363  0.6429
   28CHL1   C24 2060   5.230   5.637   9.177 -0.3309 -0.0396  0.1790
   28CHL1  H24A 2061   5.140   5.698   9.200 -1.3515 -0.9728 -1.1770
   28CHL1  H24B 2062   5.325   5.695   9.184  0.3713 -0.8630 -1.8919
   28CHL1   C25 2063   5.209   5.591   9.029 -1.3661  0.1645 -0.3512
   28CHL1   H25 2064   5.302   5.536   9.004 -1.6625 -0.9427  0.9366
   28CHL1   C26 2065   5.084   5.508   9.024 -0.1840  0.2090 -0.2576
   28CHL1  H26A 2066   4.998   5.575   9.048 -2.4018 -1.2635 -3.4449
   28CHL1  H26B 2067   5.047   5.472   8.926 -0.1649 -1.7493  0.4229
   28CHL1  H26C 2068   5.095   5.410   9.074 -1.1470 -0.0880 -0.6253
   28CHL1   C27 2069   5.201   5.713   8.934 -0.2637 -0.2897 -0.3382
   28CHL1  H27A 2070   5.102   5.762   8.945 -1.9886 -3.3238 -1.0821
   28CHL1  H27B 2071   5.280   5.786   8.965  2.3007 -2.2271 -1.9012
   28CHL1  H27C 2072   5.207   5.691   8.826  1.7446 -1.5774 -0.0170
   29CHL1    C3 2073   0.127   2.279   6.986 -0.0622 -0.4310  0.0757
   29CHL1    H3 2074   0.059   2.199   7.020  1.0841 -1.1086  0.8812
   29CHL1    O3 2075   0.120   2.302   6.842 -0.2642  0.4839 -0.1804
   29CHL1   H3' 2076   0.090   2.392   6.828  0.6903  1.0928  1.3510
   29CHL1    C4 2077   0.094   2.411   7.068  0.0881  1.0487 -0.1601
   29CHL1   H4A 2078   0.147   2.497   7.023 -1.5491  1.8818 -0.5429
   29CHL1   H4B 2079  -0.015   2.421   7.056 -0.1210  0.5313  1.0809
   29CHL1    C5 2080   0.133   2.409   7.213  0.0505  0.5242 -0.2346
   29CHL1    C6 2081   0.039   2.447   7.301  0.0990 -0.9690 -0.1452
   29CHL1    H6 2082  -0.055   2.486   7.259 -0.0654 -1.0970  0.1037
   29CHL1    C7 2083   0.062   2.477   7.450 -0.5290  0.4035  0.0158
   29CHL1   H7A 2084   0.034   2.581   7.475  2.7496  0.9684  2.0253
   29CHL1   H7B 2085  -0.013   2.418   7.507 -0.3823 -0.7566 -0.9367
   29CHL1    C8 2086   0.204   2.442   7.492  0.6456 -0.6396 -0.3301
   29CHL1    H8 2087   0.267   2.533   7.485  0.2647 -0.4972 -2.5143
   29CHL1   C14 2088   0.204   2.387   7.630  0.0124 -0.1882 -0.8786
   29CHL1   H14 2089   0.148   2.292   7.632  2.2543 -1.5687  0.9335
   29CHL1   C15 2090   0.128   2.467   7.732  0.0595  0.8586  0.0868
   29CHL1  H15A 2091   0.157   2.574   7.724  2.6196  0.5788  3.5356
   29CHL1  H15B 2092   0.018   2.465   7.713  0.1028  2.0326 -0.4048
   29CHL1   C16 2093   0.174   2.415   7.868  0.5939 -0.0298 -0.1089
   29CHL1  H16A 2094   0.202   2.496   7.938 -2.6062  1.1208 -0.0249
   29CHL1  H16B 2095   0.084   2.376   7.919  0.9947 -0.9251 -0.0488
   29CHL1   C17 2096   0.294   2.313   7.831 -0.5621  0.9069 -0.6098
   29CHL1   H17 2097   0.257   2.208   7.831 -1.2568  1.0964  1.3992
   29CHL1   C13 2098   0.345   2.358   7.687  0.6250  0.3657 -0.2523
   29CHL1   C18 2099   0.423   2.488   7.701  0.1961  0.5396 -0.0587
   29CHL1  H18A 2100   0.449   2.522   7.598  0.3968 -2.2257 -1.0046
   29CHL1  H18B 2101   0.369   2.566   7.758 -0.0350  0.9206 -0.7818
   29CHL1  H18C 2102   0.525   2.481   7.743  0.3280 -1.5765 -0.5951
   29CHL1   C12 2103   0.410   2.247   7.599 -0.0295  0.0778  0.4770
   29CHL1  H12A 2104   0.516   2.223   7.621  0.6968 -1.9715 -4.0496
   29CHL1  H12B 2105   0.347   2.156   7.601 -0.2411  0.1258 -1.5864
   29CHL1   C11 2106   0.406   2.286   7.449 -0.3778  0.9418 -0.5542
   29CHL1  H11A 2107   0.492   2.356   7.434  2.2331 -2.0097 -0.4793
   29CHL1  H11B 2108   0.438   2.193   7.398  0.9260 -0.1537  2.0391
   29CHL1    C9 2109   0.269   2.329   7.400  0.2224 -0.9049  0.5502
   29CHL1    H9 2110   0.201   2.243   7.415 -1.0516  0.0359  0.3076
   29CHL1   C10 2111   0.268   2.355   7.245  0.1635 -0.2181 -0.4876
   29CHL1   C19 2112   0.386   2.455   7.210 -0.2831  0.3046 -0.5372
   29CHL1  H19A 2113   0.368   2.498   7.110  0.6234 -0.2228 -0.9367
   29CHL1  H19B 2114   0.373   2.545   7.275  1.3677 -0.8790  1.5782
   29CHL1  H19C 2115   0.487   2.414   7.231 -1.5331 -1.9602  1.5356
   29CHL1    C1 2116   0.292   2.216   7.168  0.1095  0.0901 -0.2671
   29CHL1   H1A 2117   0.395   2.176   7.178  0.2947  0.3761 -0.9923
   29CHL1   H1B 2118   0.210   2.145   7.192  0.4512 -0.2289 -0.0379
   29CHL1    C2 2119   0.271   2.233   7.013 -0.3953  0.2145 -0.2649
   29CHL1   H2A 2120   0.277   2.131   6.969 -0.7705 -0.1673  0.5495
   29CHL1   H2B 2121   0.342   2.308   6.971 -1.9975  1.7104 -0.4609
   29CHL1   C20 2122   0.401   2.316   7.944  0.2096  0.1429 -0.1213
   29CHL1   H20 2123   0.453   2.414   7.947 -0.7673  0.7176 -1.0501
   29CHL1   C21 2124   0.513   2.213   7.909  0.1576 -0.0292 -0.0727
   29CHL1  H21A 2125   0.468   2.112   7.896  1.3615 -0.4515 -1.1568
   29CHL1  H21B 2126   0.584   2.214   7.995  1.5971 -0.4955 -1.2221
   29CHL1  H21C 2127   0.571   2.244   7.820 -0.3852  1.9540  0.2195
   29CHL1   C22 2128   0.340   2.273   8.088 -0.1523 -0.8019  0.1868
   29CHL1  H22A 2129   0.279   2.361   8.118  2.2605  0.2622  2.3355
   29CHL1  H22B 2130   0.278   2.180   8.091 -0.4190 -0.6028  1.5286
   29CHL1   C23 2131   0.436   2.262   8.206  0.1859  0.3612  0.3816
   29CHL1  H23A 2132   0.487   2.162   8.205  0.7434  0.6152  1.3354
   29CHL1  H23B 2133   0.521   2.333   8.199  0.9273 -0.6374 -1.4379
   29CHL1   C24 2134   0.367   2.272   8.341 -0.2643 -0.3066  1.0573
   29CHL1  H24A 2135   0.309   2.365   8.357  3.6488  2.9721 -1.7542
   29CHL1  H24B 2136   0.293   2.189   8.340 -0.1947 -0.3660  0.8084
   29CHL1   C25 2137   0.467   2.267   8.456  0.2658 -0.1469 -0.6259
   29CHL1   H25 2138   0.539   2.352   8.450  0.1192 -0.0183 -0.5680
   29CHL1   C26 2139   0.391   2.270   8.587  0.2288  0.1143 -0.1699
   29CHL1  H26A 2140   0.348   2.371   8.601 -1.7314 -0.5006 -1.2976
   29CHL1  H26B 2141   0.308   2.196   8.594  0.0518  0.4094  1.1227
   29CHL1  H26C 2142   0.463   2.248   8.669 -0.0030 -0.5912 -0.1468
   29CHL1   C27 2143   0.567   2.159   8.449 -0.0276  0.4761 -0.3304
   29CHL1  H27A 2144   0.521   2.060   8.427 -0.2277  0.4918  0.0176
   29CHL1  H27B 2145   0.656   2.184   8.387 -0.6930 -1.0967 -2.0354
   29CHL1  H27C 2146   0.609   2.156   8.551 -1.4172 -1.1518  0.2393
   30CHL1    C3 2147   4.950   0.355   7.296  0.6921  0.2699 -0.1586
   30CHL1    H3 2148   5.029   0.433   7.290 -2.3118  3.6477  0.6219
   30CHL1    O3 2149   4.893   0.345   7.164 -0.3395 -0.0853 -0.0535
   30CHL1   H3' 2150   4.869   0.435   7.140  0.7992  0.4521  0.7378
   30CHL1    C4 2151   4.989   0.217   7.366  0.1406 -0.9244  0.0207
   30CHL1   H4A 2152   4.898   0.154   7.354 -0.6636  0.2420 -0.0590
   30CHL1   H4B 2153   5.070   0.177   7.300  0.0281 -1.5377  0.2414
   30CHL1    C5 2154   5.039   0.237   7.507  0.2771  0.1559  0.1539
   30CHL1    C6 2155   5.161   0.195   7.538 -0.5467 -0.4421 -0.0002
   30CHL1    H6 2156   5.227   0.141   7.468  1.8618  1.5749  0.5421
   30CHL1    C7 2157   5.214   0.218   7.675  0.1625 -0.7160  0.2094
   30CHL1   H7A 2158   5.286   0.140   7.707 -1.2243 -1.6004  1.2838
   30CHL1   H7B 2159   5.274   0.312   7.671  0.4056 -0.8972 -3.3311
   30CHL1    C8 2160   5.104   0.244   7.785  0.5282 -0.0455  0.2188
   30CHL1    H8 2161   5.051   0.149   7.804  0.5434 -0.3466 -1.1483
   30CHL1   C14 2162   5.159   0.308   7.912 -0.5768 -0.3252 -0.5541
   30CHL1   H14 2163   5.189   0.411   7.881 -2.1329  0.5556  0.7479
   30CHL1   C15 2164   5.295   0.243   7.956  0.3453  0.3271  0.1624
   30CHL1  H15A 2165   5.293   0.132   7.962  1.6070  0.3563  2.1862
   30CHL1  H15B 2166   5.393   0.270   7.912 -0.1546 -0.6274 -1.6035
   30CHL1   C16 2167   5.304   0.293   8.098 -0.0881 -0.0770  0.1877
   30CHL1  H16A 2168   5.304   0.206   8.168 -0.6637 -0.0827  0.1845
   30CHL1  H16B 2169   5.393   0.357   8.119 -0.7338  1.7297 -2.1278
   30CHL1   C17 2170   5.173   0.376   8.139 -0.6158 -0.4349 -0.1009
   30CHL1   H17 2171   5.196   0.481   8.113  0.4722 -0.9548 -1.4049
   30CHL1   C13 2172   5.068   0.327   8.030  0.1865 -0.8766 -0.0968
   30CHL1   C18 2173   5.013   0.191   8.069 -0.3475  0.1085  0.0475
   30CHL1  H18A 2174   4.940   0.164   7.989 -1.6230 -0.9531  1.5118
   30CHL1  H18B 2175   5.086   0.107   8.067  0.0004  0.4035 -1.4633
   30CHL1  H18C 2176   4.964   0.199   8.168  0.9135 -1.7314  0.8729
   30CHL1   C12 2177   4.952   0.427   7.991  0.5727  0.0969  0.7150
   30CHL1  H12A 2178   4.863   0.433   8.057  0.3679  0.9408  0.3752
   30CHL1  H12B 2179   5.004   0.523   7.970  1.2361 -0.6450 -1.2670
   30CHL1   C11 2180   4.894   0.377   7.851 -0.4747  0.1084 -0.3868
   30CHL1  H11A 2181   4.830   0.290   7.877 -0.5237  0.6592  1.5175
   30CHL1  H11B 2182   4.818   0.452   7.820 -0.3761  0.2092 -0.3868
   30CHL1    C9 2183   5.000   0.352   7.737  0.1628  0.3474 -0.0853
   30CHL1    H9 2184   5.064   0.442   7.722  1.5726 -0.3684  1.3718
   30CHL1   C10 2185   4.938   0.314   7.604  0.0186 -0.2162  0.3468
   30CHL1   C19 2186   4.823   0.206   7.625  0.3396 -0.4189  0.4966
   30CHL1  H19A 2187   4.845   0.126   7.698 -0.1207 -1.9917 -1.0259
   30CHL1  H19B 2188   4.729   0.260   7.653 -0.0490 -1.3185  0.9511
   30CHL1  H19C 2189   4.796   0.143   7.537  1.9669 -2.0152  1.0923
   30CHL1    C1 2190   4.892   0.447   7.525  0.7154  0.3571  0.6014
   30CHL1   H1A 2191   4.811   0.497   7.583 -0.4108  0.1664 -0.7471
   30CHL1   H1B 2192   4.976   0.519   7.528  1.1321  0.0559 -1.7877
   30CHL1    C2 2193   4.837   0.422   7.384  0.7093 -0.2513  0.0960
   30CHL1   H2A 2194   4.777   0.509   7.350 -0.9930 -0.8508  1.3605
   30CHL1   H2B 2195   4.756   0.347   7.397 -1.2016  1.7780  0.6120
   30CHL1   C20 2196   5.141   0.375   8.286  0.3501 -0.6193 -0.2450
   30CHL1   H20 2197   5.145   0.272   8.328 -0.4565 -0.2778  0.7134
   30CHL1   C21 2198   5.006   0.441   8.312 -0.3640  0.2404  0.4383
   30CHL1  H21A 2199   5.009   0.539   8.259 -0.1953 -0.3147 -0.5819
   30CHL1  H21B 2200   5.006   0.473   8.419  0.0176  0.1548  0.4670
   30CHL1  H21C 2201   4.915   0.386   8.282 -1.0324  0.5182  1.8413
   30CHL1   C22 2202   5.266   0.435   8.364  0.0407  0.1822  0.5233
   30CHL1  H22A 2203   5.350   0.368   8.335  1.0741  1.0131  1.5441
   30CHL1  H22B 2204   5.288   0.541   8.340  2.2095 -0.2236  0.5278
   30CHL1   C23 2205   5.248   0.421   8.511  0.0482 -0.6954  0.4532
   30CHL1  H23A 2206   5.182   0.502   8.550  0.2324  0.3043 -1.2050
   30CHL1  H23B 2207   5.189   0.332   8.542  2.2735 -1.9390  1.3127
   30CHL1   C24 2208   5.377   0.411   8.592  0.5124  0.1989 -0.1962
   30CHL1  H24A 2209   5.357   0.388   8.699  1.2305  1.8225  0.3313
   30CHL1  H24B 2210   5.441   0.331   8.551 -0.9381 -1.4597  0.6671
   30CHL1   C25 2211   5.454   0.539   8.600  0.1413  0.2557 -0.4824
   30CHL1   H25 2212   5.439   0.613   8.519  1.0637 -0.3093 -1.1928
   30CHL1   C26 2213   5.405   0.613   8.731  0.3513  0.3034 -0.4571
   30CHL1  H26A 2214   5.294   0.616   8.728  0.2881 -1.6904 -1.0497
   30CHL1  H26B 2215   5.434   0.551   8.819 -0.2050 -0.8745 -1.0802
   30CHL1  H26C 2216   5.457   0.711   8.734  0.7451  0.1208 -1.1565
   30CHL1   C27 2217   5.599   0.514   8.624 -0.8315  0.1705 -0.0636
   30CHL1  H27A 2218   5.660   0.485   8.535  0.8678 -1.3144  1.5109
   30CHL1  H27B 2219   5.646   0.604   8.669 -0.0618 -0.9584  1.4604
   30CHL1  H27C 2220   5.621   0.437   8.701 -0.6984 -1.0154 -1.2424
   31CHL1    C3 2221   5.160   2.790   6.809 -0.1948  0.0713 -0.1541
   31CHL1    H3 2222   5.189   2.692   6.854  0.1479  1.4235  2.8279
   31CHL1    O3 2223   5.174   2.790   6.669  0.4410 -0.0983  0.2733
   31CHL1   H3' 2224   5.252   2.735   6.661  0.0012 -0.6818 -0.1081
   31CHL1    C4 2225   5.009   2.798   6.838 -0.8090  0.2967  0.0998
   31CHL1   H4A 2226   4.963   2.887   6.790 -0.9049  0.8798  1.2507
   31CHL1   H4B 2227   4.956   2.708   6.799  0.7913 -1.8254  2.4846
   31CHL1    C5 2228   4.994   2.805   6.991  0.5131  0.5339 -0.3363
   31CHL1    C6 2229   4.911   2.716   7.049  0.2680 -0.1776 -0.3786
   31CHL1    H6 2230   4.871   2.631   6.992 -2.5310  0.1884  0.8844
   31CHL1    C7 2231   4.889   2.705   7.204  0.7051  0.1996  0.7438
   31CHL1   H7A 2232   4.783   2.683   7.227  0.1492 -2.0070 -3.0713
   31CHL1   H7B 2233   4.947   2.623   7.250 -0.8560 -0.1179  2.2702
   31CHL1    C8 2234   4.935   2.836   7.274 -0.3186  0.6587  0.1161
   31CHL1    H8 2235   4.858   2.909   7.242 -0.5605  1.0086  1.4541
   31CHL1   C14 2236   4.944   2.816   7.423 -0.1548 -0.1082  0.2615
   31CHL1   H14 2237   5.029   2.745   7.430  0.3930  0.1155 -2.9401
   31CHL1   C15 2238   4.831   2.741   7.495 -0.0330 -0.0815  0.1760
   31CHL1  H15A 2239   4.736   2.758   7.441 -0.3369  0.2321  0.7917
   31CHL1  H15B 2240   4.853   2.633   7.506  0.1787  0.0071  0.6751
   31CHL1   C16 2241   4.830   2.813   7.631  0.0507  0.1663 -0.0353
   31CHL1  H16A 2242   4.746   2.884   7.646  2.1497  2.9323 -0.4587
   31CHL1  H16B 2243   4.824   2.737   7.712 -0.5736 -1.8837 -1.8928
   31CHL1   C17 2244   4.957   2.897   7.641 -0.7257  0.0259 -0.8371
   31CHL1   H17 2245   5.035   2.831   7.684 -0.1559 -0.5578 -2.6585
   31CHL1   C13 2246   4.978   2.939   7.499 -0.1021 -0.2697 -0.6656
   31CHL1   C18 2247   4.887   3.057   7.462 -0.3854 -0.6275 -0.0241
   31CHL1  H18A 2248   4.889   3.082   7.354 -2.0929  0.8861  0.2480
   31CHL1  H18B 2249   4.783   3.038   7.494 -0.1942 -1.2788  0.2302
   31CHL1  H18C 2250   4.927   3.148   7.512 -0.4500 -0.4053 -0.3738
   31CHL1   C12 2251   5.118   2.978   7.456 -1.0943  0.1569 -0.3871
   31CHL1  H12A 2252   5.150   3.069   7.511  1.9006  0.4823 -2.4178
   31CHL1  H12B 2253   5.189   2.894   7.466  0.2393  1.3658  0.7797
   31CHL1   C11 2254   5.133   3.009   7.303  0.5395  0.4184  0.0051
   31CHL1  H11A 2255   5.091   3.111   7.290  0.7239  0.8073  2.1110
   31CHL1  H11B 2256   5.242   3.019   7.286  1.0418  0.8731  3.0401
   31CHL1    C9 2257   5.070   2.892   7.217 -0.2608 -0.1998  0.5697
   31CHL1    H9 2258   5.149   2.815   7.237  0.9854  0.5676 -1.1547
   31CHL1   C10 2259   5.075   2.915   7.064  0.2305  1.0789 -0.1716
   31CHL1   C19 2260   5.005   3.048   7.030 -0.6583  0.1837  0.5473
   31CHL1  H19A 2261   4.906   3.064   7.077  0.2615 -0.4117  2.8154
   31CHL1  H19B 2262   5.066   3.136   7.060 -0.0163  0.2311 -0.7984
   31CHL1  H19C 2263   4.997   3.054   6.919  1.5904 -0.0044  0.3129
   31CHL1    C1 2264   5.226   2.909   7.018  0.1027  0.8590  0.5163
   31CHL1   H1A 2265   5.280   3.001   7.050  2.7917 -0.2060 -0.6603
   31CHL1   H1B 2266   5.286   2.835   7.075 -1.0478 -0.2508  0.3127
   31CHL1    C2 2267   5.241   2.904   6.867 -0.2830  0.1938 -0.0485
   31CHL1   H2A 2268   5.346   2.915   6.834  0.2776  2.9593  2.2658
   31CHL1   H2B 2269   5.191   2.999   6.838 -2.0455 -0.2678  1.2543
   31CHL1   C20 2270   4.943   3.015   7.743  0.1408 -1.1172 -0.3066
   31CHL1   H20 2271   4.863   3.086   7.711  1.0772  0.0923 -0.0347
   31CHL1   C21 2272   5.077   3.095   7.760 -0.3206  0.5905  0.1968
   31CHL1  H21A 2273   5.087   3.175   7.684 -2.2672 -0.0117 -0.7751
   31CHL1  H21B 2274   5.169   3.033   7.754  0.2449  1.4412 -0.1417
   31CHL1  H21C 2275   5.083   3.142   7.860  0.2278 -2.0690  1.5034
   31CHL1   C22 2276   4.902   2.960   7.884  0.5644 -0.0275 -0.3180
   31CHL1  H22A 2277   4.808   2.902   7.878 -1.8668  3.2936  2.2005
   31CHL1  H22B 2278   4.984   2.897   7.925  0.2849 -1.8737 -2.4159
   31CHL1   C23 2279   4.858   3.063   7.986 -0.1580  0.4594  0.1610
   31CHL1  H23A 2280   4.952   3.115   8.015  0.4877 -0.7535  0.2997
   31CHL1  H23B 2281   4.801   3.146   7.939 -1.3469  1.0380  2.4559
   31CHL1   C24 2282   4.802   2.998   8.111 -0.7732  0.1869 -0.3843
   31CHL1  H24A 2283   4.698   2.968   8.086 -0.2478 -2.0649 -0.0578
   31CHL1  H24B 2284   4.865   2.910   8.137 -0.6759  0.1772 -0.6534
   31CHL1   C25 2285   4.802   3.095   8.227  0.3532 -0.0181 -0.1549
   31CHL1   H25 2286   4.758   3.191   8.192  3.1750  1.0669 -0.9701
   31CHL1   C26 2287   4.703   3.040   8.335  0.2359 -0.2893  0.2012
   31CHL1  H26A 2288   4.648   3.120   8.390  0.6812 -0.0239  0.2589
   31CHL1  H26B 2289   4.627   2.986   8.274  1.9278 -0.5514 -1.8048
   31CHL1  H26C 2290   4.741   2.970   8.412  0.3633  0.6010  0.9606
   31CHL1   C27 2291   4.945   3.110   8.297  1.0627  0.4394  0.2610
   31CHL1  H27A 2292   4.941   3.183   8.381  3.9537  0.5669  0.3656
   31CHL1  H27B 2293   5.020   3.153   8.228 -0.6501  3.0879 -0.0951
   31CHL1  H27C 2294   4.985   3.011   8.327  0.2798  0.7816  2.5942
   32CHL1    C3 2295   5.035   1.295   7.365 -0.2550 -0.2564  0.0744
   32CHL1    H3 2296   4.964   1.222   7.410  2.8080 -3.9137 -0.4176
   32CHL1    O3 2297   4.980   1.356   7.248 -0.2821  0.0426 -0.5007
   32CHL1   H3' 2298   5.046   1.406   7.200  0.9389 -0.4133  0.6563
   32CHL1    C4 2299   5.061   1.408   7.469 -0.4804 -0.2841 -0.1079
   32CHL1   H4A 2300   5.103   1.491   7.407 -4.3863  0.1133 -2.5553
   32CHL1   H4B 2301   4.964   1.446   7.507 -0.3571 -0.7112  0.6587
   32CHL1    C5 2302   5.151   1.373   7.586 -0.2035 -1.1114 -0.9216
   32CHL1    C6 2303   5.125   1.396   7.717  0.3963  0.6781  0.1089
   32CHL1    H6 2304   5.027   1.432   7.751 -0.2231  1.6356 -2.4570
   32CHL1    C7 2305   5.228   1.369   7.824  0.1811  0.0991 -0.8772
   32CHL1   H7A 2306   5.238   1.458   7.890  2.7605  0.9787 -2.3107
   32CHL1   H7B 2307   5.189   1.286   7.886 -0.0451  2.2886  2.1309
   32CHL1    C8 2308   5.371   1.336   7.777  0.0220 -0.4406  0.9756
   32CHL1    H8 2309   5.414   1.432   7.743 -0.6187 -0.5858 -0.3092
   32CHL1   C14 2310   5.444   1.274   7.890  0.3757  0.7407  0.4044
   32CHL1   H14 2311   5.376   1.190   7.913 -1.9015  1.2287 -3.5503
   32CHL1   C15 2312   5.459   1.359   8.014 -0.1988 -0.5754  0.0067
   32CHL1  H15A 2313   5.492   1.459   7.979 -0.4302 -0.3221  0.5036
   32CHL1  H15B 2314   5.367   1.383   8.071  0.4857  0.3089  0.7657
   32CHL1   C16 2315   5.563   1.286   8.096 -0.0659 -0.0907  0.5743
   32CHL1  H16A 2316   5.638   1.355   8.140  0.7066 -0.9760  0.6881
   32CHL1  H16B 2317   5.520   1.225   8.179  0.4000 -0.1913  0.7460
   32CHL1   C17 2318   5.629   1.182   7.997  0.1741 -0.1994 -0.9422
   32CHL1   H17 2319   5.572   1.090   8.022  0.4213 -0.1580 -0.1918
   32CHL1   C13 2320   5.586   1.230   7.853  0.3054  0.5523  0.0997
   32CHL1   C18 2321   5.672   1.356   7.811 -0.5237  0.1709 -0.4068
   32CHL1  H18A 2322   5.700   1.410   7.903  0.0352  0.8970 -0.9943
   32CHL1  H18B 2323   5.764   1.321   7.760  0.4242 -1.8433  2.4209
   32CHL1  H18C 2324   5.618   1.428   7.745  1.4558  3.1622  1.0544
   32CHL1   C12 2325   5.583   1.127   7.740 -0.2899 -0.6854  1.1502
   32CHL1  H12A 2326   5.690   1.112   7.714  0.5716  1.0402  3.3562
   32CHL1  H12B 2327   5.534   1.032   7.772 -2.2863 -0.0939  0.0006
   32CHL1   C11 2328   5.511   1.184   7.618  0.1219 -0.0407  0.4511
   32CHL1  H11A 2329   5.565   1.272   7.577 -2.5766  2.5242  1.9442
   32CHL1  H11B 2330   5.501   1.113   7.533  2.2147  0.2074 -0.0460
   32CHL1    C9 2331   5.371   1.245   7.660 -0.4734  1.1926 -0.2118
   32CHL1    H9 2332   5.312   1.159   7.698  0.1199  1.1945  0.7357
   32CHL1   C10 2333   5.284   1.300   7.543  0.2106 -0.0738  0.4070
   32CHL1   C19 2334   5.373   1.401   7.461 -0.0436 -0.5025  0.2856
   32CHL1  H19A 2335   5.319   1.445   7.374 -0.9127  1.5114  1.7447
   32CHL1  H19B 2336   5.414   1.480   7.528  1.2285 -0.6138 -0.3307
   32CHL1  H19C 2337   5.456   1.345   7.413  0.1836  0.8740 -1.0164
   32CHL1    C1 2338   5.251   1.179   7.448  0.0546 -0.1134  0.2605
   32CHL1   H1A 2339   5.347   1.146   7.405 -0.7319 -0.6640 -1.1432
   32CHL1   H1B 2340   5.206   1.097   7.507 -0.3520  0.0887  0.2360
   32CHL1    C2 2341   5.161   1.220   7.319  0.8288 -0.0633  0.2525
   32CHL1   H2A 2342   5.126   1.136   7.256  2.4080  0.1169 -0.9371
   32CHL1   H2B 2343   5.229   1.277   7.252 -0.7182 -0.5200 -1.7812
   32CHL1   C20 2344   5.777   1.159   8.027 -0.4084 -0.4906 -0.0320
   32CHL1   H20 2345   5.836   1.239   7.978  1.0799 -0.8435  1.1059
   32CHL1   C21 2346   5.824   1.025   7.953  0.0155 -0.2183 -0.6752
   32CHL1  H21A 2347   5.924   0.993   7.989  0.8580  0.9974 -1.8575
   32CHL1  H21B 2348   5.823   1.046   7.844  1.1029 -1.2563 -0.9004
   32CHL1  H21C 2349   5.754   0.943   7.980  2.2903 -1.8928  0.4700
   32CHL1   C22 2350   5.811   1.133   8.174 -0.2883  0.0494  0.3785
   32CHL1  H22A 2351   5.917   1.101   8.184 -0.2743 -0.1569 -0.4112
   32CHL1  H22B 2352   5.793   1.222   8.238  1.3027  0.9804 -0.3899
   32CHL1   C23 2353   5.733   1.020   8.241 -0.7222  0.0703  0.0384
   32CHL1  H23A 2354   5.627   1.053   8.240 -0.1182  2.1562  0.4605
   32CHL1  H23B 2355   5.740   0.922   8.189  0.5524  0.0808  0.1677
   32CHL1   C24 2356   5.792   0.999   8.383 -0.7180  0.0744 -0.2755
   32CHL1  H24A 2357   5.895   0.962   8.367  0.1695  2.4957 -0.6098
   32CHL1  H24B 2358   5.795   1.087   8.451 -0.6609 -1.5897  1.9768
   32CHL1   C25 2359   5.716   0.901   8.469 -0.0165 -0.1562  0.5493
   32CHL1   H25 2360   5.719   0.804   8.414  0.0443 -0.6558  1.4128
   32CHL1   C26 2361   5.799   0.874   8.598 -0.8469  0.6625  0.2703
   32CHL1  H26A 2362   5.801   0.961   8.666 -0.2163  0.9167 -0.0584
   32CHL1  H26B 2363   5.759   0.780   8.643 -1.2262  0.9789  0.5989
   32CHL1  H26C 2364   5.904   0.859   8.562  0.3562  0.8431  3.3568
   32CHL1   C27 2365   5.569   0.940   8.504 -0.0982 -0.5427  0.0081
   32CHL1  H27A 2366   5.561   1.024   8.577  0.4812 -0.8584  0.4382
   32CHL1  H27B 2367   5.515   0.960   8.409  1.5406 -2.1267 -1.3285
   32CHL1  H27C 2368   5.525   0.848   8.546 -0.2655 -0.2333  0.5283
   33CHL1    C3 2369   6.369   2.835   6.734 -0.2870 -0.3288  0.0738
   33CHL1    H3 2370   6.294   2.917   6.735  0.1435  0.1128 -1.3417
   33CHL1    O3 2371   6.386   2.790   6.595  0.1657 -0.1249 -0.2264
   33CHL1   H3' 2372   6.380   2.694   6.602  0.6779 -0.2525 -1.3247
   33CHL1    C4 2373   6.504   2.877   6.792 -0.0512  0.1278  0.0783
   33CHL1   H4A 2374   6.582   2.799   6.785  1.1638  1.2888  0.1704
   33CHL1   H4B 2375   6.551   2.960   6.734 -0.5714  0.9508  0.8016
   33CHL1    C5 2376   6.491   2.922   6.928  0.3493 -0.4963  0.2257
   33CHL1    C6 2377   6.529   3.040   6.973  0.1658 -0.0531 -0.6816
   33CHL1    H6 2378   6.575   3.104   6.897  3.0796 -2.1558 -0.8579
   33CHL1    C7 2379   6.522   3.084   7.116 -0.0629  0.2160  0.0934
   33CHL1   H7A 2380   6.608   3.145   7.150 -1.5063  2.8659 -0.7016
   33CHL1   H7B 2381   6.432   3.146   7.137 -0.1358 -0.5693  2.3428
   33CHL1    C8 2382   6.509   2.969   7.216  0.1860 -0.7095  0.4657
   33CHL1    H8 2383   6.608   2.921   7.225  0.4989  0.2990  3.1795
   33CHL1   C14 2384   6.473   3.014   7.357  0.5801 -0.4870  0.2477
   33CHL1   H14 2385   6.374   3.064   7.367  1.2101  1.1106 -1.1729
   33CHL1   C15 2386   6.569   3.116   7.420 -0.9346  0.1961 -0.1039
   33CHL1  H15A 2387   6.674   3.097   7.391 -0.3524  1.5406  1.0582
   33CHL1  H15B 2388   6.561   3.220   7.383  0.4448  0.0184 -0.9643
   33CHL1   C16 2389   6.540   3.107   7.568  0.4039  0.6336 -0.0295
   33CHL1  H16A 2390   6.632   3.096   7.629  0.1819 -3.3715 -0.1833
   33CHL1  H16B 2391   6.499   3.204   7.605 -0.3035  0.1139  0.5823
   33CHL1   C17 2392   6.441   2.991   7.589  0.6651 -0.2667  0.5804
   33CHL1   H17 2393   6.341   3.036   7.570 -0.0359 -1.4122  1.4463
   33CHL1   C13 2394   6.460   2.897   7.458 -0.2927 -0.2450  0.3430
   33CHL1   C18 2395   6.583   2.808   7.480 -0.8783 -0.4689  0.2458
   33CHL1  H18A 2396   6.573   2.746   7.571 -1.5308 -1.0147 -0.1892
   33CHL1  H18B 2397   6.603   2.742   7.393 -1.5678 -0.1664 -0.1521
   33CHL1  H18C 2398   6.669   2.879   7.476  0.4061 -1.9994 -1.5332
   33CHL1   C12 2399   6.335   2.821   7.412  0.6776 -0.5553  0.1808
   33CHL1  H12A 2400   6.323   2.744   7.492  1.4955 -0.5498  0.3144
   33CHL1  H12B 2401   6.247   2.888   7.424  0.8722 -0.5154  1.6809
   33CHL1   C11 2402   6.352   2.768   7.267  0.2586 -0.0329  0.1219
   33CHL1  H11A 2403   6.418   2.679   7.263  1.7039  1.0470 -0.9264
   33CHL1  H11B 2404   6.248   2.744   7.237  0.3100  0.0903 -0.1516
   33CHL1    C9 2405   6.395   2.872   7.163 -0.0759  0.1546 -0.5377
   33CHL1    H9 2406   6.310   2.942   7.149 -0.2697  0.0443  0.0621
   33CHL1   C10 2407   6.428   2.812   7.025 -0.2112  0.5962  0.8290
   33CHL1   C19 2408   6.537   2.694   7.046  0.0811  0.0778 -0.0172
   33CHL1  H19A 2409   6.502   2.601   7.095  2.4853 -0.8679  0.0346
   33CHL1  H19B 2410   6.585   2.662   6.951 -1.5301 -0.1905 -0.7846
   33CHL1  H19C 2411   6.622   2.735   7.105  0.5520  1.4238 -1.5550
   33CHL1    C1 2412   6.296   2.752   6.965 -0.3822  0.0060  0.7562
   33CHL1   H1A 2413   6.268   2.658   7.018 -1.7246  0.3908  0.7728
   33CHL1   H1B 2414   6.221   2.832   6.985 -0.5255 -0.5154  2.4436
   33CHL1    C2 2415   6.303   2.720   6.811 -0.1194  0.1032 -0.1170
   33CHL1   H2A 2416   6.209   2.698   6.755  0.3327 -0.9014 -0.5075
   33CHL1   H2B 2417   6.361   2.626   6.815 -1.8630 -0.9747  1.0530
   33CHL1   C20 2418   6.432   2.929   7.733  0.3915 -0.6446  0.8932
   33CHL1   H20 2419   6.380   2.833   7.716 -0.4212 -0.0332 -0.2373
   33CHL1   C21 2420   6.323   3.010   7.816 -0.5296  0.6325  0.4115
   33CHL1  H21A 2421   6.319   2.967   7.918  2.1109 -1.1211 -0.1284
   33CHL1  H21B 2422   6.222   3.005   7.770 -1.8714  2.4637  2.8787
   33CHL1  H21C 2423   6.348   3.118   7.827 -1.7565  0.8360  1.4124
   33CHL1   C22 2424   6.572   2.925   7.803 -0.1225 -0.0329 -0.0502
   33CHL1  H22A 2425   6.651   2.889   7.733  0.4932  0.9603  0.1117
   33CHL1  H22B 2426   6.595   3.026   7.843  0.9960  0.0910 -0.9675
   33CHL1   C23 2427   6.581   2.836   7.929  0.0648 -0.2054 -0.4629
   33CHL1  H23A 2428   6.500   2.878   7.993 -0.5801 -0.7293 -0.9299
   33CHL1  H23B 2429   6.555   2.732   7.902 -1.2329 -0.2457  0.7805
   33CHL1   C24 2430   6.712   2.847   8.016 -0.1869 -0.0185 -0.0969
   33CHL1  H24A 2431   6.789   2.785   7.966 -0.5668 -1.9441  1.5833
   33CHL1  H24B 2432   6.745   2.953   8.017  0.2509 -0.1399  1.9477
   33CHL1   C25 2433   6.711   2.797   8.163 -0.0020 -0.0311  0.1932
   33CHL1   H25 2434   6.664   2.696   8.154 -1.5906  0.8114 -1.4434
   33CHL1   C26 2435   6.849   2.774   8.223 -0.8235  0.2506  0.2792
   33CHL1  H26A 2436   6.915   2.863   8.213 -0.6733 -0.0321 -1.6245
   33CHL1  H26B 2437   6.827   2.748   8.329  0.2680 -0.7103  0.2924
   33CHL1  H26C 2438   6.914   2.700   8.171 -1.5631  0.8898 -1.6247
   33CHL1   C27 2439   6.628   2.884   8.264 -0.2709  0.0903  1.0260
   33CHL1  H27A 2440   6.675   2.983   8.280  0.2101  0.1576 -0.6288
   33CHL1  H27B 2441   6.524   2.896   8.224 -0.5075 -0.0698  1.5842
   33CHL1  H27C 2442   6.620   2.834   8.363 -1.2041  1.5097  1.7062
   34CHL1    C3 2443   0.610   0.743   7.389 -0.0157 -0.5263 -0.4922
   34CHL1    H3 2444   0.546   0.816   7.443  2.0355  0.1409  1.1830
   34CHL1    O3 2445   0.546   0.729   7.263 -0.6368  0.3017 -0.8232
   34CHL1   H3' 2446   0.533   0.818   7.228  0.1089  0.8576  0.2382
   34CHL1    C4 2447   0.757   0.773   7.374  0.5578  0.1859 -1.2522
   34CHL1   H4A 2448   0.801   0.683   7.325 -1.0935 -1.5401  0.2431
   34CHL1   H4B 2449   0.768   0.867   7.315  0.1132  0.4280 -0.9561
   34CHL1    C5 2450   0.821   0.777   7.510  0.0899  0.3029  0.1036
   34CHL1    C6 2451   0.872   0.890   7.560 -0.6867 -0.6879  0.3332
   34CHL1    H6 2452   0.866   0.979   7.497 -0.7290  0.3234  1.7209
   34CHL1    C7 2453   0.942   0.913   7.694  0.0474  1.1645 -0.3280
   34CHL1   H7A 2454   1.041   0.960   7.677  0.8498 -0.2116  0.3827
   34CHL1   H7B 2455   0.881   0.968   7.769  1.1760  0.8961  0.8128
   34CHL1    C8 2456   0.976   0.775   7.761 -0.2363 -1.2615  0.2814
   34CHL1    H8 2457   1.068   0.733   7.713  0.3274  1.2666 -1.0550
   34CHL1   C14 2458   1.015   0.792   7.905  0.2471 -0.1841  0.1565
   34CHL1   H14 2459   0.927   0.838   7.954 -0.3345  1.3876 -2.2228
   34CHL1   C15 2460   1.124   0.892   7.945  0.4563 -0.3690  0.8487
   34CHL1  H15A 2461   1.201   0.894   7.866 -1.1028  0.4790 -0.7175
   34CHL1  H15B 2462   1.081   0.995   7.943 -0.7267 -0.8619 -1.2686
   34CHL1   C16 2463   1.185   0.848   8.078 -0.3181  0.7425 -0.2423
   34CHL1  H16A 2464   1.294   0.832   8.061 -0.4591  0.3046 -0.7339
   34CHL1  H16B 2465   1.170   0.925   8.157 -0.1962  0.0296  0.4968
   34CHL1   C17 2466   1.094   0.720   8.107 -0.7327  0.1942 -0.0777
   34CHL1   H17 2467   1.001   0.754   8.157  0.2062 -0.0653  1.9630
   34CHL1   C13 2468   1.043   0.662   7.976 -0.4025 -0.4759 -0.3058
   34CHL1   C18 2469   1.168   0.591   7.914 -0.1019  0.6215 -0.1076
   34CHL1  H18A 2470   1.138   0.554   7.813  0.1386  0.8225 -0.2544
   34CHL1  H18B 2471   1.247   0.667   7.899  0.8469 -0.4509 -0.7261
   34CHL1  H18C 2472   1.209   0.504   7.969  0.9445 -0.1260 -1.9597
   34CHL1   C12 2473   0.921   0.568   7.975  0.0115  0.1344 -0.4553
   34CHL1  H12A 2474   0.952   0.466   8.007  1.6116 -0.3060 -3.0112
   34CHL1  H12B 2475   0.841   0.615   8.035 -1.3017  0.1960 -2.1733
   34CHL1   C11 2476   0.865   0.550   7.833  0.1349 -0.2848 -0.2132
   34CHL1  H11A 2477   0.924   0.476   7.776 -1.6680  0.6245 -3.5675
   34CHL1  H11B 2478   0.766   0.502   7.853 -0.9742  2.5850  1.8809
   34CHL1    C9 2479   0.856   0.677   7.746  0.0936  0.0620  0.9130
   34CHL1    H9 2480   0.766   0.722   7.793 -0.6592 -0.7631  0.2928
   34CHL1   C10 2481   0.816   0.654   7.594  0.8580  0.8406  0.8077
   34CHL1   C19 2482   0.917   0.549   7.539  0.3378 -0.1385 -0.2357
   34CHL1  H19A 2483   1.020   0.582   7.565  0.6876 -1.4001  0.0405
   34CHL1  H19B 2484   0.885   0.452   7.580 -1.0904  1.1606  1.8987
   34CHL1  H19C 2485   0.908   0.548   7.428 -0.2332  0.1593 -0.1952
   34CHL1    C1 2486   0.665   0.599   7.599  0.3397  0.4000 -0.3962
   34CHL1   H1A 2487   0.676   0.491   7.623 -0.1868  0.0488 -1.6216
   34CHL1   H1B 2488   0.605   0.647   7.679  0.2594  0.3955 -0.4544
   34CHL1    C2 2489   0.591   0.603   7.462 -0.4379 -0.6172 -0.5222
   34CHL1   H2A 2490   0.481   0.590   7.471 -1.2155  3.2340 -2.2445
   34CHL1   H2B 2491   0.644   0.532   7.395  1.2600 -0.2683  0.3858
   34CHL1   C20 2492   1.171   0.632   8.209 -0.6805 -0.3108  0.0510
   34CHL1   H20 2493   1.253   0.570   8.167  0.7834  1.4057  0.2403
   34CHL1   C21 2494   1.075   0.535   8.282 -0.2174 -0.0598  0.6692
   34CHL1  H21A 2495   1.036   0.477   8.196  2.3056 -0.7748 -0.0751
   34CHL1  H21B 2496   1.005   0.597   8.343 -0.0288 -1.7220  2.6661
   34CHL1  H21C 2497   1.114   0.455   8.348 -0.0743  0.7103  1.5417
   34CHL1   C22 2498   1.232   0.723   8.323  0.3496  0.1989 -0.0016
   34CHL1  H22A 2499   1.316   0.784   8.282 -0.4330  0.8635 -0.6510
   34CHL1  H22B 2500   1.153   0.790   8.364  0.2180  1.0609 -1.5993
   34CHL1   C23 2501   1.296   0.653   8.444  0.2695  0.4587  0.2788
   34CHL1  H23A 2502   1.217   0.597   8.496  0.8195  1.7783  2.7060
   34CHL1  H23B 2503   1.372   0.584   8.402 -0.3037 -0.3962  0.6245
   34CHL1   C24 2504   1.374   0.754   8.533 -0.2596  0.2375 -0.4209
   34CHL1  H24A 2505   1.458   0.801   8.478  2.1102 -2.6004  0.5288
   34CHL1  H24B 2506   1.303   0.838   8.552  0.1265  0.4509  0.1082
   34CHL1   C25 2507   1.412   0.699   8.672  0.7356  0.0221 -0.4107
   34CHL1   H25 2508   1.329   0.643   8.720  2.5253 -2.1567  0.3189
   34CHL1   C26 2509   1.535   0.609   8.656  0.5633  1.0055 -0.5614
   34CHL1  H26A 2510   1.573   0.573   8.754 -0.0270 -1.6400 -1.2294
   34CHL1  H26B 2511   1.515   0.524   8.587 -1.0225  0.0706  0.9567
   34CHL1  H26C 2512   1.618   0.665   8.609 -0.3783 -0.1058 -3.8539
   34CHL1   C27 2513   1.446   0.812   8.777 -0.1626  0.4199 -0.2291
   34CHL1  H27A 2514   1.492   0.777   8.872  1.2524 -0.1934 -1.1010
   34CHL1  H27B 2515   1.518   0.886   8.736  1.0306 -0.9296 -0.6626
   34CHL1  H27C 2516   1.355   0.868   8.807  0.4662  0.2768  2.1780
   35CHL1    C3 2517   4.411   1.319   7.239  0.6369  0.7326 -1.0647
   35CHL1    H3 2518   4.355   1.227   7.213  0.7376  1.4547 -4.2752
   35CHL1    O3 2519   4.493   1.357   7.128  0.5543  0.2961  0.0865
   35CHL1   H3' 2520   4.580   1.349   7.167  1.3404 -3.7635 -1.9694
   35CHL1    C4 2521   4.323   1.426   7.298 -0.1311 -0.0305  0.8284
   35CHL1   H4A 2522   4.380   1.520   7.311 -0.6959  0.5693 -0.7854
   35CHL1   H4B 2523   4.255   1.444   7.211  2.2177  1.2313 -0.8678
   35CHL1    C5 2524   4.242   1.386   7.421 -0.5656  0.0048  0.7957
   35CHL1    C6 2525   4.109   1.378   7.415 -0.7743 -0.1049 -0.4877
   35CHL1    H6 2526   4.056   1.430   7.334 -0.8663  0.2504 -0.2007
   35CHL1    C7 2527   4.014   1.329   7.528 -0.4952 -0.0972 -0.4623
   35CHL1   H7A 2528   3.917   1.382   7.535 -0.0379  0.5903  1.0021
   35CHL1   H7B 2529   3.993   1.221   7.514 -2.7585  0.4988 -2.1467
   35CHL1    C8 2530   4.102   1.346   7.662 -0.4178 -0.2398 -0.3856
   35CHL1    H8 2531   4.121   1.454   7.680  4.2971 -0.8145 -0.7697
   35CHL1   C14 2532   4.030   1.289   7.787  0.3521  0.3620  0.7413
   35CHL1   H14 2533   4.006   1.182   7.771 -2.1521  0.4766  2.9605
   35CHL1   C15 2534   3.902   1.360   7.817  0.6010 -0.0635 -0.8703
   35CHL1  H15A 2535   3.919   1.470   7.822 -0.0240  0.0209 -0.3873
   35CHL1  H15B 2536   3.817   1.344   7.746 -1.8176  2.4330  1.2275
   35CHL1   C16 2537   3.873   1.312   7.961 -0.5910  0.0864  1.1447
   35CHL1  H16A 2538   3.840   1.401   8.020  2.7246  1.7271  0.7575
   35CHL1  H16B 2539   3.793   1.236   7.973 -1.4502  0.4279 -1.8162
   35CHL1   C17 2540   4.001   1.250   8.011 -0.2264 -0.1703  0.3677
   35CHL1   H17 2541   3.985   1.142   7.996 -2.0679  0.3362 -1.8905
   35CHL1   C13 2542   4.110   1.297   7.915 -0.3058  0.8270 -0.0648
   35CHL1   C18 2543   4.155   1.444   7.947 -0.4146 -0.1896  0.1634
   35CHL1  H18A 2544   4.213   1.497   7.868 -0.2007 -0.7165 -0.0383
   35CHL1  H18B 2545   4.072   1.507   7.984  1.7364  1.7316  2.0888
   35CHL1  H18C 2546   4.210   1.439   8.044  1.0390 -0.3879 -0.6338
   35CHL1   C12 2547   4.233   1.208   7.898  0.8136 -0.0524 -0.9388
   35CHL1  H12A 2548   4.289   1.193   7.992 -0.0676 -0.2141 -0.4262
   35CHL1  H12B 2549   4.197   1.106   7.869 -1.9192  0.4868  0.2043
   35CHL1   C11 2550   4.324   1.261   7.783  0.0156  0.2588 -0.4125
   35CHL1  H11A 2551   4.374   1.356   7.810 -1.3761  1.4231 -1.7014
   35CHL1  H11B 2552   4.406   1.190   7.761  1.1292  0.2657  3.1098
   35CHL1    C9 2553   4.245   1.287   7.647  0.9586  0.6573 -0.5126
   35CHL1    H9 2554   4.224   1.182   7.617  1.7518  0.5734 -0.8107
   35CHL1   C10 2555   4.336   1.347   7.538  0.0290  0.1887 -0.2631
   35CHL1   C19 2556   4.413   1.466   7.579 -0.1904 -0.0676  0.2527
   35CHL1  H19A 2557   4.489   1.450   7.658 -0.1244 -1.1020 -0.0136
   35CHL1  H19B 2558   4.465   1.516   7.494 -1.1844  2.5478  1.0812
   35CHL1  H19C 2559   4.341   1.539   7.622 -1.1924 -1.4700  1.0155
   35CHL1    C1 2560   4.435   1.236   7.487 -0.4811  0.7769  0.8970
   35CHL1   H1A 2561   4.511   1.206   7.562 -0.1869 -0.0555  0.2763
   35CHL1   H1B 2562   4.378   1.147   7.454 -0.2986  0.8717  0.2981
   35CHL1    C2 2563   4.503   1.281   7.357  0.3387  0.2863 -0.3589
   35CHL1   H2A 2564   4.586   1.210   7.335 -0.2725 -0.8968  0.9953
   35CHL1   H2B 2565   4.565   1.364   7.397 -0.0549  0.0830  0.7009
   35CHL1   C20 2566   4.031   1.267   8.166 -0.4238  0.4350  0.3177
   35CHL1   H20 2567   4.141   1.276   8.172  0.0129 -1.9902 -2.1046
   35CHL1   C21 2568   3.990   1.130   8.230  0.7782  0.3781 -0.0082
   35CHL1  H21A 2569   3.888   1.093   8.206  0.5307 -0.3318  1.9546
   35CHL1  H21B 2570   3.994   1.137   8.341 -0.7964 -2.9444  0.3828
   35CHL1  H21C 2571   4.060   1.051   8.196 -2.5401 -2.3733 -0.9867
   35CHL1   C22 2572   3.960   1.379   8.239  0.3060  0.0557 -0.2008
   35CHL1  H22A 2573   3.979   1.472   8.181  0.4941 -1.0931 -2.0769
   35CHL1  H22B 2574   3.849   1.372   8.246  0.3047 -0.8976 -0.8785
   35CHL1   C23 2575   3.987   1.397   8.389 -0.2455  0.1703 -0.1712
   35CHL1  H23A 2576   3.946   1.314   8.451 -1.4675  1.3889  0.7343
   35CHL1  H23B 2577   4.098   1.396   8.397 -0.3240 -0.1757  1.1668
   35CHL1   C24 2578   3.929   1.527   8.450 -0.2845  0.0012  0.1537
   35CHL1  H24A 2579   3.965   1.608   8.383  1.5132 -1.9220 -1.3529
   35CHL1  H24B 2580   3.818   1.530   8.441 -0.5074 -0.1563  2.3247
   35CHL1   C25 2581   3.970   1.564   8.597  0.0215  0.5828  0.1576
   35CHL1   H25 2582   3.945   1.485   8.671 -0.3169  0.1477 -0.4137
   35CHL1   C26 2583   4.120   1.570   8.599  0.4890 -0.8560  0.0195
   35CHL1  H26A 2584   4.148   1.616   8.696  0.5102 -0.4249 -0.1901
   35CHL1  H26B 2585   4.183   1.481   8.576 -0.4445 -1.2939 -0.9433
   35CHL1  H26C 2586   4.148   1.648   8.525 -0.6641 -0.3013  0.1466
   35CHL1   C27 2587   3.887   1.689   8.634 -0.4052  0.1055  0.8285
   35CHL1  H27A 2588   3.781   1.663   8.657 -1.1356  1.9306 -0.2777
   35CHL1  H27B 2589   3.871   1.773   8.563  1.2381  2.0789  2.6705
   35CHL1  H27C 2590   3.922   1.732   8.730 -0.6475 -0.1596  1.0388
   36CHL1    C3 2591   4.375   0.849   7.269 -0.7746  0.0297 -1.1732
   36CHL1    H3 2592   4.466   0.904   7.301 -1.5111  0.2678  0.6239
   36CHL1    O3 2593   4.343   0.867   7.133  0.4648  0.3313  0.2379
   36CHL1   H3' 2594   4.253   0.836   7.122  0.3055  1.3042 -1.7052
   36CHL1    C4 2595   4.414   0.703   7.309 -0.4213 -0.1789  0.2944
   36CHL1   H4A 2596   4.335   0.636   7.269  1.4637 -1.1885 -1.9765
   36CHL1   H4B 2597   4.505   0.676   7.252  0.1657  0.8778  0.7036
   36CHL1    C5 2598   4.436   0.690   7.454 -0.1864  0.3924 -0.0992
   36CHL1    C6 2599   4.547   0.641   7.505  0.3036  0.0847  0.1651
   36CHL1    H6 2600   4.629   0.601   7.443  1.2963  2.1901  0.0309
   36CHL1    C7 2601   4.571   0.630   7.653  0.1470  0.4349 -0.4375
   36CHL1   H7A 2602   4.599   0.527   7.685  2.5383  1.0589 -0.3105
   36CHL1   H7B 2603   4.657   0.698   7.669  0.2293  0.4106 -0.7674
   36CHL1    C8 2604   4.461   0.670   7.748 -0.2263  0.0847  0.2259
   36CHL1    H8 2605   4.394   0.582   7.759 -1.5137  1.0268  0.1671
   36CHL1   C14 2606   4.516   0.716   7.884 -0.2580  0.2621  0.6976
   36CHL1   H14 2607   4.565   0.813   7.862  1.5805 -0.5736  0.8894
   36CHL1   C15 2608   4.631   0.641   7.945  0.7568 -0.1341 -0.6242
   36CHL1  H15A 2609   4.627   0.530   7.939 -1.3138 -0.3687  2.5522
   36CHL1  H15B 2610   4.729   0.673   7.903  0.5349 -0.7152 -1.6133
   36CHL1   C16 2611   4.623   0.685   8.098 -0.6127  0.6161  0.6774
   36CHL1  H16A 2612   4.621   0.588   8.153 -1.7372 -1.0288 -2.0279
   36CHL1  H16B 2613   4.714   0.741   8.130 -0.1839 -0.1043  0.7572
   36CHL1   C17 2614   4.497   0.773   8.110 -0.6493 -0.0133 -0.0907
   36CHL1   H17 2615   4.544   0.874   8.098  0.1895 -0.3027  0.6085
   36CHL1   C13 2616   4.408   0.740   7.995 -0.1681 -0.1923  0.3147
   36CHL1   C18 2617   4.335   0.612   8.037 -0.6122 -0.0745  0.4056
   36CHL1  H18A 2618   4.269   0.650   8.117 -0.3101  1.2571  0.0362
   36CHL1  H18B 2619   4.278   0.567   7.953  0.3702  0.4357 -0.5465
   36CHL1  H18C 2620   4.403   0.528   8.067  0.2127  0.0021 -1.1475
   36CHL1   C12 2621   4.316   0.850   7.938  0.1639  0.7390 -0.3508
   36CHL1  H12A 2622   4.228   0.870   8.003 -0.1457  1.7120 -1.0433
   36CHL1  H12B 2623   4.375   0.945   7.933  1.1636  0.1142 -0.6939
   36CHL1   C11 2624   4.271   0.824   7.790 -0.1685  0.5084 -0.0283
   36CHL1  H11A 2625   4.192   0.746   7.796  1.6461 -1.8450 -3.2655
   36CHL1  H11B 2626   4.225   0.921   7.762  0.5977  0.1375 -2.9281
   36CHL1    C9 2627   4.385   0.787   7.690  0.0228  0.1183 -0.0576
   36CHL1    H9 2628   4.457   0.869   7.671  0.5700 -0.0039  1.4333
   36CHL1   C10 2629   4.333   0.753   7.553  0.4879 -0.3623  0.8099
   36CHL1   C19 2630   4.217   0.647   7.552 -0.6321 -0.9594 -0.1490
   36CHL1  H19A 2631   4.131   0.689   7.608  0.6769  0.7837  0.6561
   36CHL1  H19B 2632   4.184   0.637   7.447 -0.5589  2.1524 -0.5438
   36CHL1  H19C 2633   4.247   0.545   7.586  2.9538 -0.4813 -1.4349
   36CHL1    C1 2634   4.282   0.892   7.498  0.4895 -0.0207  0.3270
   36CHL1   H1A 2635   4.192   0.922   7.555 -0.0044 -3.3001  1.5124
   36CHL1   H1B 2636   4.367   0.960   7.518  1.5888 -1.8125  2.1619
   36CHL1    C2 2637   4.256   0.893   7.350 -0.3485  0.3802 -0.0704
   36CHL1   H2A 2638   4.238   0.997   7.316 -1.0736  0.3283  0.1510
   36CHL1   H2B 2639   4.156   0.848   7.334 -0.6875  1.8686 -2.7610
   36CHL1   C20 2640   4.442   0.781   8.251 -0.0447 -0.2391 -0.1859
   36CHL1   H20 2641   4.386   0.688   8.275  0.5892 -0.6074 -0.1129
   36CHL1   C21 2642   4.354   0.907   8.258  0.8056  0.1085 -0.2353
   36CHL1  H21A 2643   4.315   0.905   8.362 -1.3802  1.4461 -0.9590
   36CHL1  H21B 2644   4.258   0.896   8.202  0.6641 -0.2363  0.0748
   36CHL1  H21C 2645   4.421   0.993   8.236  0.8674 -0.2064 -1.3433
   36CHL1   C22 2646   4.555   0.794   8.361 -0.3985  0.1379 -0.1678
   36CHL1  H22A 2647   4.628   0.712   8.346 -0.0547 -0.2775  3.1245
   36CHL1  H22B 2648   4.615   0.885   8.343  1.5655 -0.9837  0.4446
   36CHL1   C23 2649   4.499   0.762   8.496  0.1877  0.3092 -0.4946
   36CHL1  H23A 2650   4.422   0.825   8.546  1.1792  0.3183  1.1004
   36CHL1  H23B 2651   4.457   0.660   8.484  0.2030  0.4026 -1.4440
   36CHL1   C24 2652   4.614   0.756   8.600 -0.3529  0.1464 -0.2932
   36CHL1  H24A 2653   4.699   0.696   8.561 -1.4144 -0.5012 -1.6882
   36CHL1  H24B 2654   4.645   0.859   8.626  0.5416  0.1171 -1.1530
   36CHL1   C25 2655   4.588   0.691   8.741  0.1795  0.2017 -0.2274
   36CHL1   H25 2656   4.544   0.592   8.718  0.6075 -0.1221  0.3348
   36CHL1   C26 2657   4.720   0.668   8.813  0.1610 -0.3036  0.3546
   36CHL1  H26A 2658   4.693   0.652   8.920 -2.0293 -0.8877 -0.2310
   36CHL1  H26B 2659   4.790   0.592   8.773  2.3385  0.2395  2.8349
   36CHL1  H26C 2660   4.782   0.760   8.816 -1.1111  0.6011 -0.0424
   36CHL1   C27 2661   4.478   0.764   8.828  0.0950  0.5122 -0.9627
   36CHL1  H27A 2662   4.502   0.763   8.936 -0.9044 -3.2415 -0.6339
   36CHL1  H27B 2663   4.475   0.870   8.795 -1.9284  1.4176  1.7981
   36CHL1  H27C 2664   4.378   0.720   8.809  0.6103 -1.3920  0.4039
   37CHL1    C3 2665   0.876   3.734   7.216  0.8495 -0.4051  0.8996
   37CHL1    H3 2666   0.890   3.844   7.230  2.1391 -0.3370 -0.6811
   37CHL1    O3 2667   0.884   3.698   7.078 -0.1830  0.1046  0.0193
   37CHL1   H3' 2668   0.830   3.618   7.071 -0.9348  0.5613  0.5170
   37CHL1    C4 2669   0.989   3.654   7.295 -0.1335 -0.4268  0.0771
   37CHL1   H4A 2670   0.977   3.546   7.276  2.4539 -0.8508  0.4297
   37CHL1   H4B 2671   1.088   3.686   7.255  0.0118 -1.3485 -0.3215
   37CHL1    C5 2672   0.980   3.687   7.437 -0.1725 -0.3952 -0.4924
   37CHL1    C6 2673   1.086   3.729   7.506 -0.2010  0.3092 -0.0183
   37CHL1    H6 2674   1.186   3.751   7.467 -0.2961  2.7722  0.9297
   37CHL1    C7 2675   1.089   3.755   7.655 -0.1205  0.3263  0.0960
   37CHL1   H7A 2676   1.185   3.714   7.692  0.2379  0.9293 -0.1528
   37CHL1   H7B 2677   1.091   3.866   7.670 -2.8981  0.4961 -0.2768
   37CHL1    C8 2678   0.969   3.695   7.728 -0.3551 -0.1112 -0.0806
   37CHL1    H8 2679   0.996   3.589   7.745  0.9839  0.2804  0.3424
   37CHL1   C14 2680   0.961   3.761   7.862 -0.3875 -0.6455 -0.4468
   37CHL1   H14 2681   0.950   3.870   7.847 -1.3432 -0.6924 -0.1578
   37CHL1   C15 2682   1.088   3.750   7.948 -0.2586  0.4222 -0.6609
   37CHL1  H15A 2683   1.127   3.646   7.941 -0.9387  0.0534  0.6020
   37CHL1  H15B 2684   1.177   3.812   7.921  2.7703 -3.1510  0.2496
   37CHL1   C16 2685   1.040   3.775   8.093 -0.4387 -0.3763  0.2588
   37CHL1  H16A 2686   1.075   3.693   8.160 -1.6730 -1.5363 -0.4665
   37CHL1  H16B 2687   1.092   3.862   8.137  2.0402 -1.4534 -0.3398
   37CHL1   C17 2688   0.884   3.784   8.082  0.4206  0.4618  0.0132
   37CHL1   H17 2689   0.862   3.892   8.068  1.5760  0.7354  0.1771
   37CHL1   C13 2690   0.846   3.714   7.948 -0.1941  0.5387  0.3750
   37CHL1   C18 2691   0.850   3.558   7.966 -0.7218 -0.4634 -0.0019
   37CHL1  H18A 2692   0.763   3.527   8.028  0.0296 -4.0574 -0.5219
   37CHL1  H18B 2693   0.839   3.504   7.869 -0.4556  1.3187 -1.0777
   37CHL1  H18C 2694   0.945   3.523   8.010  0.6531 -2.1541 -3.9130
   37CHL1   C12 2695   0.711   3.748   7.872  0.8111  0.0136 -0.7874
   37CHL1  H12A 2696   0.630   3.710   7.938  1.6763 -2.0615 -0.8673
   37CHL1  H12B 2697   0.706   3.859   7.863 -2.3433 -0.0099 -0.5231
   37CHL1   C11 2698   0.712   3.682   7.736 -0.1537  0.2278 -0.5335
   37CHL1  H11A 2699   0.720   3.573   7.750 -0.6875  0.0807 -1.3057
   37CHL1  H11B 2700   0.617   3.697   7.680 -0.3637  0.4874 -0.1127
   37CHL1    C9 2701   0.841   3.718   7.647  0.7226 -0.0502 -0.3594
   37CHL1    H9 2702   0.831   3.828   7.631 -0.0244  0.0042  0.3978
   37CHL1   C10 2703   0.848   3.658   7.504  0.1688  0.7485 -0.2117
   37CHL1   C19 2704   0.812   3.506   7.518 -0.1266  0.4141  0.6842
   37CHL1  H19A 2705   0.816   3.458   7.417  0.4567 -1.3252  1.4877
   37CHL1  H19B 2706   0.873   3.444   7.587 -2.3571  0.5643  2.9232
   37CHL1  H19C 2707   0.707   3.506   7.555 -0.1168  2.9874  0.8582
   37CHL1    C1 2708   0.737   3.730   7.419 -0.3515  0.3249  0.2562
   37CHL1   H1A 2709   0.639   3.707   7.465 -0.4126 -2.8083 -1.2073
   37CHL1   H1B 2710   0.765   3.836   7.440  1.9211  0.2719 -1.9579
   37CHL1    C2 2711   0.736   3.704   7.268 -0.3241  0.1409  0.0370
   37CHL1   H2A 2712   0.655   3.763   7.220 -1.8863 -2.6399 -1.0108
   37CHL1   H2B 2713   0.719   3.595   7.257  1.3378 -0.0141 -1.5011
   37CHL1   C20 2714   0.801   3.740   8.211 -0.3914 -0.2595 -0.0004
   37CHL1   H20 2715   0.697   3.715   8.181 -1.4996  2.2192  1.4615
   37CHL1   C21 2716   0.790   3.859   8.305  0.4172 -0.0141 -0.2549
   37CHL1  H21A 2717   0.716   3.836   8.385 -1.4290 -3.0605 -2.6385
   37CHL1  H21B 2718   0.739   3.944   8.256 -0.9328 -0.9461 -0.5424
   37CHL1  H21C 2719   0.892   3.885   8.339 -0.0730 -0.8308  2.0336
   37CHL1   C22 2720   0.862   3.632   8.300 -0.5778  0.0040 -0.3070
   37CHL1  H22A 2721   0.888   3.544   8.237 -1.5951  0.0745 -0.8386
   37CHL1  H22B 2722   0.960   3.659   8.345  0.7334  0.5676 -3.2743
   37CHL1   C23 2723   0.759   3.574   8.400 -0.6580 -0.4116 -0.0514
   37CHL1  H23A 2724   0.726   3.645   8.480 -1.6853 -0.3547 -0.5065
   37CHL1  H23B 2725   0.663   3.548   8.351 -0.1531 -1.6749 -0.3927
   37CHL1   C24 2726   0.810   3.439   8.454  0.7408  0.8404 -0.5636
   37CHL1  H24A 2727   0.841   3.379   8.366 -0.1571 -0.4023 -0.0730
   37CHL1  H24B 2728   0.902   3.439   8.516 -0.4808 -1.2476  1.4168
   37CHL1   C25 2729   0.688   3.369   8.526 -0.5546  0.0507  0.2661
   37CHL1   H25 2730   0.599   3.404   8.469  2.0775  3.8035 -2.0474
   37CHL1   C26 2731   0.699   3.215   8.508  0.3541 -0.1309  0.4736
   37CHL1  H26A 2732   0.801   3.185   8.542  0.1333 -1.1418  0.2692
   37CHL1  H26B 2733   0.619   3.169   8.570  0.6832  0.1308  1.1077
   37CHL1  H26C 2734   0.677   3.180   8.405 -1.1773  0.1503  0.6728
   37CHL1   C27 2735   0.673   3.419   8.671  0.2991  0.0379  0.7651
   37CHL1  H27A 2736   0.591   3.358   8.715  0.1101  0.0300  0.4052
   37CHL1  H27B 2737   0.769   3.425   8.727 -0.5075  0.8177  2.1271
   37CHL1  H27C 2738   0.632   3.522   8.667 -0.7970 -0.2977  2.2977
   38CHL1    C3 2739   5.028   4.438   6.861 -0.6907  0.1192  0.1237
   38CHL1    H3 2740   5.116   4.378   6.893  1.1655  1.4948 -2.1024
   38CHL1    O3 2741   5.048   4.466   6.718  0.0887 -0.5104 -0.3752
   38CHL1   H3' 2742   5.142   4.481   6.708  0.1464 -1.3388 -1.2099
   38CHL1    C4 2743   4.893   4.370   6.894  0.0377 -0.2152 -0.7385
   38CHL1   H4A 2744   4.813   4.426   6.841 -1.8913 -1.3216  0.8503
   38CHL1   H4B 2745   4.892   4.271   6.843  0.7263  0.0904 -1.3672
   38CHL1    C5 2746   4.856   4.367   7.041  0.2381  0.0024 -0.5437
   38CHL1    C6 2747   4.823   4.256   7.108 -0.0869 -0.5045 -0.1992
   38CHL1    H6 2748   4.812   4.163   7.051 -1.6031 -0.3102 -0.2520
   38CHL1    C7 2749   4.795   4.246   7.254 -0.7101  0.1895  0.8481
   38CHL1   H7A 2750   4.703   4.185   7.272  0.1267 -1.1845  0.6428
   38CHL1   H7B 2751   4.881   4.195   7.303 -0.1715 -0.4276 -0.6616
   38CHL1    C8 2752   4.770   4.381   7.323  0.2315 -0.7667  0.6472
   38CHL1    H8 2753   4.666   4.414   7.302  0.0411 -0.8978  1.3486
   38CHL1   C14 2754   4.794   4.368   7.479  0.0515 -0.3772  0.3808
   38CHL1   H14 2755   4.904   4.368   7.493  0.4314  0.2506 -2.1010
   38CHL1   C15 2756   4.728   4.250   7.552  0.1928  1.0766 -0.4391
   38CHL1  H15A 2757   4.628   4.242   7.504  0.4912  1.3852 -1.1187
   38CHL1  H15B 2758   4.777   4.151   7.537  1.2752  1.9328 -3.1623
   38CHL1   C16 2759   4.701   4.299   7.693 -0.2631  0.1557  0.6554
   38CHL1  H16A 2760   4.591   4.301   7.712 -0.3693  0.7655  0.0120
   38CHL1  H16B 2761   4.748   4.236   7.771 -0.9408  2.5477  3.1392
   38CHL1   C17 2762   4.762   4.440   7.700  0.2140  0.8863  1.1541
   38CHL1   H17 2763   4.872   4.446   7.718  0.3893 -0.0910  0.4620
   38CHL1   C13 2764   4.746   4.497   7.554  0.2384  0.1897 -0.3153
   38CHL1   C18 2765   4.599   4.535   7.522 -0.3400  0.1030 -0.5009
   38CHL1  H18A 2766   4.563   4.607   7.598 -0.4931  1.7740 -2.0896
   38CHL1  H18B 2767   4.585   4.591   7.427  3.2122 -0.5483 -1.5607
   38CHL1  H18C 2768   4.525   4.455   7.502 -0.4789 -0.1296  0.8714
   38CHL1   C12 2769   4.846   4.609   7.513  0.4756  0.5494 -0.1073
   38CHL1  H12A 2770   4.824   4.702   7.571 -1.0445 -0.0869  0.3723
   38CHL1  H12B 2771   4.952   4.587   7.539  1.2512 -1.1512 -3.9364
   38CHL1   C11 2772   4.857   4.625   7.355 -0.1738 -0.3526 -0.2085
   38CHL1  H11A 2773   4.758   4.664   7.324 -0.2330  0.7521  1.2233
   38CHL1  H11B 2774   4.931   4.702   7.327 -0.4984  0.2851  0.6261
   38CHL1    C9 2775   4.871   4.487   7.276 -0.1674  0.6060  0.0390
   38CHL1    H9 2776   4.969   4.455   7.316 -1.2529  0.6347  2.9962
   38CHL1   C10 2777   4.872   4.495   7.126  0.5715 -0.1112  0.1976
   38CHL1   C19 2778   4.753   4.580   7.073  0.4736 -0.3443 -0.2879
   38CHL1  H19A 2779   4.650   4.552   7.102 -0.5811  0.6931 -2.7751
   38CHL1  H19B 2780   4.768   4.688   7.096  0.8323 -0.4719  0.0967
   38CHL1  H19C 2781   4.752   4.584   6.962 -2.3859 -2.1899 -0.4242
   38CHL1    C1 2782   5.010   4.557   7.079  0.8234 -0.5392 -0.2794
   38CHL1   H1A 2783   5.034   4.658   7.120 -1.3798 -0.0199 -0.1406
   38CHL1   H1B 2784   5.087   4.485   7.114  0.1427 -0.9293  0.4530
   38CHL1    C2 2785   5.036   4.570   6.936 -0.9505 -0.6797 -0.2051
   38CHL1   H2A 2786   5.135   4.618   6.921 -1.3629  0.3843  0.3862
   38CHL1   H2B 2787   4.965   4.631   6.877 -2.6427 -1.3611  1.0628
   38CHL1   C20 2788   4.701   4.512   7.816  0.6380  0.3283 -0.1483
   38CHL1   H20 2789   4.592   4.508   7.796  0.4050 -0.6696  1.2022
   38CHL1   C21 2790   4.731   4.660   7.820 -0.0753 -0.6182  0.6594
   38CHL1  H21A 2791   4.841   4.680   7.816 -0.0779 -0.6205  0.5869
   38CHL1  H21B 2792   4.702   4.707   7.916 -1.3804  1.2124 -0.5809
   38CHL1  H21C 2793   4.691   4.711   7.730  0.8011 -0.4470  0.3517
   38CHL1   C22 2794   4.722   4.450   7.950 -0.4028 -0.7012  0.0528
   38CHL1  H22A 2795   4.715   4.339   7.953  1.4243 -0.8441  0.5566
   38CHL1  H22B 2796   4.824   4.473   7.989  0.4369 -1.1178 -1.7942
   38CHL1   C23 2797   4.615   4.498   8.051 -0.3197 -0.0239  0.6642
   38CHL1  H23A 2798   4.617   4.606   8.078 -2.6718  0.4295 -0.7310
   38CHL1  H23B 2799   4.515   4.483   8.005 -0.1636  1.4525 -0.1851
   38CHL1   C24 2800   4.603   4.419   8.182 -1.0899 -0.6317  0.9410
   38CHL1  H24A 2801   4.520   4.468   8.237 -2.9398  0.1305 -2.2487
   38CHL1  H24B 2802   4.582   4.316   8.147  0.6615 -1.1505  1.3199
   38CHL1   C25 2803   4.726   4.423   8.267 -0.4835  0.8619  0.1441
   38CHL1   H25 2804   4.812   4.391   8.204 -1.8254 -1.8199 -0.4420
   38CHL1   C26 2805   4.751   4.563   8.323  0.6248  0.4690 -0.2138
   38CHL1  H26A 2806   4.672   4.598   8.392  1.6221  3.3471 -0.4139
   38CHL1  H26B 2807   4.841   4.561   8.387  0.1039  1.1264  0.5567
   38CHL1  H26C 2808   4.764   4.645   8.249  2.2064 -0.2019 -0.7270
   38CHL1   C27 2809   4.726   4.317   8.384 -0.1536 -0.4627 -0.3220
   38CHL1  H27A 2810   4.657   4.335   8.468  0.3566 -1.1117  0.2421
   38CHL1  H27B 2811   4.716   4.214   8.345 -0.3093 -0.7395  0.4426
   38CHL1  H27C 2812   4.826   4.323   8.433 -1.7389 -0.5569  3.1628
   39CHL1    C3 2813   5.539   2.419   6.905  0.3797  0.2664  0.3519
   39CHL1    H3 2814   5.622   2.484   6.942  0.8744  0.4109 -0.9450
   39CHL1    O3 2815   5.567   2.389   6.767  0.0838 -0.1446  0.1137
   39CHL1   H3' 2816   5.589   2.479   6.745 -0.9881 -0.3740 -2.1510
   39CHL1    C4 2817   5.537   2.290   6.991 -0.1036 -0.5202 -0.3140
   39CHL1   H4A 2818   5.456   2.225   6.951  0.4365 -0.3222 -1.8070
   39CHL1   H4B 2819   5.634   2.238   6.977  0.4490  0.6444 -0.9932
   39CHL1    C5 2820   5.509   2.327   7.132  0.0329  0.6134 -0.0555
   39CHL1    C6 2821   5.598   2.289   7.226 -0.4192  0.0861 -0.8174
   39CHL1    H6 2822   5.683   2.224   7.201 -2.3269 -2.5269 -0.9103
   39CHL1    C7 2823   5.562   2.314   7.369  0.4552  0.2770 -0.4416
   39CHL1   H7A 2824   5.578   2.218   7.421  0.0363  0.4941  0.0997
   39CHL1   H7B 2825   5.636   2.377   7.423 -0.2515  0.2707  0.5579
   39CHL1    C8 2826   5.419   2.352   7.409 -0.0741  0.3368  0.0973
   39CHL1    H8 2827   5.368   2.255   7.391  1.9315 -0.7854  0.1875
   39CHL1   C14 2828   5.403   2.391   7.555  0.1846  0.8869 -0.7269
   39CHL1   H14 2829   5.447   2.492   7.565 -0.9065  1.8206 -3.9965
   39CHL1   C15 2830   5.464   2.309   7.670  0.0152  0.0453  0.2702
   39CHL1  H15A 2831   5.462   2.198   7.662  4.6546 -0.2874  0.8453
   39CHL1  H15B 2832   5.575   2.323   7.675  0.4742 -2.1766 -1.7877
   39CHL1   C16 2833   5.402   2.362   7.797  0.0515 -0.9227 -0.2172
   39CHL1  H16A 2834   5.357   2.281   7.858  0.9568 -1.4461 -0.2296
   39CHL1  H16B 2835   5.475   2.425   7.851  1.2631 -0.5629 -2.1853
   39CHL1   C17 2836   5.273   2.447   7.746 -0.2865 -0.2251  0.0406
   39CHL1   H17 2837   5.308   2.552   7.749  2.6721 -0.9952 -2.3439
   39CHL1   C13 2838   5.259   2.419   7.597  0.1524 -0.7437  0.6172
   39CHL1   C18 2839   5.172   2.292   7.571 -0.2287  0.7746  0.2286
   39CHL1  H18A 2840   5.209   2.192   7.603 -2.4581  0.0452  0.6910
   39CHL1  H18B 2841   5.070   2.315   7.607 -0.2510  0.0003  0.7035
   39CHL1  H18C 2842   5.148   2.270   7.465  2.9015 -3.5148  0.1016
   39CHL1   C12 2843   5.200   2.537   7.504 -0.0343 -0.4761 -0.2721
   39CHL1  H12A 2844   5.090   2.550   7.515  0.0319 -0.0133 -0.1507
   39CHL1  H12B 2845   5.252   2.632   7.528 -0.6740 -0.2935  0.4204
   39CHL1   C11 2846   5.220   2.508   7.361 -0.4600  0.0438  0.3554
   39CHL1  H11A 2847   5.151   2.421   7.346 -0.7828  0.1979  0.8957
   39CHL1  H11B 2848   5.189   2.590   7.294 -1.0436 -1.6222 -1.5173
   39CHL1    C9 2849   5.362   2.450   7.312 -0.6228  0.5287  0.2339
   39CHL1    H9 2850   5.423   2.544   7.316 -0.9938  0.7805  0.0010
   39CHL1   C10 2851   5.377   2.400   7.165 -0.0637 -0.9204  0.4503
   39CHL1   C19 2852   5.260   2.304   7.145  0.0246  0.9726  0.2355
   39CHL1  H19A 2853   5.270   2.254   7.046  0.9811 -0.9501  1.2606
   39CHL1  H19B 2854   5.260   2.217   7.214 -0.6016 -0.3360 -1.3559
   39CHL1  H19C 2855   5.160   2.353   7.143 -1.1398 -1.2641 -0.2866
   39CHL1    C1 2856   5.370   2.526   7.066 -0.2625  0.3345 -0.1915
   39CHL1   H1A 2857   5.272   2.576   7.061  0.2428  1.3085 -0.5336
   39CHL1   H1B 2858   5.442   2.601   7.105 -1.9417  1.6254  0.5084
   39CHL1    C2 2859   5.408   2.494   6.917  0.3301  0.5006 -0.0401
   39CHL1   H2A 2860   5.422   2.593   6.868  3.0012  2.1461  3.5475
   39CHL1   H2B 2861   5.320   2.445   6.871 -0.8730  0.7579  1.9016
   39CHL1   C20 2862   5.152   2.441   7.842 -0.4322  0.7084  0.0256
   39CHL1   H20 2863   5.110   2.340   7.861 -1.2056  0.9237 -0.4743
   39CHL1   C21 2864   5.035   2.514   7.778 -0.0689 -0.1261  0.3527
   39CHL1  H21A 2865   4.981   2.460   7.698  1.6080 -1.4421  0.0548
   39CHL1  H21B 2866   5.068   2.612   7.737  0.8940 -0.4668  0.2888
   39CHL1  H21C 2867   4.958   2.546   7.853  0.4513  2.2931 -0.0514
   39CHL1   C22 2868   5.189   2.507   7.977 -0.0124  0.0150 -0.1908
   39CHL1  H22A 2869   5.296   2.489   7.997  0.0143  1.9508  1.7644
   39CHL1  H22B 2870   5.184   2.617   7.963 -0.9115  0.3488  2.1981
   39CHL1   C23 2871   5.084   2.469   8.086 -0.3481  0.7200 -0.9068
   39CHL1  H23A 2872   4.981   2.499   8.058 -1.1989 -1.1661  0.0189
   39CHL1  H23B 2873   5.076   2.359   8.095 -1.1159  0.6499 -2.2677
   39CHL1   C24 2874   5.115   2.541   8.216  0.1664 -0.0484  0.1071
   39CHL1  H24A 2875   5.221   2.526   8.246  0.4328  1.2084 -0.1479
   39CHL1  H24B 2876   5.109   2.650   8.193  2.0854 -0.5048 -3.1306
   39CHL1   C25 2877   5.017   2.485   8.325  0.1313  0.5365 -0.3053
   39CHL1   H25 2878   4.921   2.477   8.270  0.1796  0.2323 -0.3477
   39CHL1   C26 2879   5.056   2.347   8.380  0.4378  0.3186 -0.4748
   39CHL1  H26A 2880   4.969   2.292   8.422  1.2334  0.2260  1.1406
   39CHL1  H26B 2881   5.091   2.293   8.290 -2.7985 -2.0192 -0.5293
   39CHL1  H26C 2882   5.132   2.359   8.461 -0.7875 -1.2028  0.9878
   39CHL1   C27 2883   5.004   2.593   8.433  0.3750 -0.3997  0.7443
   39CHL1  H27A 2884   4.946   2.675   8.387  0.0300 -0.5986  0.8209
   39CHL1  H27B 2885   4.944   2.538   8.509 -3.7125  0.8331 -1.2799
   39CHL1  H27C 2886   5.100   2.624   8.479  1.0375  0.8516 -1.3497
   40CHL1    C3 2887   6.666   1.758   7.062  0.7499 -0.7643 -0.0203
   40CHL1    H3 2888   6.556   1.767   7.069  0.7471  1.0772 -1.5572
   40CHL1    O3 2889   6.708   1.747   6.929 -0.0803  0.3723 -0.8748
   40CHL1   H3' 2890   6.794   1.707   6.944 -0.3260  0.7179  2.0162
   40CHL1    C4 2891   6.720   1.887   7.120 -0.2776  0.1493 -0.3125
   40CHL1   H4A 2892   6.825   1.895   7.083  0.0900 -0.1072  0.6641
   40CHL1   H4B 2893   6.667   1.972   7.072 -1.0080 -0.3254 -0.3670
   40CHL1    C5 2894   6.698   1.901   7.268  0.2079 -0.3404 -0.7233
   40CHL1    C6 2895   6.637   2.000   7.327 -0.0273 -0.1192  0.4801
   40CHL1    H6 2896   6.581   2.073   7.266  0.3643  0.3657  0.6876
   40CHL1    C7 2897   6.628   2.025   7.470 -0.3779 -0.1871  0.6166
   40CHL1   H7A 2898   6.652   2.133   7.481 -1.2437  0.1450 -0.6046
   40CHL1   H7B 2899   6.522   2.006   7.496 -0.8690 -0.0112 -1.1510
   40CHL1    C8 2900   6.726   1.937   7.548 -0.2976 -0.3812  0.6843
   40CHL1    H8 2901   6.826   1.985   7.541 -0.6311  0.2043 -0.3158
   40CHL1   C14 2902   6.679   1.938   7.699 -0.1123  0.2064 -0.1983
   40CHL1   H14 2903   6.572   1.910   7.689 -0.1069 -0.5935  1.6549
   40CHL1   C15 2904   6.656   2.075   7.773 -0.0167 -0.2638 -0.1042
   40CHL1  H15A 2905   6.738   2.150   7.761  0.8368 -0.7927  2.0771
   40CHL1  H15B 2906   6.563   2.132   7.750 -1.2528 -2.0388  0.3444
   40CHL1   C16 2907   6.660   2.021   7.922  0.5570 -0.4464 -0.2096
   40CHL1  H16A 2908   6.745   2.068   7.977  0.0844  1.9466 -1.4042
   40CHL1  H16B 2909   6.570   2.049   7.980  0.7543 -1.0848  0.4178
   40CHL1   C17 2910   6.667   1.865   7.922  0.1404  0.7388  0.4096
   40CHL1   H17 2911   6.575   1.812   7.892 -0.9496  1.1296  2.8247
   40CHL1   C13 2912   6.744   1.839   7.795 -1.0220 -0.0329  0.7512
   40CHL1   C18 2913   6.892   1.883   7.816 -0.3953 -0.0087 -0.2154
   40CHL1  H18A 2914   6.954   1.809   7.871 -0.3023  0.4974  0.3742
   40CHL1  H18B 2915   6.941   1.888   7.716  0.3119 -2.0525 -0.0235
   40CHL1  H18C 2916   6.905   1.979   7.871 -1.3269  0.5055 -0.8624
   40CHL1   C12 2917   6.745   1.693   7.733  0.1821  0.7057  0.1473
   40CHL1  H12A 2918   6.817   1.630   7.790 -0.6680 -0.7417 -0.3290
   40CHL1  H12B 2919   6.643   1.654   7.753 -1.1751  2.4549 -2.6815
   40CHL1   C11 2920   6.790   1.692   7.591 -0.0288 -0.1562 -0.2939
   40CHL1  H11A 2921   6.898   1.717   7.594  0.0203 -0.3969  1.5388
   40CHL1  H11B 2922   6.772   1.591   7.550  1.6968  0.5389 -2.9990
   40CHL1    C9 2923   6.718   1.795   7.498  0.9275 -0.1122  0.2791
   40CHL1    H9 2924   6.611   1.769   7.505  1.0015 -0.3232  0.6262
   40CHL1   C10 2925   6.754   1.787   7.350 -0.1051  0.2094  0.0112
   40CHL1   C19 2926   6.908   1.774   7.347 -0.4062 -0.0329 -0.8193
   40CHL1  H19A 2927   6.948   1.672   7.369  0.7672  0.9048  1.8065
   40CHL1  H19B 2928   6.957   1.798   7.251  2.3366  3.5166  1.2325
   40CHL1  H19C 2929   6.958   1.845   7.417 -0.6911 -0.2014 -0.4367
   40CHL1    C1 2930   6.698   1.654   7.287  0.0310 -0.4388 -0.1968
   40CHL1   H1A 2931   6.716   1.561   7.346 -1.3739  0.9905  2.7347
   40CHL1   H1B 2932   6.591   1.656   7.319  0.7021  0.5870  2.2003
   40CHL1    C2 2933   6.728   1.642   7.138 -0.0809  0.0633 -0.7825
   40CHL1   H2A 2934   6.702   1.540   7.102 -0.9003 -0.5211  1.3421
   40CHL1   H2B 2935   6.839   1.647   7.137 -0.1036  3.7972  0.2289
   40CHL1   C20 2936   6.706   1.797   8.054 -0.5953 -0.2081 -0.6671
   40CHL1   H20 2937   6.814   1.773   8.051 -1.2860 -4.5297  1.1892
   40CHL1   C21 2938   6.634   1.662   8.071  0.3951 -0.6215  0.1608
   40CHL1  H21A 2939   6.660   1.604   8.162 -0.1665 -1.2284 -0.0536
   40CHL1  H21B 2940   6.661   1.596   7.986 -1.4200 -1.9972  0.5887
   40CHL1  H21C 2941   6.525   1.681   8.061  0.3626 -0.0040  1.4580
   40CHL1   C22 2942   6.681   1.890   8.173 -0.2476  0.4471  0.0224
   40CHL1  H22A 2943   6.751   1.974   8.157 -1.1935  1.8388  2.5414
   40CHL1  H22B 2944   6.586   1.948   8.178 -0.5145  0.1579 -1.2975
   40CHL1   C23 2945   6.732   1.832   8.309 -0.3028 -0.1330 -0.4665
   40CHL1  H23A 2946   6.661   1.758   8.352 -0.1642  0.2939  0.5439
   40CHL1  H23B 2947   6.831   1.784   8.296 -0.0872 -0.0357  0.7258
   40CHL1   C24 2948   6.750   1.938   8.420  0.1831  0.0786  0.1985
   40CHL1  H24A 2949   6.828   2.011   8.390 -1.1073  0.7243 -1.7420
   40CHL1  H24B 2950   6.663   2.007   8.426  1.6835  1.9720  1.7217
   40CHL1   C25 2951   6.795   1.888   8.557 -0.6457  0.3241 -0.5989
   40CHL1   H25 2952   6.723   1.805   8.574 -0.4304  0.3589  0.6280
   40CHL1   C26 2953   6.942   1.831   8.554  0.0458 -0.0502 -0.1151
   40CHL1  H26A 2954   7.017   1.901   8.510  1.3759  0.3752  2.6152
   40CHL1  H26B 2955   6.987   1.804   8.651 -0.0871  0.7810  0.1882
   40CHL1  H26C 2956   6.935   1.735   8.499 -0.7908  0.2553 -0.5761
   40CHL1   C27 2957   6.776   2.004   8.656  0.5137 -0.2499 -0.3569
   40CHL1  H27A 2958   6.691   2.075   8.646  1.2147  0.8426  1.0576
   40CHL1  H27B 2959   6.766   1.971   8.761  1.8327  0.1561 -0.0908
   40CHL1  H27C 2960   6.866   2.069   8.657  0.0715  0.3764  0.6811
   41CHL1    C3 2961   1.332   2.750   7.125 -0.2888  0.7348 -0.4807
   41CHL1    H3 2962   1.408   2.831   7.123  2.7673 -1.9616 -1.0106
   41CHL1    O3 2963   1.290   2.722   6.996 -0.3351  0.4061  0.2615
   41CHL1   H3' 2964   1.365   2.681   6.950 -1.6763 -0.8252 -0.9466
   41CHL1    C4 2965   1.396   2.627   7.188  0.6992 -0.9393  0.4819
   41CHL1   H4A 2966   1.330   2.538   7.177  0.8501 -1.0750  0.6652
   41CHL1   H4B 2967   1.486   2.613   7.124 -0.6894  4.1719 -3.2144
   41CHL1    C5 2968   1.435   2.651   7.332 -0.0754 -0.2556  0.6917
   41CHL1    C6 2969   1.561   2.637   7.376  0.0321 -0.0622 -0.0454
   41CHL1    H6 2970   1.639   2.623   7.299  0.8242  0.5561  0.6226
   41CHL1    C7 2971   1.593   2.637   7.523 -0.8141  0.7108 -0.6751
   41CHL1   H7A 2972   1.657   2.549   7.540  0.4379  1.1201 -2.9077
   41CHL1   H7B 2973   1.660   2.718   7.559 -0.4112  0.2987 -0.4931
   41CHL1    C8 2974   1.468   2.621   7.625 -0.0070 -0.0386  0.3387
   41CHL1    H8 2975   1.442   2.514   7.637  0.2252 -0.0355  0.8948
   41CHL1   C14 2976   1.511   2.661   7.759 -0.0574  0.5992 -0.2165
   41CHL1   H14 2977   1.537   2.769   7.759 -0.7026  0.7660  0.5199
   41CHL1   C15 2978   1.634   2.591   7.815 -0.4655  0.0590  0.0549
   41CHL1  H15A 2979   1.636   2.484   7.786  0.7873 -0.5710  2.2168
   41CHL1  H15B 2980   1.729   2.640   7.784 -0.6058 -0.0856 -0.6210
   41CHL1   C16 2981   1.627   2.610   7.966  0.5032  0.0173  0.3849
   41CHL1  H16A 2982   1.621   2.510   8.013 -1.8703 -0.4733 -0.8294
   41CHL1  H16B 2983   1.713   2.662   8.014 -2.3548  1.3590  4.5871
   41CHL1   C17 2984   1.496   2.687   7.989 -0.0266  0.1199 -0.5536
   41CHL1   H17 2985   1.507   2.797   7.980  0.6674  0.5074  3.4304
   41CHL1   C13 2986   1.404   2.646   7.869 -0.1420 -0.0519 -0.6399
   41CHL1   C18 2987   1.353   2.505   7.898  0.6331 -0.1278 -0.1913
   41CHL1  H18A 2988   1.301   2.463   7.809  0.6380 -1.2895  0.3369
   41CHL1  H18B 2989   1.432   2.433   7.929 -0.2342 -0.0579  2.4226
   41CHL1  H18C 2990   1.284   2.513   7.984 -1.1261  2.6944 -1.7319
   41CHL1   C12 2991   1.287   2.746   7.828 -0.5693  0.5388 -0.6774
   41CHL1  H12A 2992   1.201   2.752   7.899  0.9185 -1.6057  1.4207
   41CHL1  H12B 2993   1.332   2.847   7.839  1.1367 -0.4056  1.6404
   41CHL1   C11 2994   1.241   2.724   7.680  0.0197 -1.0424  0.2590
   41CHL1  H11A 2995   1.181   2.631   7.670  0.3280 -1.3487  1.1565
   41CHL1  H11B 2996   1.182   2.814   7.652 -0.2797 -0.7629  1.7177
   41CHL1    C9 2997   1.355   2.715   7.581  0.1679  0.5928  0.3442
   41CHL1    H9 2998   1.393   2.820   7.579  0.4141  0.5230  0.9876
   41CHL1   C10 2999   1.321   2.679   7.431 -0.1490  0.3412 -0.0700
   41CHL1   C19 3000   1.233   2.553   7.430  0.4333 -0.1742 -0.3327
   41CHL1  H19A 3001   1.279   2.476   7.495  0.0928 -1.1076 -1.1648
   41CHL1  H19B 3002   1.133   2.574   7.474  0.2575 -0.0905 -0.7641
   41CHL1  H19C 3003   1.203   2.514   7.330 -0.4487  0.7993 -0.4546
   41CHL1    C1 3004   1.241   2.795   7.367 -0.2960  0.4019 -0.1222
   41CHL1   H1A 3005   1.138   2.787   7.409 -0.2846 -1.3319 -0.3379
   41CHL1   H1B 3006   1.276   2.900   7.377 -3.0032  1.7304 -2.9140
   41CHL1    C2 3007   1.206   2.779   7.217  0.8926  0.2738  0.4341
   41CHL1   H2A 3008   1.146   2.863   7.175 -0.5790 -0.9786 -0.0371
   41CHL1   H2B 3009   1.132   2.697   7.210  0.4287  0.7921 -1.3736
   41CHL1   C20 3010   1.448   2.674   8.136 -0.0300  0.0165 -0.0792
   41CHL1   H20 3011   1.448   2.566   8.164  3.0651 -0.1038 -0.1574
   41CHL1   C21 3012   1.318   2.752   8.160 -0.5838  0.9225  0.0984
   41CHL1  H21A 3013   1.281   2.742   8.264 -1.4665 -0.9350 -0.3431
   41CHL1  H21B 3014   1.241   2.708   8.092  1.3633 -1.9822 -0.4358
   41CHL1  H21C 3015   1.342   2.858   8.138  1.9685  0.0649 -1.7514
   41CHL1   C22 3016   1.551   2.733   8.238  0.3274  0.0425 -0.3540
   41CHL1  H22A 3017   1.656   2.705   8.215  0.1015 -0.9769 -0.2049
   41CHL1  H22B 3018   1.540   2.843   8.231  2.2502  0.3772  1.0165
   41CHL1   C23 3019   1.529   2.691   8.378 -0.1352 -0.4087  0.2823
   41CHL1  H23A 3020   1.421   2.691   8.407  0.4750 -2.0358  2.9138
   41CHL1  H23B 3021   1.557   2.585   8.392 -0.0017 -0.3002  0.8708
   41CHL1   C24 3022   1.601   2.781   8.476 -0.3008 -0.5306 -0.4124
   41CHL1  H24A 3023   1.701   2.776   8.429 -2.0313  0.8390 -4.6959
   41CHL1  H24B 3024   1.566   2.886   8.484  1.9253  0.2445  0.0015
   41CHL1   C25 3025   1.637   2.716   8.610  0.1010  0.8290 -0.1104
   41CHL1   H25 3026   1.695   2.785   8.674 -1.5463  0.4350  1.9361
   41CHL1   C26 3027   1.516   2.673   8.693  0.4972  0.1276  0.0912
   41CHL1  H26A 3028   1.458   2.599   8.635 -0.0592  0.3555  0.3542
   41CHL1  H26B 3029   1.544   2.628   8.790 -1.0264  1.0745  1.0103
   41CHL1  H26C 3030   1.449   2.759   8.711 -0.7821 -0.8934  0.3484
   41CHL1   C27 3031   1.732   2.598   8.604  0.2014  0.5139 -0.1205
   41CHL1  H27A 3032   1.819   2.631   8.543 -0.9432  1.9590 -1.0502
   41CHL1  H27B 3033   1.763   2.571   8.707 -0.4838  1.6919  0.4092
   41CHL1  H27C 3034   1.693   2.501   8.564  0.1182  0.4450  0.1254
   42CHL1    C3 3035   2.692   0.328   7.067 -0.2045 -0.4430  0.3049
   42CHL1    H3 3036   2.652   0.431   7.080  0.2808 -0.2172  0.0592
   42CHL1    O3 3037   2.691   0.301   6.922 -0.4808 -0.4834  0.0380
   42CHL1   H3' 3038   2.607   0.331   6.887 -0.3094 -0.2251 -0.1638
   42CHL1    C4 3039   2.835   0.340   7.103 -0.2929  0.2895  0.0011
   42CHL1   H4A 3040   2.888   0.245   7.078  0.5466  0.0717  2.3435
   42CHL1   H4B 3041   2.888   0.420   7.046 -0.4871  0.7612  0.4705
   42CHL1    C5 3042   2.846   0.362   7.255 -0.2033 -1.1794  0.5806
   42CHL1    C6 3043   2.909   0.473   7.309  0.8513  0.5786  0.1742
   42CHL1    H6 3044   2.948   0.555   7.246 -0.0401 -0.1507 -1.3838
   42CHL1    C7 3045   2.923   0.485   7.457 -1.0430  0.7963  0.0094
   42CHL1   H7A 3046   3.029   0.510   7.478 -0.4371  1.1783 -3.0544
   42CHL1   H7B 3047   2.873   0.579   7.488  1.1271  2.2719 -0.7199
   42CHL1    C8 3048   2.886   0.361   7.541  0.5883  0.0959  0.8007
   42CHL1    H8 3049   2.980   0.303   7.534 -0.4583 -1.4952 -0.7416
   42CHL1   C14 3050   2.865   0.400   7.687  0.1850 -0.0572  0.8538
   42CHL1   H14 3051   2.771   0.459   7.693 -0.3140 -0.9139  1.6623
   42CHL1   C15 3052   2.972   0.477   7.769  0.6898 -0.3556 -0.0053
   42CHL1  H15A 3053   3.069   0.425   7.754 -0.1234 -2.0249  0.3037
   42CHL1  H15B 3054   2.972   0.587   7.751  1.4071 -0.2711  0.4776
   42CHL1   C16 3055   2.936   0.444   7.918 -0.0916  0.2907 -0.1732
   42CHL1  H16A 3056   3.027   0.409   7.972 -0.4155 -0.8963 -0.3840
   42CHL1  H16B 3057   2.907   0.532   7.980 -0.8018 -0.7456  1.0229
   42CHL1   C17 3058   2.820   0.338   7.913  0.1423 -0.2576 -0.0263
   42CHL1   H17 3059   2.720   0.386   7.902 -0.5438 -2.0358 -2.5974
   42CHL1   C13 3060   2.831   0.279   7.771  0.1858  0.3208 -0.9088
   42CHL1   C18 3061   2.943   0.172   7.772  0.5008  0.3748  0.1299
   42CHL1  H18A 3062   2.912   0.078   7.823  0.0915  0.0448 -0.7045
   42CHL1  H18B 3063   2.973   0.142   7.669  0.1564  0.9852 -0.1590
   42CHL1  H18C 3064   3.044   0.199   7.811  0.3776  1.4923 -0.2736
   42CHL1   C12 3065   2.701   0.210   7.731  0.0388 -0.0927  0.1744
   42CHL1  H12A 3066   2.676   0.120   7.792  0.7052 -1.2198 -1.1621
   42CHL1  H12B 3067   2.631   0.296   7.734  2.3917  1.9854 -0.6230
   42CHL1   C11 3068   2.711   0.166   7.581  0.0048  0.6382  0.4248
   42CHL1  H11A 3069   2.781   0.080   7.584 -1.1034 -0.2683  1.4662
   42CHL1  H11B 3070   2.614   0.130   7.541  0.1314 -1.1551  1.5795
   42CHL1    C9 3071   2.771   0.282   7.488  1.0164 -0.0108  0.0356
   42CHL1    H9 3072   2.687   0.355   7.486  2.0880  1.2380 -0.2839
   42CHL1   C10 3073   2.782   0.254   7.341  0.1566 -0.0116 -0.2925
   42CHL1   C19 3074   2.863   0.128   7.323 -0.1269 -0.0078 -0.6182
   42CHL1  H19A 3075   2.818   0.045   7.381 -2.7967  1.1296 -0.9477
   42CHL1  H19B 3076   2.859   0.088   7.220 -3.4189 -0.3022 -0.4725
   42CHL1  H19C 3077   2.970   0.141   7.350  0.0540 -1.8035 -0.3609
   42CHL1    C1 3078   2.633   0.233   7.289 -0.8978  0.0239 -0.4999
   42CHL1   H1A 3079   2.583   0.147   7.337  0.1469  0.8672  2.2727
   42CHL1   H1B 3080   2.588   0.332   7.310 -0.5906  0.3674 -1.3844
   42CHL1    C2 3081   2.619   0.218   7.137 -1.5594 -0.3348 -0.3652
   42CHL1   H2A 3082   2.511   0.219   7.110 -2.0674 -2.2043  1.3645
   42CHL1   H2B 3083   2.665   0.119   7.118  0.9760  0.4188  1.4104
   42CHL1   C20 3084   2.804   0.241   8.033  0.1592  0.3972  0.3527
   42CHL1   H20 3085   2.742   0.157   7.996 -0.5289 -0.5373  3.2816
   42CHL1   C21 3086   2.715   0.311   8.137  0.5870 -0.3600 -0.3476
   42CHL1  H21A 3087   2.758   0.294   8.238  2.7236 -0.0849 -1.1744
   42CHL1  H21B 3088   2.605   0.291   8.133  0.5079 -0.1082  0.3577
   42CHL1  H21C 3089   2.717   0.421   8.120 -2.0381 -0.1778  0.0010
   42CHL1   C22 3090   2.934   0.187   8.106  0.2076  0.6427  0.1530
   42CHL1  H22A 3091   3.007   0.187   8.023 -0.0670  1.6824 -0.0988
   42CHL1  H22B 3092   2.964   0.266   8.177  0.7002  0.5049  0.0981
   42CHL1   C23 3093   2.928   0.054   8.177  0.3603  0.1284 -0.5984
   42CHL1  H23A 3094   2.845   0.069   8.250  0.9678  0.6020  0.0005
   42CHL1  H23B 3095   2.899  -0.029   8.109  1.8251 -1.2315  0.3378
   42CHL1   C24 3096   3.062   0.018   8.253 -0.0733 -0.1531  0.6903
   42CHL1  H24A 3097   3.049  -0.081   8.302  1.3560 -0.7371 -0.0546
   42CHL1  H24B 3098   3.144   0.016   8.177  0.1589  1.4827  0.8588
   42CHL1   C25 3099   3.109   0.112   8.370 -0.0108  0.3993  0.6149
   42CHL1   H25 3100   3.095   0.220   8.346 -1.9739 -0.0617 -0.5315
   42CHL1   C26 3101   3.018   0.086   8.497 -0.7439  0.3990  0.1215
   42CHL1  H26A 3102   2.996  -0.022   8.503  0.4865 -0.1017 -2.8286
   42CHL1  H26B 3103   3.061   0.127   8.591  0.6068  1.4455 -0.8961
   42CHL1  H26C 3104   2.922   0.142   8.490 -1.0152 -0.0103  0.5068
   42CHL1   C27 3105   3.253   0.081   8.408 -0.3663  0.9221 -0.2235
   42CHL1  H27A 3106   3.327   0.096   8.326  1.5568  0.4922  1.3573
   42CHL1  H27B 3107   3.264  -0.024   8.441 -2.0071  0.9415  0.4712
   42CHL1  H27C 3108   3.268   0.156   8.489 -1.0874  1.9148 -0.9806
   43CHL1    C3 3109   1.965   3.666   6.993  0.2157  0.1948  0.7572
   43CHL1    H3 3110   2.007   3.764   6.964 -0.7731 -0.0596 -1.8202
   43CHL1    O3 3111   1.950   3.594   6.874 -0.2010  0.8907 -0.0414
   43CHL1   H3' 3112   1.861   3.609   6.842 -0.1718 -0.1311 -0.6440
   43CHL1    C4 3113   2.068   3.586   7.081 -0.0232 -0.1168  0.5949
   43CHL1   H4A 3114   2.053   3.476   7.085 -0.8314 -0.0093  0.7153
   43CHL1   H4B 3115   2.162   3.589   7.021 -1.1813 -0.0986 -1.3127
   43CHL1    C5 3116   2.086   3.640   7.217 -0.0880  0.4903 -0.0159
   43CHL1    C6 3117   2.204   3.682   7.263  0.9766 -0.3961  0.5121
   43CHL1    H6 3118   2.289   3.662   7.196  1.7494 -0.5193  1.5123
   43CHL1    C7 3119   2.233   3.738   7.398 -0.0611 -0.0516  0.5689
   43CHL1   H7A 3120   2.323   3.694   7.445  0.1948  0.9764  1.0643
   43CHL1   H7B 3121   2.254   3.847   7.397 -0.2390 -0.0118  0.9979
   43CHL1    C8 3122   2.110   3.717   7.502  0.6062  0.2434 -0.3267
   43CHL1    H8 3123   2.120   3.609   7.526  1.4754  0.4103  0.1282
   43CHL1   C14 3124   2.113   3.803   7.620  0.0739  0.2043 -0.4938
   43CHL1   H14 3125   2.094   3.906   7.583  1.0408  0.5119 -0.1689
   43CHL1   C15 3126   2.249   3.813   7.692  0.3853 -0.0666 -0.1418
   43CHL1  H15A 3127   2.292   3.712   7.711 -0.0401 -0.2600 -0.1982
   43CHL1  H15B 3128   2.331   3.863   7.636 -1.1799  0.8990 -1.6759
   43CHL1   C16 3129   2.212   3.865   7.834  0.4053  0.4758  0.2373
   43CHL1  H16A 3130   2.257   3.800   7.911 -3.3385 -2.8273 -0.0312
   43CHL1  H16B 3131   2.232   3.973   7.852  1.8595  0.0966  1.0071
   43CHL1   C17 3132   2.048   3.851   7.847 -0.5532 -0.3647 -0.2602
   43CHL1   H17 3133   2.019   3.954   7.818  0.4491 -0.1860 -0.7038
   43CHL1   C13 3134   2.009   3.762   7.728  0.2382 -0.5448  0.3975
   43CHL1   C18 3135   2.031   3.608   7.764 -0.4703  0.4294 -0.4375
   43CHL1  H18A 3136   1.962   3.589   7.848  0.0996  1.9218  0.3886
   43CHL1  H18B 3137   2.013   3.530   7.686 -1.5213  2.2008 -2.0488
   43CHL1  H18C 3138   2.128   3.596   7.817  0.0841 -1.2449 -1.7430
   43CHL1   C12 3139   1.876   3.792   7.665  0.1680  0.1641  0.6170
   43CHL1  H12A 3140   1.790   3.771   7.732 -0.9939  1.4846 -0.3977
   43CHL1  H12B 3141   1.865   3.899   7.638 -1.2557  0.1878  1.1868
   43CHL1   C11 3142   1.858   3.712   7.541  0.4527 -0.3765 -0.1275
   43CHL1  H11A 3143   1.853   3.608   7.579  1.3640 -0.5101 -0.3355
   43CHL1  H11B 3144   1.760   3.735   7.495  0.4050  0.9098  0.5655
   43CHL1    C9 3145   1.974   3.724   7.440  0.0164 -0.0862 -0.0481
   43CHL1    H9 3146   1.962   3.832   7.415  2.1882  0.7156  1.9798
   43CHL1   C10 3147   1.952   3.656   7.301 -0.4706  0.3984  0.1600
   43CHL1   C19 3148   1.903   3.510   7.331 -0.1467 -0.2054 -0.6930
   43CHL1  H19A 3149   1.956   3.447   7.406 -0.5953 -0.1130 -0.2920
   43CHL1  H19B 3150   1.804   3.519   7.380 -0.7695 -0.1955 -1.9134
   43CHL1  H19C 3151   1.888   3.444   7.243  2.9721 -0.8290 -0.8757
   43CHL1    C1 3152   1.850   3.732   7.214  0.3521  0.6982  0.5335
   43CHL1   H1A 3153   1.750   3.722   7.262  0.9584 -1.8310  1.4060
   43CHL1   H1B 3154   1.895   3.833   7.210  0.3244  0.6809 -0.3614
   43CHL1    C2 3155   1.834   3.673   7.066  0.1956 -0.0374  0.0314
   43CHL1   H2A 3156   1.772   3.742   7.005  1.0342 -0.2222 -1.0408
   43CHL1   H2B 3157   1.781   3.575   7.073 -1.2727  0.6035 -1.4663
   43CHL1   C20 3158   2.015   3.813   7.989  0.3398  0.0968  0.5352
   43CHL1   H20 3159   2.067   3.719   8.017 -1.0909 -0.9032 -0.0495
   43CHL1   C21 3160   1.864   3.793   7.999  1.2370 -0.0804  0.2562
   43CHL1  H21A 3161   1.812   3.888   7.974  0.8524 -0.0378  1.1728
   43CHL1  H21B 3162   1.823   3.771   8.100 -0.4708  0.9402 -0.1759
   43CHL1  H21C 3163   1.831   3.707   7.937 -1.4295  1.6057 -0.8414
   43CHL1   C22 3164   2.046   3.922   8.092 -0.2723  0.0846  0.6767
   43CHL1  H22A 3165   2.157   3.924   8.095 -0.1176 -3.2650  0.8143
   43CHL1  H22B 3166   2.017   4.018   8.044  0.8948 -0.2899 -0.8490
   43CHL1   C23 3167   1.998   3.901   8.238  0.3131  0.1102 -0.4850
   43CHL1  H23A 3168   1.891   3.929   8.235  0.2170 -0.0403  0.9988
   43CHL1  H23B 3169   1.986   3.792   8.256  2.0346 -0.3039 -1.6437
   43CHL1   C24 3170   2.083   3.986   8.339  0.2360  1.2793 -0.0621
   43CHL1  H24A 3171   2.186   3.970   8.300 -0.4528 -0.6568 -1.2406
   43CHL1  H24B 3172   2.065   4.096   8.335 -3.0423  0.8872  0.9376
   43CHL1   C25 3173   2.069   3.949   8.490  0.3437 -0.7418  0.1360
   43CHL1   H25 3174   2.091   3.841   8.495  1.9415 -0.5504 -1.5989
   43CHL1   C26 3175   2.176   4.017   8.579  0.5719  0.9512  0.0066
   43CHL1  H26A 3176   2.147   4.123   8.598 -0.3584  0.7514 -0.2403
   43CHL1  H26B 3177   2.164   3.971   8.680  1.5740  1.4386  0.3596
   43CHL1  H26C 3178   2.272   4.008   8.525 -0.6986 -0.8948 -2.0890
   43CHL1   C27 3179   1.927   3.967   8.542  0.5980 -0.3574  0.2542
   43CHL1  H27A 3180   1.875   3.989   8.447  0.3332  0.0086  0.4784
   43CHL1  H27B 3181   1.897   3.874   8.594  3.0113  0.0893  2.7078
   43CHL1  H27C 3182   1.930   4.049   8.617  0.0355 -0.5114  0.4506
   44CHL1    C3 3183   2.477   1.828   6.684 -0.4746 -0.0056 -0.1126
   44CHL1    H3 3184   2.540   1.877   6.761 -1.2800 -1.1479  1.3241
   44CHL1    O3 3185   2.522   1.865   6.554 -0.3750 -0.4242 -0.1322
   44CHL1   H3' 3186   2.470   1.812   6.493  0.7859 -0.2203 -1.3541
   44CHL1    C4 3187   2.484   1.678   6.683  0.0304  0.3042 -0.6072
   44CHL1   H4A 3188   2.409   1.645   6.607 -0.4062  1.4456 -0.6964
   44CHL1   H4B 3189   2.578   1.638   6.640 -0.7662 -1.7085 -0.6048
   44CHL1    C5 3190   2.448   1.627   6.823  0.3702  0.1398  0.1583
   44CHL1    C6 3191   2.537   1.547   6.891  0.2468  0.3399  0.7373
   44CHL1    H6 3192   2.631   1.516   6.844 -0.5887  0.9316 -1.5121
   44CHL1    C7 3193   2.498   1.471   7.015 -0.4570 -0.2524  0.1984
   44CHL1   H7A 3194   2.516   1.365   6.988 -1.2083 -0.3960  0.2485
   44CHL1   H7B 3195   2.571   1.498   7.095 -0.0402  2.6681 -1.0531
   44CHL1    C8 3196   2.346   1.481   7.050 -0.3547 -0.4313 -0.1388
   44CHL1    H8 3197   2.293   1.406   6.987 -1.0038 -0.5808  0.5789
   44CHL1   C14 3198   2.335   1.449   7.196  0.8203 -0.1768 -0.6455
   44CHL1   H14 3199   2.391   1.535   7.239 -0.1294  0.6262 -0.9747
   44CHL1   C15 3200   2.407   1.331   7.258 -0.0087  0.5229  0.1868
   44CHL1  H15A 3201   2.371   1.241   7.203  1.1293 -0.3148  0.7889
   44CHL1  H15B 3202   2.516   1.345   7.244 -0.0351 -0.4575 -1.2083
   44CHL1   C16 3203   2.343   1.332   7.397  0.4462 -0.4331 -0.4665
   44CHL1  H16A 3204   2.299   1.234   7.427 -0.4013  0.2383  0.5542
   44CHL1  H16B 3205   2.423   1.343   7.474  1.4855  0.2200 -1.5989
   44CHL1   C17 3206   2.223   1.438   7.408 -0.3443  0.3724 -0.6822
   44CHL1   H17 3207   2.273   1.526   7.454 -0.2042 -1.3066  2.6878
   44CHL1   C13 3208   2.192   1.471   7.256  0.1989  0.3040 -0.2790
   44CHL1   C18 3209   2.090   1.361   7.214  0.7443 -0.3013  0.9457
   44CHL1  H18A 3210   2.100   1.272   7.281  2.9890 -0.6584  0.2160
   44CHL1  H18B 3211   1.987   1.397   7.232  1.1348  1.2478  0.2415
   44CHL1  H18C 3212   2.107   1.336   7.107 -1.0908  2.7800 -0.1843
   44CHL1   C12 3213   2.135   1.613   7.228  0.2310  0.5150  0.5916
   44CHL1  H12A 3214   2.030   1.626   7.262  0.4980  0.7831  1.3358
   44CHL1  H12B 3215   2.192   1.678   7.298  0.1045  0.6265  0.5936
   44CHL1   C11 3216   2.144   1.635   7.080  0.3454  0.6779 -0.3565
   44CHL1  H11A 3217   2.075   1.569   7.024  0.2499 -0.2085  0.7692
   44CHL1  H11B 3218   2.107   1.736   7.053  1.4057  1.3199  0.5164
   44CHL1    C9 3219   2.292   1.623   7.023 -0.0140  0.2184 -0.2804
   44CHL1    H9 3220   2.347   1.696   7.084  0.2867  0.5609 -0.9505
   44CHL1   C10 3221   2.310   1.667   6.876  0.1696 -0.3414  0.6083
   44CHL1   C19 3222   2.204   1.600   6.792 -0.2806  0.3523 -0.1710
   44CHL1  H19A 3223   2.210   1.645   6.691 -1.0829  0.6250 -0.1009
   44CHL1  H19B 3224   2.201   1.490   6.803 -1.8111  0.2813 -1.0344
   44CHL1  H19C 3225   2.107   1.636   6.831 -1.0172 -2.6871  1.1238
   44CHL1    C1 3226   2.286   1.821   6.864 -0.5215 -0.4972 -0.5050
   44CHL1   H1A 3227   2.181   1.848   6.888  0.8320  4.2446  1.2713
   44CHL1   H1B 3228   2.350   1.884   6.929 -0.7457  1.1223 -1.7606
   44CHL1    C2 3229   2.332   1.869   6.717  0.3707 -0.3308  0.0039
   44CHL1   H2A 3230   2.337   1.979   6.700 -0.5475 -0.3886 -0.7296
   44CHL1   H2B 3231   2.262   1.824   6.644 -0.3273  0.9535 -0.1489
   44CHL1   C20 3232   2.112   1.408   7.509  0.1866 -0.1167 -0.4994
   44CHL1   H20 3233   2.062   1.313   7.482  0.6714 -0.1599 -1.2816
   44CHL1   C21 3234   2.004   1.519   7.509 -0.7020 -0.2791  0.1352
   44CHL1  H21A 3235   1.971   1.525   7.614  0.8250 -3.2141  0.8762
   44CHL1  H21B 3236   1.932   1.499   7.427  0.8294 -0.8962 -1.1093
   44CHL1  H21C 3237   2.057   1.613   7.482  0.2731 -0.2243  2.0426
   44CHL1   C22 3238   2.176   1.390   7.650 -0.1133  0.0560  0.2507
   44CHL1  H22A 3239   2.099   1.352   7.719 -1.8020  1.2616 -0.9052
   44CHL1  H22B 3240   2.249   1.307   7.644 -2.0056 -2.0198  3.4824
   44CHL1   C23 3241   2.239   1.513   7.707  0.4555  0.1427  0.2440
   44CHL1  H23A 3242   2.307   1.559   7.633 -0.2244 -1.3549 -1.3791
   44CHL1  H23B 3243   2.167   1.591   7.741 -0.8409 -0.6723 -0.5458
   44CHL1   C24 3244   2.322   1.482   7.837 -0.2362 -0.6423 -0.4305
   44CHL1  H24A 3245   2.410   1.416   7.820 -0.0803 -0.6590  0.4083
   44CHL1  H24B 3246   2.362   1.580   7.869 -4.1468  1.3494 -1.1224
   44CHL1   C25 3247   2.248   1.417   7.954  0.5525 -0.3438 -0.0621
   44CHL1   H25 3248   2.211   1.320   7.914  1.6602 -0.1006 -1.7795
   44CHL1   C26 3249   2.337   1.370   8.066 -0.5981 -0.3423  0.6316
   44CHL1  H26A 3250   2.416   1.298   8.034  1.2635 -0.1515  4.3192
   44CHL1  H26B 3251   2.404   1.449   8.106  0.0827 -0.6084  0.0483
   44CHL1  H26C 3252   2.284   1.326   8.153 -1.0764 -0.0556  0.4845
   44CHL1   C27 3253   2.128   1.504   7.995 -0.2630 -0.2553 -0.4800
   44CHL1  H27A 3254   2.089   1.480   8.096 -1.7819  2.0419 -0.4433
   44CHL1  H27B 3255   2.162   1.610   7.993  0.7265 -0.5194 -3.4848
   44CHL1  H27C 3256   2.047   1.497   7.918  0.4704 -1.2125 -1.1884
   45CHL1    C3 3257   2.697   6.209   6.908  0.1088  0.2824  0.3785
   45CHL1    H3 3258   2.612   6.242   6.971 -1.6071 -3.4023  0.2836
   45CHL1    O3 3259   2.657   6.182   6.776  0.2044  0.2019  0.7507
   45CHL1   H3' 3260   2.677   6.269   6.741 -0.4934  0.7104  1.5673
   45CHL1    C4 3261   2.808   6.317   6.897 -0.3197  0.2833  0.1882
   45CHL1   H4A 3262   2.883   6.291   6.819 -1.5871 -0.1698 -0.9360
   45CHL1   H4B 3263   2.751   6.406   6.862 -0.0707  0.0286 -0.9222
   45CHL1    C5 3264   2.871   6.343   7.027  0.3264 -0.1492 -1.0841
   45CHL1    C6 3265   2.873   6.467   7.087  0.3336 -0.0727  0.4251
   45CHL1    H6 3266   2.821   6.546   7.031 -1.2581 -2.5634 -1.8459
   45CHL1    C7 3267   2.936   6.499   7.221  0.3367 -0.2802  0.1806
   45CHL1   H7A 3268   3.010   6.580   7.202 -1.8442  1.9601  0.6462
   45CHL1   H7B 3269   2.856   6.527   7.293 -0.1578  1.2813 -0.9202
   45CHL1    C8 3270   3.018   6.382   7.279  0.5834 -0.0356 -0.4089
   45CHL1    H8 3271   3.120   6.388   7.234  0.6819  1.4769 -0.0385
   45CHL1   C14 3272   3.029   6.399   7.430  0.1153  0.0038  0.2322
   45CHL1   H14 3273   2.926   6.393   7.471  0.0528  0.3849  0.1328
   45CHL1   C15 3274   3.089   6.530   7.482 -0.1517 -0.1138 -0.2508
   45CHL1  H15A 3275   3.183   6.556   7.430 -1.0054  0.0447 -1.7808
   45CHL1  H15B 3276   3.018   6.615   7.473 -0.2196  0.0016  1.1428
   45CHL1   C16 3277   3.118   6.498   7.626  0.4323  0.7763 -0.7403
   45CHL1  H16A 3278   3.226   6.517   7.642  0.2358  0.2480  1.5439
   45CHL1  H16B 3279   3.060   6.555   7.702 -0.1617 -1.0911  0.2497
   45CHL1   C17 3280   3.106   6.340   7.643  0.2689 -0.6591  0.0205
   45CHL1   H17 3281   3.001   6.321   7.674 -0.4885  0.3006 -1.8627
   45CHL1   C13 3282   3.114   6.290   7.500  0.2890 -0.2521 -0.3360
   45CHL1   C18 3283   3.258   6.303   7.440  0.5549 -0.3508 -0.4563
   45CHL1  H18A 3284   3.257   6.278   7.331 -2.7175 -0.4448 -0.5057
   45CHL1  H18B 3285   3.308   6.402   7.449  0.1732 -0.1952 -0.0283
   45CHL1  H18C 3286   3.320   6.226   7.490  0.1048  0.0590  0.7754
   45CHL1   C12 3287   3.048   6.155   7.472  0.0622 -0.0156 -0.0986
   45CHL1  H12A 3288   3.111   6.074   7.514  3.0422  1.1211 -2.0277
   45CHL1  H12B 3289   2.946   6.150   7.515 -0.5768  0.4125 -1.5182
   45CHL1   C11 3290   3.025   6.127   7.325 -0.4378 -1.0776  0.2952
   45CHL1  H11A 3291   3.128   6.108   7.289 -0.1191 -2.0494  1.6434
   45CHL1  H11B 3292   2.965   6.035   7.308 -1.2988 -0.2934 -1.0508
   45CHL1    C9 3293   2.953   6.242   7.248  0.3138 -0.0532 -0.7209
   45CHL1    H9 3294   2.853   6.248   7.297 -1.0053  2.6035 -3.4000
   45CHL1   C10 3295   2.918   6.217   7.102  0.1386  0.6807 -1.1719
   45CHL1   C19 3296   3.058   6.173   7.037  0.0984 -0.4741 -0.4540
   45CHL1  H19A 3297   3.027   6.151   6.932  0.5550  2.7663 -1.3612
   45CHL1  H19B 3298   3.134   6.254   7.033 -0.3524 -0.0832 -2.5781
   45CHL1  H19C 3299   3.096   6.082   7.088 -0.7581 -0.8523 -0.4827
   45CHL1    C1 3300   2.814   6.100   7.102 -0.3677 -0.5807 -0.5162
   45CHL1   H1A 3301   2.862   6.010   7.145  2.8442  0.9456 -0.6200
   45CHL1   H1B 3302   2.731   6.129   7.169 -0.8126  1.0063 -1.6896
   45CHL1    C2 3303   2.761   6.082   6.963 -0.3612  0.5182  0.3534
   45CHL1   H2A 3304   2.687   6.001   6.980  0.5505 -0.2260  0.8645
   45CHL1   H2B 3305   2.828   6.044   6.883 -1.8575 -0.3094 -0.5434
   45CHL1   C20 3306   3.182   6.270   7.757  0.5694 -0.7427  0.4745
   45CHL1   H20 3307   3.281   6.229   7.725 -0.2102 -2.2198 -0.1302
   45CHL1   C21 3308   3.115   6.139   7.794  0.5273 -0.0418  0.3716
   45CHL1  H21A 3309   3.143   6.109   7.897  2.0719 -2.0174 -0.5638
   45CHL1  H21B 3310   3.158   6.059   7.731  0.0375 -0.7079  0.8676
   45CHL1  H21C 3311   3.006   6.124   7.783  0.1083  1.9581  1.1631
   45CHL1   C22 3312   3.206   6.351   7.885 -0.1849  0.1121 -0.1404
   45CHL1  H22A 3313   3.284   6.300   7.946  0.9162  1.8898  0.0248
   45CHL1  H22B 3314   3.264   6.440   7.851  0.5563 -0.4209 -0.2840
   45CHL1   C23 3315   3.080   6.372   7.972 -0.1074  0.1050  0.2149
   45CHL1  H23A 3316   3.031   6.454   7.915 -1.1162 -2.0591 -2.2406
   45CHL1  H23B 3317   3.014   6.283   7.971  0.8492 -0.6200 -1.1728
   45CHL1   C24 3318   3.102   6.423   8.119  0.6230 -0.1984  0.3962
   45CHL1  H24A 3319   3.147   6.523   8.099  2.4070 -0.9371  0.4607
   45CHL1  H24B 3320   3.004   6.439   8.167  0.2166  1.2009 -0.8256
   45CHL1   C25 3321   3.196   6.344   8.218 -0.6035 -0.4541  0.8308
   45CHL1   H25 3322   3.290   6.336   8.159 -0.4835  2.5266  0.4457
   45CHL1   C26 3323   3.225   6.429   8.345  0.4048  0.1629  1.0771
   45CHL1  H26A 3324   3.269   6.529   8.324 -1.7287  0.8987 -0.2494
   45CHL1  H26B 3325   3.136   6.455   8.407  0.1718  1.4635  0.2377
   45CHL1  H26C 3326   3.299   6.363   8.395 -0.3525 -2.9316 -1.5490
   45CHL1   C27 3327   3.156   6.201   8.263  0.3167  0.3420  0.1003
   45CHL1  H27A 3328   3.243   6.155   8.316 -0.5799  0.8419  2.0657
   45CHL1  H27B 3329   3.088   6.222   8.348  0.6115 -1.8245  0.9306
   45CHL1  H27C 3330   3.112   6.137   8.183 -0.1463  0.4562  0.2635
   46CHL1    C3 3331   3.753   1.702   7.166 -0.0642 -0.9145  0.1324
   46CHL1    H3 3332   3.790   1.806   7.176 -1.8898 -0.2503  0.3942
   46CHL1    O3 3333   3.757   1.657   7.035 -0.7487  0.2265  0.9378
   46CHL1   H3' 3334   3.753   1.562   7.045 -1.2660  0.1461  0.0771
   46CHL1    C4 3335   3.835   1.619   7.260  0.1712  0.3384  0.6183
   46CHL1   H4A 3336   3.805   1.512   7.260  2.5047 -0.4425 -1.8588
   46CHL1   H4B 3337   3.937   1.610   7.218  0.2332 -0.0015  0.8455
   46CHL1    C5 3338   3.834   1.668   7.397 -0.2884 -0.3253 -0.0877
   46CHL1    C6 3339   3.949   1.708   7.455  0.1109  0.2542  0.3677
   46CHL1    H6 3340   4.039   1.710   7.392  1.4960 -1.0194  2.2044
   46CHL1    C7 3341   3.962   1.745   7.599 -0.5545  0.0659 -0.1017
   46CHL1   H7A 3342   4.048   1.702   7.654 -2.4852 -1.2277  2.0894
   46CHL1   H7B 3343   3.982   1.853   7.613  0.4568 -0.2397  1.0002
   46CHL1    C8 3344   3.838   1.718   7.685 -0.0962 -0.3258 -0.4790
   46CHL1    H8 3345   3.834   1.611   7.714  3.2274 -0.8224 -1.4651
   46CHL1   C14 3346   3.847   1.818   7.806 -0.2888  0.0808 -0.2713
   46CHL1   H14 3347   3.854   1.919   7.763  0.8305 -0.3559 -1.1437
   46CHL1   C15 3348   3.970   1.811   7.906 -0.5356  0.5227  0.1994
   46CHL1  H15A 3349   4.000   1.706   7.926 -0.6111  0.6512  1.0653
   46CHL1  H15B 3350   4.054   1.867   7.861 -1.0751 -0.0719 -1.6053
   46CHL1   C16 3351   3.919   1.889   8.031 -0.2056  0.3029  0.3498
   46CHL1  H16A 3352   3.937   1.816   8.112 -1.3008 -0.8747 -0.4320
   46CHL1  H16B 3353   3.977   1.980   8.057 -0.4169  0.8697 -1.0269
   46CHL1   C17 3354   3.770   1.912   8.012 -0.1684  0.3200  0.2639
   46CHL1   H17 3355   3.764   2.011   7.963 -0.4197  1.1790  1.9684
   46CHL1   C13 3356   3.722   1.811   7.899 -0.2213 -0.5242 -0.4144
   46CHL1   C18 3357   3.718   1.666   7.957  0.3809  0.1595  0.4012
   46CHL1  H18A 3358   3.816   1.647   8.007  1.5431 -1.8574 -2.3613
   46CHL1  H18B 3359   3.637   1.655   8.032 -0.3391  0.4478 -0.3148
   46CHL1  H18C 3360   3.700   1.585   7.883 -0.6650  0.5519  0.2184
   46CHL1   C12 3361   3.597   1.842   7.821  0.0577 -0.7092  0.4688
   46CHL1  H12A 3362   3.507   1.820   7.883 -0.5097 -0.0567 -0.1068
   46CHL1  H12B 3363   3.596   1.950   7.796  2.8812 -0.9060 -0.7855
   46CHL1   C11 3364   3.582   1.762   7.700  0.6436  0.1816  1.4379
   46CHL1  H11A 3365   3.556   1.661   7.737 -2.1394 -0.1254 -0.9685
   46CHL1  H11B 3366   3.492   1.797   7.644  0.9955 -4.0547 -2.3485
   46CHL1    C9 3367   3.709   1.754   7.608  0.2483  0.3345  0.2175
   46CHL1    H9 3368   3.723   1.863   7.587 -2.3970  0.9142  1.0834
   46CHL1   C10 3369   3.700   1.674   7.469  0.7162 -0.2092  0.5582
   46CHL1   C19 3370   3.641   1.535   7.505 -0.2474  0.0187 -0.6052
   46CHL1  H19A 3371   3.538   1.550   7.544 -0.3191  0.2534 -0.8795
   46CHL1  H19B 3372   3.627   1.476   7.411 -1.0458  0.2307 -0.6248
   46CHL1  H19C 3373   3.704   1.482   7.580  0.8109  1.2132 -0.6171
   46CHL1    C1 3374   3.603   1.740   7.364 -0.4158 -0.4451 -0.2555
   46CHL1   H1A 3375   3.501   1.728   7.406 -0.7080  0.2942 -0.7394
   46CHL1   H1B 3376   3.625   1.848   7.373 -2.0768 -0.2032  1.4611
   46CHL1    C2 3377   3.613   1.682   7.223 -0.2823 -1.0353  0.2909
   46CHL1   H2A 3378   3.534   1.733   7.164  0.0087 -0.2859  0.5274
   46CHL1   H2B 3379   3.596   1.573   7.222 -1.3698 -0.8994 -1.7291
   46CHL1   C20 3380   3.703   1.918   8.147  0.2563 -0.9125  0.1672
   46CHL1   H20 3381   3.679   1.815   8.180 -2.4010  0.3999  2.7506
   46CHL1   C21 3382   3.570   1.996   8.128  0.1773 -0.0941 -0.8514
   46CHL1  H21A 3383   3.515   1.965   8.037 -0.2670 -2.3537  0.1223
   46CHL1  H21B 3384   3.586   2.106   8.123  2.5219 -0.3700 -0.7011
   46CHL1  H21C 3385   3.503   1.967   8.212  1.1924 -1.4901 -0.4992
   46CHL1   C22 3386   3.772   1.973   8.273  0.0593  0.0600 -0.5985
   46CHL1  H22A 3387   3.730   1.928   8.365 -1.1817  0.9262 -0.7257
   46CHL1  H22B 3388   3.878   1.939   8.279  0.0067 -0.0401 -0.2451
   46CHL1   C23 3389   3.783   2.126   8.287 -0.3120  0.1975 -0.6400
   46CHL1  H23A 3390   3.828   2.166   8.193  0.1867  0.1012 -0.4490
   46CHL1  H23B 3391   3.695   2.188   8.315 -1.6306 -1.0337 -1.9093
   46CHL1   C24 3392   3.884   2.145   8.398  0.3259  0.4656  0.3065
   46CHL1  H24A 3393   3.838   2.090   8.483  0.3767  0.9596  0.6635
   46CHL1  H24B 3394   3.981   2.104   8.363 -0.1788 -0.3618 -0.1262
   46CHL1   C25 3395   3.917   2.291   8.432 -0.1807 -0.3725 -0.3501
   46CHL1   H25 3396   3.964   2.335   8.342  0.6318 -0.3508  0.0763
   46CHL1   C26 3397   3.789   2.374   8.478 -0.3758 -0.7860  1.2998
   46CHL1  H26A 3398   3.726   2.382   8.387  1.6300  2.4686  0.0313
   46CHL1  H26B 3399   3.741   2.320   8.563 -0.6814 -3.2877 -0.3585
   46CHL1  H26C 3400   3.824   2.476   8.505  0.3776 -0.1592 -1.6876
   46CHL1   C27 3401   4.034   2.315   8.535 -0.0528  0.3854 -0.4905
   46CHL1  H27A 3402   4.112   2.241   8.509  0.0237  0.8542 -1.6401
   46CHL1  H27B 3403   4.076   2.418   8.538 -1.0117  0.7813  1.9795
   46CHL1  H27C 3404   4.000   2.284   8.636  3.6501 -1.6733  0.3055
   47CHL1    C3 3405   2.977   1.969   6.836  0.5939  0.2474  0.0292
   47CHL1    H3 3406   3.069   1.921   6.875 -0.3188 -2.6346 -1.1218
   47CHL1    O3 3407   3.002   1.999   6.695 -0.1797  0.1674 -0.2884
   47CHL1   H3' 3408   3.047   2.084   6.693  0.3140 -0.1010 -0.7310
   47CHL1    C4 3409   2.859   1.875   6.856  0.3477  0.0871 -0.5429
   47CHL1   H4A 3410   2.773   1.929   6.813 -1.2104  0.3100  2.5726
   47CHL1   H4B 3411   2.880   1.777   6.807  2.4948 -0.5748  1.4832
   47CHL1    C5 3412   2.827   1.849   7.007  0.2258 -0.0646  0.1573
   47CHL1    C6 3413   2.809   1.726   7.055  0.3361 -0.3664 -0.1836
   47CHL1    H6 3414   2.830   1.638   6.993 -1.3602 -1.3165  0.5224
   47CHL1    C7 3415   2.761   1.711   7.199  0.5531 -0.1331  0.5893
   47CHL1   H7A 3416   2.678   1.638   7.205 -0.2162  0.7678  1.2683
   47CHL1   H7B 3417   2.845   1.668   7.258  0.5126 -1.8807 -0.5899
   47CHL1    C8 3418   2.713   1.839   7.276  0.3875 -0.3525 -0.2340
   47CHL1    H8 3419   2.611   1.867   7.241 -0.3354 -2.4728  0.0651
   47CHL1   C14 3420   2.705   1.818   7.428 -0.7533 -0.4721  0.4216
   47CHL1   H14 3421   2.812   1.806   7.454 -1.2857 -2.0783  2.0999
   47CHL1   C15 3422   2.646   1.690   7.491 -0.1318 -0.5288  0.1916
   47CHL1  H15A 3423   2.556   1.655   7.436 -0.2088 -0.7150  0.4293
   47CHL1  H15B 3424   2.721   1.608   7.492 -1.6897 -2.0464  2.2599
   47CHL1   C16 3425   2.612   1.721   7.634 -0.0607  0.2748  0.0439
   47CHL1  H16A 3426   2.503   1.702   7.646 -0.0424  0.0034 -0.2183
   47CHL1  H16B 3427   2.654   1.652   7.710  0.3161 -0.3153 -0.6893
   47CHL1   C17 3428   2.651   1.867   7.657 -0.0326 -0.5574 -0.7067
   47CHL1   H17 3429   2.758   1.878   7.687 -0.0234  1.4855 -1.3354
   47CHL1   C13 3430   2.653   1.935   7.510 -0.9729  0.8820  0.0450
   47CHL1   C18 3431   2.500   1.957   7.477 -0.3883 -0.6636  0.1340
   47CHL1  H18A 3432   2.456   2.041   7.537 -0.4026  0.2871 -1.1710
   47CHL1  H18B 3433   2.479   1.977   7.370 -1.6033 -2.3970  0.0076
   47CHL1  H18C 3434   2.443   1.864   7.499  0.2383 -1.4166 -1.3513
   47CHL1   C12 3435   2.747   2.054   7.485  0.1949 -0.0325 -0.3147
   47CHL1  H12A 3436   2.706   2.150   7.524 -0.8795 -0.5916 -0.0519
   47CHL1  H12B 3437   2.848   2.038   7.529  0.8957 -0.9702 -2.1487
   47CHL1   C11 3438   2.760   2.085   7.336  0.0382  0.2437  0.1745
   47CHL1  H11A 3439   2.663   2.123   7.299  0.3565  0.5588 -0.3448
   47CHL1  H11B 3440   2.845   2.157   7.334 -0.0270  0.5589  3.2540
   47CHL1    C9 3441   2.800   1.962   7.244  0.0428  0.5660 -0.1209
   47CHL1    H9 3442   2.898   1.920   7.275 -1.9831 -2.5492  2.9443
   47CHL1   C10 3443   2.809   1.978   7.085  0.1874  0.0077 -0.1140
   47CHL1   C19 3444   2.683   2.053   7.037  0.6079  0.2910 -0.9858
   47CHL1  H19A 3445   2.675   2.055   6.927 -4.7211  1.1073 -0.8577
   47CHL1  H19B 3446   2.588   2.011   7.078  1.1716 -0.2018 -0.1288
   47CHL1  H19C 3447   2.688   2.157   7.075  0.2792  0.0463 -0.2523
   47CHL1    C1 3448   2.925   2.073   7.071 -0.1469 -0.1682  0.8052
   47CHL1   H1A 3449   2.896   2.171   7.114 -0.0026 -0.1200  0.7919
   47CHL1   H1B 3450   3.008   2.022   7.124  0.0084 -3.3949 -2.1551
   47CHL1    C2 3451   2.966   2.104   6.921 -0.0273  0.3857 -0.0827
   47CHL1   H2A 3452   3.069   2.144   6.920  0.5690 -1.0812 -1.0667
   47CHL1   H2B 3453   2.902   2.180   6.872  0.2577 -0.7893 -2.4486
   47CHL1   C20 3454   2.574   1.944   7.767 -0.9197 -0.0222 -0.8965
   47CHL1   H20 3455   2.475   1.978   7.730 -0.5382  0.7779 -1.2065
   47CHL1   C21 3456   2.648   2.068   7.814 -0.5832 -0.7042 -0.5482
   47CHL1  H21A 3457   2.571   2.130   7.864 -1.0995 -0.5030 -1.5608
   47CHL1  H21B 3458   2.693   2.134   7.737  0.4331 -0.7441 -0.0063
   47CHL1  H21C 3459   2.725   2.041   7.890 -1.0064  2.6035  1.2363
   47CHL1   C22 3460   2.554   1.857   7.891  0.2040  0.0291 -0.4425
   47CHL1  H22A 3461   2.523   1.755   7.859 -1.8138 -0.3221  2.2551
   47CHL1  H22B 3462   2.651   1.840   7.941 -0.0177  0.8946  0.3081
   47CHL1   C23 3463   2.447   1.914   7.984  1.1950 -0.1743 -1.1505
   47CHL1  H23A 3464   2.506   1.981   8.050 -1.4831  0.6117  0.6163
   47CHL1  H23B 3465   2.380   1.981   7.927 -2.3093 -0.1851  2.5278
   47CHL1   C24 3466   2.365   1.818   8.074 -1.1393 -0.0022 -0.1162
   47CHL1  H24A 3467   2.280   1.771   8.019 -2.2740  1.7995 -0.0288
   47CHL1  H24B 3468   2.433   1.732   8.089 -1.8662 -0.8961 -1.6887
   47CHL1   C25 3469   2.305   1.880   8.197  0.3215 -0.6670 -0.3195
   47CHL1   H25 3470   2.384   1.941   8.246 -0.9288  0.7697 -0.0136
   47CHL1   C26 3471   2.198   1.983   8.176  1.0328 -0.7822 -0.1788
   47CHL1  H26A 3472   2.096   1.951   8.206  0.9983 -1.2770 -0.7934
   47CHL1  H26B 3473   2.232   2.073   8.232 -1.6336  0.1033  0.1610
   47CHL1  H26C 3474   2.201   2.033   8.077 -0.2651 -0.7052 -0.1896
   47CHL1   C27 3475   2.255   1.780   8.295 -0.5091 -0.2005 -0.6383
   47CHL1  H27A 3476   2.225   1.828   8.390  0.4370 -1.0023  0.0955
   47CHL1  H27B 3477   2.160   1.734   8.259 -1.7109  1.0297  0.8073
   47CHL1  H27C 3478   2.327   1.702   8.327  0.0629  0.8383  0.6708
   48CHL1    C3 3479   5.344   3.509   6.585 -0.0547 -0.9160 -0.0741
   48CHL1    H3 3480   5.411   3.598   6.587 -0.2529 -0.6798 -1.7649
   48CHL1    O3 3481   5.293   3.479   6.454  0.4998  0.9923  0.4484
   48CHL1   H3' 3482   5.357   3.424   6.409 -0.7952 -1.5522  1.5341
   48CHL1    C4 3483   5.410   3.384   6.639 -0.1484  0.9631 -0.0280
   48CHL1   H4A 3484   5.339   3.300   6.621  1.1118  0.1057 -1.1788
   48CHL1   H4B 3485   5.500   3.370   6.577  0.0330  1.3454  0.1465
   48CHL1    C5 3486   5.444   3.399   6.782  0.0307 -0.4526 -0.3944
   48CHL1    C6 3487   5.571   3.390   6.827  0.8872  0.0903 -0.1271
   48CHL1    H6 3488   5.654   3.376   6.757  0.8067  1.7742 -0.5786
   48CHL1    C7 3489   5.600   3.396   6.973 -0.0913 -0.4750  0.2061
   48CHL1   H7A 3490   5.665   3.313   7.007 -1.2215 -2.2181 -1.6551
   48CHL1   H7B 3491   5.648   3.494   6.994 -1.0608 -0.2295  1.4200
   48CHL1    C8 3492   5.484   3.383   7.075 -0.5460 -0.1238 -0.3573
   48CHL1    H8 3493   5.453   3.276   7.072  1.0022 -0.6016 -0.1722
   48CHL1   C14 3494   5.522   3.434   7.213  0.0970 -0.1340  0.2307
   48CHL1   H14 3495   5.551   3.542   7.207  0.0191 -0.1115  0.2600
   48CHL1   C15 3496   5.647   3.365   7.271  0.1149 -0.8927 -0.1447
   48CHL1  H15A 3497   5.639   3.254   7.267 -2.3331 -0.7956  0.2301
   48CHL1  H15B 3498   5.736   3.414   7.228 -0.6464  0.0961 -0.6428
   48CHL1   C16 3499   5.631   3.400   7.419 -0.1568  0.4595  0.0016
   48CHL1  H16A 3500   5.646   3.306   7.476  3.4189  0.0476 -1.3135
   48CHL1  H16B 3501   5.712   3.472   7.445  1.8593 -0.5932 -2.8672
   48CHL1   C17 3502   5.497   3.477   7.440  1.0743 -0.7407 -0.4376
   48CHL1   H17 3503   5.526   3.583   7.419 -0.6319  0.0305  0.9058
   48CHL1   C13 3504   5.410   3.441   7.316 -0.8074  0.0732  0.4976
   48CHL1   C18 3505   5.356   3.294   7.334  0.4894  0.2130 -0.1094
   48CHL1  H18A 3506   5.320   3.247   7.240 -0.2544 -0.7871  0.6512
   48CHL1  H18B 3507   5.438   3.229   7.372  0.7774  0.9744  0.6025
   48CHL1  H18C 3508   5.282   3.311   7.415  0.8774  1.3542  0.0142
   48CHL1   C12 3509   5.306   3.536   7.262  0.3125  0.4893 -0.1957
   48CHL1  H12A 3510   5.213   3.546   7.322  0.6588 -2.0209  0.8714
   48CHL1  H12B 3511   5.357   3.635   7.263 -0.3964  0.9091 -1.8077
   48CHL1   C11 3512   5.259   3.500   7.121 -0.2759 -0.2601  0.3368
   48CHL1  H11A 3513   5.200   3.406   7.133  1.8807 -1.9068 -1.0901
   48CHL1  H11B 3514   5.185   3.574   7.084 -0.4190 -1.0552 -1.0234
   48CHL1    C9 3515   5.375   3.472   7.024  0.1325  0.3439 -0.1002
   48CHL1    H9 3516   5.420   3.574   7.029 -2.9043  1.8369 -0.6523
   48CHL1   C10 3517   5.325   3.433   6.879  0.3468  0.0034  0.6176
   48CHL1   C19 3518   5.226   3.312   6.891  0.4452 -0.5939  1.0991
   48CHL1  H19A 3519   5.268   3.219   6.935 -1.3823 -1.1137  1.8342
   48CHL1  H19B 3520   5.130   3.339   6.939 -1.0441 -0.2741 -1.7991
   48CHL1  H19C 3521   5.188   3.282   6.791 -2.2785 -1.0900  2.1968
   48CHL1    C1 3522   5.249   3.551   6.820 -0.6142 -0.6521 -0.0623
   48CHL1   H1A 3523   5.163   3.566   6.889 -1.3410  0.4217 -1.1601
   48CHL1   H1B 3524   5.301   3.649   6.830 -3.7687  1.3447 -1.4028
   48CHL1    C2 3525   5.224   3.552   6.670 -0.3462  0.2901 -0.5696
   48CHL1   H2A 3526   5.181   3.647   6.632 -3.0119 -1.2369 -1.6066
   48CHL1   H2B 3527   5.148   3.476   6.643  0.3352  0.0550 -1.8752
   48CHL1   C20 3528   5.437   3.489   7.590 -0.0180  0.7018 -0.1300
   48CHL1   H20 3529   5.385   3.392   7.604  1.0856  0.3612  2.0731
   48CHL1   C21 3530   5.342   3.607   7.592 -0.0837  0.3651 -0.3984
   48CHL1  H21A 3531   5.298   3.636   7.689 -1.7295  0.7217 -1.2051
   48CHL1  H21B 3532   5.254   3.592   7.526  0.0006  1.1068 -0.6920
   48CHL1  H21C 3533   5.405   3.695   7.565  0.2709  1.1436  2.6536
   48CHL1   C22 3534   5.547   3.503   7.699 -0.3592  0.1369  0.0842
   48CHL1  H22A 3535   5.613   3.414   7.693 -0.6989 -0.2008  1.0652
   48CHL1  H22B 3536   5.606   3.597   7.691 -1.1963  0.7260  0.5692
   48CHL1   C23 3537   5.500   3.506   7.848  0.0911 -1.1653  0.5414
   48CHL1  H23A 3538   5.465   3.609   7.872  0.0049 -0.7233 -1.2852
   48CHL1  H23B 3539   5.405   3.449   7.853  0.9840 -2.5653  2.3174
   48CHL1   C24 3540   5.601   3.461   7.951  0.3685  0.1643 -0.5204
   48CHL1  H24A 3541   5.638   3.359   7.929  3.3539  0.7117  1.4324
   48CHL1  H24B 3542   5.687   3.529   7.939 -0.5723  1.8916  1.6795
   48CHL1   C25 3543   5.546   3.455   8.098 -0.1688 -0.1540 -0.9831
   48CHL1   H25 3544   5.465   3.379   8.098  0.5352 -0.9283 -0.5750
   48CHL1   C26 3545   5.655   3.412   8.203 -0.1756 -0.2536 -0.3076
   48CHL1  H26A 3546   5.735   3.490   8.208  0.0775 -0.5707  1.2647
   48CHL1  H26B 3547   5.597   3.410   8.298 -0.7001 -1.0581 -0.6406
   48CHL1  H26C 3548   5.692   3.308   8.190 -0.4948 -0.1338 -2.6328
   48CHL1   C27 3549   5.490   3.587   8.150 -0.3304 -0.4973 -0.3755
   48CHL1  H27A 3550   5.562   3.670   8.133  3.0608 -2.7056  1.8908
   48CHL1  H27B 3551   5.399   3.602   8.087 -0.5110 -0.7188 -0.1680
   48CHL1  H27C 3552   5.463   3.582   8.257  1.6052  2.6295  0.3722
   49CHL1    C3 3553   3.933   3.195   6.837 -0.1279 -0.4600  0.3776
   49CHL1    H3 3554   3.927   3.084   6.835 -0.6152 -0.4664  1.5844
   49CHL1    O3 3555   3.942   3.238   6.700 -0.0054  0.4733 -0.6423
   49CHL1   H3' 3556   3.899   3.324   6.698  0.8703  1.0448  1.7643
   49CHL1    C4 3557   3.811   3.260   6.891  0.6462  0.8084 -0.9065
   49CHL1   H4A 3558   3.814   3.370   6.872  1.0676  1.7399  3.3868
   49CHL1   H4B 3559   3.719   3.230   6.836 -1.4234  1.4802  1.8867
   49CHL1    C5 3560   3.781   3.238   7.036  0.3003  0.1718 -0.4535
   49CHL1    C6 3561   3.666   3.188   7.083 -0.2801 -0.0392 -0.9250
   49CHL1    H6 3562   3.592   3.152   7.010  1.9217  0.0225 -3.3338
   49CHL1    C7 3563   3.639   3.147   7.227  0.4231  0.1347 -0.1376
   49CHL1   H7A 3564   3.531   3.157   7.251  0.1114 -0.8317 -1.0915
   49CHL1   H7B 3565   3.653   3.037   7.234 -0.6926  0.0508  1.0967
   49CHL1    C8 3566   3.743   3.214   7.320  0.4364 -0.1280 -0.5343
   49CHL1    H8 3567   3.718   3.322   7.327 -0.5417 -0.3520 -0.3712
   49CHL1   C14 3568   3.739   3.156   7.469  0.1955 -0.2360  0.3214
   49CHL1   H14 3569   3.781   3.054   7.458  0.0504 -0.4948  2.0138
   49CHL1   C15 3570   3.601   3.154   7.530 -0.1404 -0.3667 -0.2226
   49CHL1  H15A 3571   3.559   3.256   7.513  1.8812  1.3273  3.6429
   49CHL1  H15B 3572   3.545   3.061   7.506  0.2708 -0.7176  0.1818
   49CHL1   C16 3573   3.632   3.150   7.685  0.4202  0.0120  0.1221
   49CHL1  H16A 3574   3.578   3.228   7.742  1.2675  1.3075 -0.7988
   49CHL1  H16B 3575   3.602   3.056   7.736  2.8499  0.0820  1.8989
   49CHL1   C17 3576   3.787   3.162   7.697  0.0487  0.2073 -0.5751
   49CHL1   H17 3577   3.841   3.065   7.705 -0.9331 -0.3400 -0.3510
   49CHL1   C13 3578   3.829   3.225   7.565 -0.7850  0.0834  0.6177
   49CHL1   C18 3579   3.801   3.374   7.572 -0.4750  0.0313  0.7259
   49CHL1  H18A 3580   3.818   3.414   7.470 -2.1527 -2.6046 -0.6899
   49CHL1  H18B 3581   3.699   3.407   7.603 -1.0868  2.8338 -3.4784
   49CHL1  H18C 3582   3.873   3.417   7.645  0.4723 -0.4722  0.1035
   49CHL1   C12 3583   3.967   3.191   7.517  0.1287  0.2947  0.1544
   49CHL1  H12A 3584   4.041   3.238   7.586  1.5229 -0.3221 -0.8853
   49CHL1  H12B 3585   3.981   3.081   7.514 -0.7296  0.2074 -1.7127
   49CHL1   C11 3586   3.992   3.237   7.374 -0.3111  0.3300 -0.9107
   49CHL1  H11A 3587   3.992   3.348   7.382 -2.8040  0.2765  0.6298
   49CHL1  H11B 3588   4.096   3.208   7.345  1.1331  2.9939  1.0772
   49CHL1    C9 3589   3.886   3.196   7.268 -0.7435 -0.6548  0.8741
   49CHL1    H9 3590   3.894   3.086   7.264 -0.1273 -0.5888 -0.6695
   49CHL1   C10 3591   3.910   3.263   7.127  0.2048  0.0993  0.4738
   49CHL1   C19 3592   3.919   3.420   7.147 -0.0335  0.4752 -0.1820
   49CHL1  H19A 3593   3.840   3.459   7.214  1.5617  1.1249  1.4064
   49CHL1  H19B 3594   4.012   3.444   7.204 -0.3617 -1.5932  1.3573
   49CHL1  H19C 3595   3.930   3.467   7.048  0.4721 -0.1007 -0.4115
   49CHL1    C1 3596   4.040   3.202   7.065 -0.1862 -1.0284  0.2406
   49CHL1   H1A 3597   4.126   3.235   7.128 -1.6511  0.3132  1.6564
   49CHL1   H1B 3598   4.030   3.092   7.069 -0.0067 -1.1029 -0.9900
   49CHL1    C2 3599   4.056   3.244   6.920  0.3815  0.1515  0.4024
   49CHL1   H2A 3600   4.153   3.206   6.882  1.7648  1.3095  2.5737
   49CHL1   H2B 3601   4.064   3.354   6.910 -0.0393  0.0520 -1.2270
   49CHL1   C20 3602   3.831   3.225   7.839 -0.4078  0.1902 -0.4492
   49CHL1   H20 3603   3.764   3.312   7.857  1.0874  0.6130  4.6554
   49CHL1   C21 3604   3.979   3.277   7.848  0.3553 -0.0990  0.1225
   49CHL1  H21A 3605   3.990   3.377   7.801  1.0006  0.1497  0.7906
   49CHL1  H21B 3606   4.046   3.198   7.809  0.0643 -0.6623  0.7445
   49CHL1  H21C 3607   4.001   3.300   7.954  1.3287 -0.6990  0.0571
   49CHL1   C22 3608   3.790   3.126   7.955  0.1086 -0.5392 -0.7442
   49CHL1  H22A 3609   3.688   3.087   7.930 -2.0106  3.8616  0.0882
   49CHL1  H22B 3610   3.853   3.035   7.968 -0.1916 -0.4811  1.3898
   49CHL1   C23 3611   3.778   3.184   8.092  1.0365  0.6463  0.6608
   49CHL1  H23A 3612   3.880   3.218   8.120  2.6337 -1.4778 -2.1512
   49CHL1  H23B 3613   3.715   3.275   8.081  2.3619  1.3765 -1.4906
   49CHL1   C24 3614   3.740   3.077   8.196  0.0275 -0.0230 -0.1387
   49CHL1  H24A 3615   3.643   3.028   8.170 -0.1228 -0.7236  1.6003
   49CHL1  H24B 3616   3.806   2.988   8.200 -1.5380 -1.2012  2.9128
   49CHL1   C25 3617   3.723   3.135   8.340 -0.0605  0.6382 -0.6467
   49CHL1   H25 3618   3.636   3.204   8.348 -0.2939  0.2977 -0.2281
   49CHL1   C26 3619   3.687   3.008   8.429  0.0574 -0.2596 -0.1128
   49CHL1  H26A 3620   3.664   3.046   8.531 -0.4701  0.6903 -0.5805
   49CHL1  H26B 3621   3.596   2.951   8.399 -0.9605  0.1665  1.9966
   49CHL1  H26C 3622   3.770   2.934   8.437  0.3401  0.2328  1.9824
   49CHL1   C27 3623   3.850   3.200   8.397  0.0591  0.1103 -0.4174
   49CHL1  H27A 3624   3.844   3.217   8.507  1.5305  0.7693 -0.4146
   49CHL1  H27B 3625   3.941   3.141   8.375  0.1676  0.3501 -0.6235
   49CHL1  H27C 3626   3.858   3.302   8.353  1.9017 -0.0904 -0.6439
   50CHL1    C3 3627   4.863   5.521   7.107 -0.7989  0.1741 -0.0267
   50CHL1    H3 3628   4.819   5.623   7.103  1.7483  1.4154  1.0646
   50CHL1    O3 3629   4.861   5.459   6.980 -0.0684  0.1072  0.0134
   50CHL1   H3' 3630   4.907   5.376   6.994 -1.4355 -0.5355  0.8405
   50CHL1    C4 3631   5.010   5.549   7.150  0.6822  0.1036  0.4117
   50CHL1   H4A 3632   5.073   5.463   7.120 -1.0641 -0.6149 -1.4204
   50CHL1   H4B 3633   5.037   5.631   7.080 -1.0715 -0.4107 -0.9397
   50CHL1    C5 3634   5.029   5.587   7.300 -0.4796 -0.6214 -0.2994
   50CHL1    C6 3635   5.102   5.695   7.331  0.2638 -0.1486  0.5744
   50CHL1    H6 3636   5.138   5.768   7.258 -0.4219 -1.5200 -1.2150
   50CHL1    C7 3637   5.121   5.738   7.470 -0.3992  0.7458 -0.2712
   50CHL1   H7A 3638   5.224   5.774   7.487 -1.2445  2.8031  0.8583
   50CHL1   H7B 3639   5.057   5.827   7.487 -1.9837  0.0143 -2.0034
   50CHL1    C8 3640   5.082   5.627   7.576 -0.0068 -0.1781  0.6597
   50CHL1    H8 3641   5.165   5.553   7.581 -0.0633 -0.2381  0.7142
   50CHL1   C14 3642   5.064   5.699   7.709 -0.6315  0.6084 -0.3725
   50CHL1   H14 3643   4.971   5.759   7.702 -0.6020  0.6568 -0.3431
   50CHL1   C15 3644   5.169   5.802   7.760  0.7801  0.1707 -0.4132
   50CHL1  H15A 3645   5.269   5.772   7.722  0.8250  0.8587 -0.8626
   50CHL1  H15B 3646   5.143   5.901   7.716  0.7962 -0.4216 -1.8274
   50CHL1   C16 3647   5.169   5.793   7.918 -0.1919  0.5284  0.5080
   50CHL1  H16A 3648   5.270   5.760   7.951 -0.0436 -0.4449 -0.8365
   50CHL1  H16B 3649   5.141   5.890   7.964  0.5423  0.5250  0.9833
   50CHL1   C17 3650   5.051   5.691   7.949 -0.1296  0.1075  0.2836
   50CHL1   H17 3651   4.961   5.756   7.944  0.6192  1.1418 -0.2264
   50CHL1   C13 3652   5.050   5.602   7.832 -0.4974  0.7728 -0.0749
   50CHL1   C18 3653   5.174   5.505   7.845 -0.2269  0.5975  0.4077
   50CHL1  H18A 3654   5.270   5.561   7.846 -0.1324  0.5118 -1.1336
   50CHL1  H18B 3655   5.163   5.433   7.928  1.7950  0.8279  0.9267
   50CHL1  H18C 3656   5.187   5.441   7.755 -1.9415  2.4128 -1.2363
   50CHL1   C12 3657   4.929   5.517   7.805  0.7354 -0.1196 -0.9480
   50CHL1  H12A 3658   4.927   5.424   7.867  1.1006 -0.2161 -1.0832
   50CHL1  H12B 3659   4.835   5.576   7.822  1.4633  0.9557 -0.5208
   50CHL1   C11 3660   4.917   5.464   7.661 -0.1103  0.5751 -0.7708
   50CHL1  H11A 3661   4.984   5.376   7.652 -3.6397 -2.3133 -1.5249
   50CHL1  H11B 3662   4.815   5.419   7.656 -0.5603  1.6133 -1.2249
   50CHL1    C9 3663   4.953   5.556   7.541  0.6299 -0.7559 -0.1590
   50CHL1    H9 3664   4.883   5.642   7.548  0.0334 -1.3211  1.2088
   50CHL1   C10 3665   4.959   5.501   7.403  0.6739  0.5237 -0.0964
   50CHL1   C19 3666   5.027   5.363   7.409 -0.0833  0.0503 -0.2755
   50CHL1  H19A 3667   4.953   5.286   7.441 -0.9737  1.6658  1.8323
   50CHL1  H19B 3668   5.064   5.332   7.309 -0.9035 -0.5229 -0.4124
   50CHL1  H19C 3669   5.108   5.362   7.485 -1.6760  0.9796  1.5150
   50CHL1    C1 3670   4.808   5.485   7.354  0.0387  0.6454  0.4669
   50CHL1   H1A 3671   4.749   5.411   7.412 -0.4983 -0.1337 -1.0036
   50CHL1   H1B 3672   4.757   5.583   7.358 -1.3471 -0.0858  1.2755
   50CHL1    C2 3673   4.791   5.435   7.211  0.6639 -0.1847  0.4990
   50CHL1   H2A 3674   4.682   5.430   7.192  0.5270 -3.1872  1.6261
   50CHL1   H2B 3675   4.831   5.332   7.198  0.4075 -0.3425  0.9634
   50CHL1   C20 3676   5.061   5.629   8.089  0.1380 -0.7313  0.0472
   50CHL1   H20 3677   5.019   5.526   8.093  0.0783 -0.6703  1.9734
   50CHL1   C21 3678   4.973   5.708   8.188  1.0699 -0.3952  0.0025
   50CHL1  H21A 3679   4.870   5.696   8.147 -0.3378 -0.1416  3.1837
   50CHL1  H21B 3680   5.004   5.815   8.194  0.2818 -0.0943 -0.9856
   50CHL1  H21C 3681   4.960   5.665   8.289 -0.1336  2.6748  1.3037
   50CHL1   C22 3682   5.201   5.618   8.150 -0.6736 -0.0214 -0.1643
   50CHL1  H22A 3683   5.275   5.566   8.084  0.6726  2.4687 -0.7579
   50CHL1  H22B 3684   5.250   5.716   8.172  0.7217 -1.3319  3.2533
   50CHL1   C23 3685   5.214   5.551   8.286 -0.4582  0.0409  0.3271
   50CHL1  H23A 3686   5.160   5.609   8.364  0.4524  0.8909  0.3444
   50CHL1  H23B 3687   5.173   5.448   8.276  0.4023 -0.0940 -2.8642
   50CHL1   C24 3688   5.360   5.548   8.330  0.0027 -0.3978 -0.4294
   50CHL1  H24A 3689   5.417   5.488   8.256 -1.3964 -0.1888 -1.7214
   50CHL1  H24B 3690   5.385   5.656   8.337 -0.3771 -0.3458  0.1991
   50CHL1   C25 3691   5.389   5.481   8.474  0.0298 -0.7202 -0.5802
   50CHL1   H25 3692   5.346   5.378   8.471  1.5609 -1.3578 -1.8536
   50CHL1   C26 3693   5.537   5.441   8.485  0.7473  0.3489 -0.2677
   50CHL1  H26A 3694   5.557   5.378   8.575 -1.2305 -1.9448 -1.2916
   50CHL1  H26B 3695   5.579   5.380   8.402  1.5094 -2.1723  1.8348
   50CHL1  H26C 3696   5.601   5.531   8.477  1.6507 -0.4136 -2.2080
   50CHL1   C27 3697   5.329   5.574   8.592 -0.1559 -0.0771  0.5987
   50CHL1  H27A 3698   5.401   5.645   8.638  1.5251 -2.0429  1.1659
   50CHL1  H27B 3699   5.239   5.635   8.570  1.4323  1.1242 -3.3306
   50CHL1  H27C 3700   5.319   5.496   8.670  3.3343 -0.5559  0.7162
   51CHL1    C3 3701   5.368   5.471   6.984 -0.9049  0.3147  0.0754
   51CHL1    H3 3702   5.271   5.526   6.990 -0.4514  1.2894 -1.1693
   51CHL1    O3 3703   5.386   5.441   6.844 -0.0755  0.2424 -0.5443
   51CHL1   H3' 3704   5.474   5.403   6.835 -0.6038 -0.6267 -2.7503
   51CHL1    C4 3705   5.481   5.547   7.029 -0.2095  0.1976 -0.6395
   51CHL1   H4A 3706   5.571   5.489   6.998 -0.4791  0.2266 -1.5068
   51CHL1   H4B 3707   5.504   5.638   6.969  0.2354  1.9268  1.9717
   51CHL1    C5 3708   5.498   5.577   7.180 -0.1457  0.1624  0.9114
   51CHL1    C6 3709   5.505   5.699   7.231  0.0889 -0.2443 -0.5418
   51CHL1    H6 3710   5.511   5.788   7.166 -1.3895  0.8359  0.7398
   51CHL1    C7 3711   5.519   5.727   7.376 -0.2705 -0.0134  0.1304
   51CHL1   H7A 3712   5.580   5.817   7.398 -1.3891  1.0006 -0.7752
   51CHL1   H7B 3713   5.422   5.761   7.418 -0.0136 -2.2522  2.8325
   51CHL1    C8 3714   5.566   5.611   7.458  0.0039  0.4398 -0.9636
   51CHL1    H8 3715   5.667   5.583   7.419  0.9447  0.4679  1.3073
   51CHL1   C14 3716   5.559   5.638   7.602 -0.5107 -0.0615  0.7967
   51CHL1   H14 3717   5.450   5.657   7.611 -0.9385 -1.0570 -1.4402
   51CHL1   C15 3718   5.620   5.766   7.647 -0.1319 -0.0361  0.1013
   51CHL1  H15A 3719   5.712   5.784   7.587 -1.1421  0.4755 -1.3383
   51CHL1  H15B 3720   5.554   5.852   7.622  0.7027  0.4988 -0.3158
   51CHL1   C16 3721   5.632   5.753   7.796 -0.1428  0.3601  0.2814
   51CHL1  H16A 3722   5.738   5.775   7.819 -0.4966  2.5953  0.0282
   51CHL1  H16B 3723   5.578   5.829   7.856  0.8469 -0.1043  1.7875
   51CHL1   C17 3724   5.581   5.609   7.834  0.4786  0.2268  0.3259
   51CHL1   H17 3725   5.471   5.621   7.837  0.5585  0.9513  0.3578
   51CHL1   C13 3726   5.597   5.532   7.697  0.3634 -0.8655  0.1085
   51CHL1   C18 3727   5.745   5.486   7.689 -0.3281  0.7642  0.2907
   51CHL1  H18A 3728   5.760   5.406   7.764  0.5825  1.0446  0.4161
   51CHL1  H18B 3729   5.754   5.436   7.590 -1.2844 -1.9968  1.4914
   51CHL1  H18C 3730   5.817   5.569   7.698  0.9461 -0.3962  1.1336
   51CHL1   C12 3731   5.495   5.415   7.670  0.0671  0.1086  0.1612
   51CHL1  H12A 3732   5.499   5.324   7.734  1.5432 -0.7817 -1.1102
   51CHL1  H12B 3733   5.397   5.460   7.693 -0.9922 -1.1780 -1.5409
   51CHL1   C11 3734   5.500   5.374   7.522  0.1054  0.0771 -0.1261
   51CHL1  H11A 3735   5.597   5.325   7.501 -0.5073 -1.1322 -0.1983
   51CHL1  H11B 3736   5.434   5.291   7.489  0.4626  0.3168 -1.5082
   51CHL1    C9 3737   5.475   5.489   7.419 -0.1568 -0.1873 -1.2339
   51CHL1    H9 3738   5.375   5.533   7.435  0.4749  0.6295  0.8662
   51CHL1   C10 3739   5.488   5.449   7.265 -0.2211 -0.3883  0.1410
   51CHL1   C19 3740   5.613   5.359   7.235  0.5137 -0.5318  0.4591
   51CHL1  H19A 3741   5.612   5.283   7.315 -1.5904 -1.7597 -0.6517
   51CHL1  H19B 3742   5.607   5.329   7.128  0.6703  1.4302 -0.1501
   51CHL1  H19C 3743   5.712   5.409   7.247  0.7582 -0.6426 -0.9152
   51CHL1    C1 3744   5.357   5.386   7.221 -0.7363 -0.1179  0.9787
   51CHL1   H1A 3745   5.358   5.297   7.287 -1.2113 -0.1675  0.9238
   51CHL1   H1B 3746   5.262   5.439   7.243 -0.4567  0.0894  1.7143
   51CHL1    C2 3747   5.355   5.347   7.070 -0.2298 -0.3240 -0.5250
   51CHL1   H2A 3748   5.260   5.291   7.055  0.1491 -1.6130  1.4534
   51CHL1   H2B 3749   5.431   5.274   7.038 -1.2865 -2.6901  1.9739
   51CHL1   C20 3750   5.635   5.546   7.955  0.2992 -1.1439  0.1728
   51CHL1   H20 3751   5.732   5.502   7.922  1.3155  3.3709 -4.0939
   51CHL1   C21 3752   5.540   5.442   8.003  0.4516 -0.0592 -0.0369
   51CHL1  H21A 3753   5.536   5.352   7.938 -0.3707  0.8650 -1.3010
   51CHL1  H21B 3754   5.437   5.482   7.998 -0.0748 -1.4221 -0.6248
   51CHL1  H21C 3755   5.557   5.417   8.110  0.0368  1.5154  0.4155
   51CHL1   C22 3756   5.669   5.641   8.073  0.8314 -0.6385  0.3368
   51CHL1  H22A 3757   5.742   5.717   8.037  0.4524 -0.4901 -0.1239
   51CHL1  H22B 3758   5.571   5.683   8.102  0.4764  1.1315 -2.9639
   51CHL1   C23 3759   5.748   5.575   8.196  0.7713 -0.0505  0.5152
   51CHL1  H23A 3760   5.689   5.493   8.243  0.7987 -0.8935 -0.8747
   51CHL1  H23B 3761   5.838   5.531   8.150  2.2213  0.2461  2.8565
   51CHL1   C24 3762   5.793   5.693   8.291 -0.2578 -0.7671  0.7047
   51CHL1  H24A 3763   5.846   5.773   8.235 -0.7536  1.2942  3.0229
   51CHL1  H24B 3764   5.697   5.730   8.333  1.0538  0.3601  2.8567
   51CHL1   C25 3765   5.889   5.650   8.408  0.5990 -0.4785 -0.4025
   51CHL1   H25 3766   5.852   5.555   8.453  0.6311 -0.7486 -0.9436
   51CHL1   C26 3767   6.030   5.620   8.371  0.5298 -0.3920 -0.6758
   51CHL1  H26A 3768   6.043   5.559   8.279  1.6848 -1.3585  0.1081
   51CHL1  H26B 3769   6.086   5.716   8.372  2.0516 -1.2328  1.5504
   51CHL1  H26C 3770   6.079   5.563   8.453  2.4123 -1.1167 -2.2245
   51CHL1   C27 3771   5.877   5.761   8.524 -0.3342  0.4868 -0.4693
   51CHL1  H27A 3772   5.921   5.720   8.617  0.3099  0.6545 -0.6961
   51CHL1  H27B 3773   5.933   5.849   8.487  1.3664 -1.2937 -2.4431
   51CHL1  H27C 3774   5.769   5.773   8.548 -0.4022 -0.4273 -0.2761
   52CHL1    C3 3775   0.111   0.213   7.057 -0.6280 -0.7226  0.0352
   52CHL1    H3 3776   0.216   0.206   7.019  0.4435  1.4355  2.3303
   52CHL1    O3 3777   0.019   0.191   6.955  0.3118 -0.2274  0.3044
   52CHL1   H3' 3778   0.063   0.114   6.917  0.3034 -0.9945  1.7782
   52CHL1    C4 3779   0.096   0.107   7.162 -0.4142  0.5000 -0.2685
   52CHL1   H4A 3780  -0.013   0.096   7.184 -0.3487 -1.0771 -0.5741
   52CHL1   H4B 3781   0.125   0.008   7.121 -1.6168 -0.8043  1.8297
   52CHL1    C5 3782   0.167   0.126   7.289  0.0083 -0.2516 -0.5044
   52CHL1    C6 3783   0.251   0.031   7.335 -0.2133 -0.0087 -0.0560
   52CHL1    H6 3784   0.254  -0.062   7.277 -1.0967 -0.3330  0.3930
   52CHL1    C7 3785   0.324   0.037   7.472  0.2031 -0.3420 -0.4126
   52CHL1   H7A 3786   0.308  -0.060   7.524  1.7684 -0.0747  0.6475
   52CHL1   H7B 3787   0.433   0.057   7.460 -0.2749  3.1330  0.1651
   52CHL1    C8 3788   0.266   0.158   7.550 -0.3498 -0.1388  0.3645
   52CHL1    H8 3789   0.165   0.123   7.579  0.1185 -2.4588 -0.5902
   52CHL1   C14 3790   0.352   0.185   7.674  0.4541  0.7372  0.4953
   52CHL1   H14 3791   0.455   0.208   7.640  0.4789  0.1904  0.1850
   52CHL1   C15 3792   0.365   0.068   7.769  0.8876 -0.2470 -0.0601
   52CHL1  H15A 3793   0.263   0.027   7.789  1.3646 -1.0741  0.7789
   52CHL1  H15B 3794   0.433  -0.016   7.742  0.1450 -0.7520 -0.4172
   52CHL1   C16 3795   0.429   0.140   7.896 -0.4521  0.3272 -0.0841
   52CHL1  H16A 3796   0.369   0.105   7.982  1.4256 -3.2208 -0.0524
   52CHL1  H16B 3797   0.531   0.107   7.925 -0.4486  0.0792 -0.3746
   52CHL1   C17 3798   0.426   0.292   7.874  0.1646 -0.0692 -0.0004
   52CHL1   H17 3799   0.525   0.325   7.835  0.9432  0.8295  2.5220
   52CHL1   C13 3800   0.319   0.305   7.762  0.4638  0.7814 -0.0460
   52CHL1   C18 3801   0.180   0.282   7.825 -0.0390 -0.0804 -0.8918
   52CHL1  H18A 3802   0.137   0.381   7.852 -1.4778 -0.6022 -1.1446
   52CHL1  H18B 3803   0.102   0.236   7.761  0.3982  0.1396 -1.5955
   52CHL1  H18C 3804   0.182   0.217   7.915  0.2416  0.5690 -0.4229
   52CHL1   C12 3805   0.319   0.430   7.672 -0.3330 -0.4132  0.3951
   52CHL1  H12A 3806   0.295   0.520   7.733 -0.7002  0.5035 -1.0464
   52CHL1  H12B 3807   0.422   0.432   7.632 -0.1111  3.4605  0.7653
   52CHL1   C11 3808   0.225   0.414   7.559  0.0580 -0.3334 -0.2037
   52CHL1  H11A 3809   0.118   0.415   7.589 -0.0158 -0.2139 -0.4759
   52CHL1  H11B 3810   0.237   0.500   7.489 -0.5142  0.0625  0.1763
   52CHL1    C9 3811   0.255   0.287   7.467 -0.1132  0.1099 -0.3428
   52CHL1    H9 3812   0.350   0.307   7.412 -0.3236 -0.8707 -1.1014
   52CHL1   C10 3813   0.146   0.259   7.359  0.3099 -0.3871  0.2245
   52CHL1   C19 3814  -0.002   0.264   7.411  0.5236  0.2698  0.2392
   52CHL1  H19A 3815  -0.017   0.176   7.478 -0.2077  1.0243  1.1061
   52CHL1  H19B 3816  -0.031   0.350   7.476 -0.9977 -0.1317  0.1331
   52CHL1  H19C 3817  -0.077   0.257   7.329  0.8016 -1.7737  0.1231
   52CHL1    C1 3818   0.151   0.371   7.254 -0.5416 -0.3140  0.0905
   52CHL1   H1A 3819   0.122   0.470   7.295  1.5566  0.3829  0.0113
   52CHL1   H1B 3820   0.256   0.392   7.222 -1.5807  2.6269 -1.8517
   52CHL1    C2 3821   0.071   0.341   7.119 -0.0920  0.8497 -0.5440
   52CHL1   H2A 3822   0.088   0.418   7.040 -1.4330  0.0230 -1.7019
   52CHL1   H2B 3823  -0.036   0.335   7.149  0.1287 -1.0594 -0.0303
   52CHL1   C20 3824   0.414   0.373   8.007  0.6687  0.0631 -0.1562
   52CHL1   H20 3825   0.308   0.390   8.034  1.4362  2.9913  1.3558
   52CHL1   C21 3826   0.471   0.517   7.991  0.0847 -0.2190  1.0847
   52CHL1  H21A 3827   0.456   0.586   8.077  2.5351  2.7942 -0.7259
   52CHL1  H21B 3828   0.420   0.556   7.900  0.9581 -2.0739 -0.2721
   52CHL1  H21C 3829   0.579   0.523   7.970 -0.0598  2.4245  0.7773
   52CHL1   C22 3830   0.475   0.305   8.128 -0.6302 -0.1661 -0.6143
   52CHL1  H22A 3831   0.412   0.223   8.167  1.3802 -0.4944  2.2882
   52CHL1  H22B 3832   0.571   0.264   8.090  0.1103  0.7154  0.2442
   52CHL1   C23 3833   0.517   0.384   8.257  0.0968 -0.3268 -0.5171
   52CHL1  H23A 3834   0.588   0.462   8.223 -0.1867 -0.5956 -1.7851
   52CHL1  H23B 3835   0.428   0.432   8.304  0.0502 -2.5217  1.8548
   52CHL1   C24 3836   0.590   0.302   8.365 -0.1499  0.2531 -0.1867
   52CHL1  H24A 3837   0.520   0.232   8.416  0.5880 -0.1940  0.2339
   52CHL1  H24B 3838   0.666   0.238   8.314  2.1179 -1.0317  4.2816
   52CHL1   C25 3839   0.655   0.391   8.464  0.4231  0.0667 -0.2440
   52CHL1   H25 3840   0.739   0.437   8.408  0.3856 -0.4038 -0.6859
   52CHL1   C26 3841   0.556   0.501   8.521 -0.9500  0.1130  0.6505
   52CHL1  H26A 3842   0.482   0.450   8.587  0.9327 -2.5418  0.8871
   52CHL1  H26B 3843   0.615   0.572   8.582  2.0170 -0.3624 -1.4717
   52CHL1  H26C 3844   0.521   0.560   8.434  1.7216  0.8010 -0.0363
   52CHL1   C27 3845   0.702   0.296   8.583 -0.2799 -0.1966  0.5193
   52CHL1  H27A 3846   0.770   0.214   8.552 -0.2177  0.5719 -1.5688
   52CHL1  H27B 3847   0.756   0.365   8.651 -2.0444  1.1814  0.6143
   52CHL1  H27C 3848   0.620   0.260   8.648 -0.9584  1.9633  0.9361
   53CHL1    C3 3849   2.934   2.810   7.050 -0.0223  0.1106 -0.6836
   53CHL1    H3 3850   2.923   2.705   7.086 -1.5191 -0.5160 -2.7703
   53CHL1    O3 3851   2.987   2.793   6.921 -0.3455  0.0436 -0.8312
   53CHL1   H3' 3852   2.982   2.882   6.885 -0.6585  0.5583  0.4207
   53CHL1    C4 3853   2.801   2.892   7.049  0.0350 -0.2241  0.1663
   53CHL1   H4A 3854   2.834   2.993   7.017 -1.7661 -0.3989 -2.6065
   53CHL1   H4B 3855   2.730   2.854   6.972  1.0352 -0.1793 -0.8024
   53CHL1    C5 3856   2.752   2.894   7.195 -0.7268  0.0748 -0.5340
   53CHL1    C6 3857   2.633   2.838   7.220 -0.4354  0.1465 -0.4722
   53CHL1    H6 3858   2.569   2.808   7.135 -0.4499 -0.3984 -0.2697
   53CHL1    C7 3859   2.563   2.834   7.357 -0.3751 -0.9906 -0.2495
   53CHL1   H7A 3860   2.457   2.867   7.360 -0.4001 -1.1242  0.4423
   53CHL1   H7B 3861   2.568   2.733   7.403  0.0849  0.6197  3.5522
   53CHL1    C8 3862   2.645   2.919   7.454  0.2753 -0.1741 -0.4496
   53CHL1    H8 3863   2.622   3.027   7.444 -1.5431 -0.6792 -2.5699
   53CHL1   C14 3864   2.608   2.877   7.595 -0.5493  0.0763 -0.7701
   53CHL1   H14 3865   2.653   2.777   7.613 -0.3490  0.5611  1.8092
   53CHL1   C15 3866   2.459   2.877   7.639 -0.0369  0.2084  0.7387
   53CHL1  H15A 3867   2.419   2.972   7.596 -0.9016 -0.7134 -0.6052
   53CHL1  H15B 3868   2.414   2.786   7.593  1.7194 -1.6040  2.4491
   53CHL1   C16 3869   2.460   2.871   7.790  0.2738  0.5205  0.1250
   53CHL1  H16A 3870   2.379   2.939   7.821 -1.9676 -0.9826 -2.0478
   53CHL1  H16B 3871   2.443   2.765   7.819 -1.0526  0.8186  0.4932
   53CHL1   C17 3872   2.606   2.900   7.834 -0.2217  0.3601  0.6505
   53CHL1   H17 3873   2.643   2.796   7.846 -2.1531 -0.1453  3.0947
   53CHL1   C13 3874   2.671   2.960   7.710  0.1900  0.4524  0.9757
   53CHL1   C18 3875   2.634   3.106   7.701 -0.8237  0.4821  0.2929
   53CHL1  H18A 3876   2.527   3.135   7.694 -1.0292 -0.6669 -1.7486
   53CHL1  H18B 3877   2.684   3.166   7.781  2.0638 -0.3623 -0.7474
   53CHL1  H18C 3878   2.678   3.147   7.608 -1.1078  0.0084 -0.0528
   53CHL1   C12 3879   2.828   2.945   7.692 -0.2362 -0.5894 -0.7565
   53CHL1  H12A 3880   2.869   3.018   7.765 -0.3425 -0.3599 -0.9248
   53CHL1  H12B 3881   2.858   2.843   7.725  2.8649  0.9071  1.4938
   53CHL1   C11 3882   2.873   2.986   7.556  0.0004  0.8797  0.0182
   53CHL1  H11A 3883   2.852   3.095   7.551 -3.0215  0.3942  0.3056
   53CHL1  H11B 3884   2.984   2.981   7.551  0.1078  2.5294  0.2175
   53CHL1    C9 3885   2.802   2.909   7.439 -0.0951  0.2821  0.1072
   53CHL1    H9 3886   2.823   2.801   7.452 -0.0168  0.1502 -1.0100
   53CHL1   C10 3887   2.847   2.953   7.298 -0.5660  0.6347  0.3930
   53CHL1   C19 3888   2.860   3.107   7.281 -0.1831  0.0612 -0.2618
   53CHL1  H19A 3889   2.907   3.158   7.368  0.8390 -1.1606 -0.0565
   53CHL1  H19B 3890   2.909   3.136   7.186 -2.8388 -0.2596 -1.8154
   53CHL1  H19C 3891   2.757   3.146   7.288 -0.1957 -0.2455  2.2466
   53CHL1    C1 3892   2.986   2.884   7.282 -0.1103  0.2373 -0.6969
   53CHL1   H1A 3893   3.055   2.936   7.353 -2.7415  1.6333  0.9932
   53CHL1   H1B 3894   2.978   2.776   7.307 -2.0152  0.7178  1.0835
   53CHL1    C2 3895   3.037   2.882   7.139 -0.1359  0.1995  0.2869
   53CHL1   H2A 3896   3.132   2.824   7.137  0.5873  1.3199  0.8118
   53CHL1   H2B 3897   3.066   2.985   7.107 -2.3991  1.0169  0.6286
   53CHL1   C20 3898   2.634   2.971   7.968 -0.3024 -0.1604  0.0783
   53CHL1   H20 3899   2.640   3.080   7.949  1.9859 -0.1882  0.3247
   53CHL1   C21 3900   2.780   2.941   8.021  0.8683  0.0942  0.0162
   53CHL1  H21A 3901   2.838   3.028   7.984  1.1046 -0.1231 -0.1230
   53CHL1  H21B 3902   2.816   2.845   7.977 -0.0108 -0.2223 -0.0496
   53CHL1  H21C 3903   2.788   2.922   8.130 -1.7022 -2.1037 -0.0576
   53CHL1   C22 3904   2.528   2.944   8.072 -0.1975 -0.0132  0.1596
   53CHL1  H22A 3905   2.419   2.938   8.049 -0.7255  0.9747  2.2181
   53CHL1  H22B 3906   2.547   2.845   8.118  1.6561 -1.1232 -2.7175
   53CHL1   C23 3907   2.536   3.048   8.187  0.5022  0.5516 -0.2870
   53CHL1  H23A 3908   2.643   3.049   8.219 -0.1974 -1.7469  2.5429
   53CHL1  H23B 3909   2.505   3.147   8.147  1.4844  0.3445 -1.6312
   53CHL1   C24 3910   2.452   3.006   8.300 -0.1796 -0.4095  0.1979
   53CHL1  H24A 3911   2.346   2.993   8.268  0.3976  0.0304 -2.1451
   53CHL1  H24B 3912   2.495   2.916   8.350  0.0366  0.4205  1.5301
   53CHL1   C25 3913   2.456   3.110   8.416  0.1249  0.0546 -1.1481
   53CHL1   H25 3914   2.559   3.112   8.458 -0.8233 -2.3211  1.6118
   53CHL1   C26 3915   2.402   3.252   8.387 -0.3307  0.0824 -0.7311
   53CHL1  H26A 3916   2.308   3.242   8.329  1.9111 -0.1418 -4.6758
   53CHL1  H26B 3917   2.394   3.315   8.479  1.4457  0.0909 -0.5548
   53CHL1  H26C 3918   2.468   3.314   8.323 -0.8111  1.0620 -0.3141
   53CHL1   C27 3919   2.370   3.065   8.529  0.0519  0.6524  0.3648
   53CHL1  H27A 3920   2.266   3.051   8.493  0.4083  0.0894 -0.4828
   53CHL1  H27B 3921   2.404   2.969   8.573  3.3026  1.5702  0.0808
   53CHL1  H27C 3922   2.376   3.138   8.612 -1.2687  1.4295 -0.1993
   54CHL1    C3 3923   3.056   4.204   7.178  0.7049 -0.0389  0.1085
   54CHL1    H3 3924   3.054   4.109   7.235  2.4119  0.0678  0.4011
   54CHL1    O3 3925   3.013   4.186   7.043  0.2694  0.1001 -0.2543
   54CHL1   H3' 3926   3.002   4.273   7.004  0.1676  1.0926  1.8425
   54CHL1    C4 3927   2.967   4.310   7.239  0.5933 -0.5272  0.3514
   54CHL1   H4A 3928   2.971   4.406   7.183  1.0176 -0.7063  0.0686
   54CHL1   H4B 3929   2.863   4.271   7.234  0.6915 -1.3458  2.9976
   54CHL1    C5 3930   3.005   4.343   7.380  0.2899 -0.0078  0.7545
   54CHL1    C6 3931   2.911   4.335   7.482 -0.6558  0.5282  0.2372
   54CHL1    H6 3932   2.805   4.310   7.466  0.0380 -1.1286 -2.4085
   54CHL1    C7 3933   2.954   4.343   7.627  0.1985  0.6567 -0.6099
   54CHL1   H7A 3934   2.873   4.390   7.686  1.0687 -0.2612  1.4038
   54CHL1   H7B 3935   2.956   4.240   7.669 -0.9880  0.5938 -0.6806
   54CHL1    C8 3936   3.088   4.410   7.657  0.5466  0.2297 -0.1427
   54CHL1    H8 3937   3.077   4.519   7.636  1.1511  0.5636  1.1628
   54CHL1   C14 3938   3.133   4.391   7.801  0.1783  0.3444 -0.4065
   54CHL1   H14 3939   3.147   4.282   7.812 -2.0149 -0.0904 -1.3938
   54CHL1   C15 3940   3.025   4.419   7.913  0.2968 -0.2550 -1.0196
   54CHL1  H15A 3941   2.952   4.501   7.895 -0.8764 -0.1446  3.1856
   54CHL1  H15B 3942   2.966   4.326   7.927  2.2545 -1.3130  0.7986
   54CHL1   C16 3943   3.120   4.451   8.034  0.3295  0.6026  0.2825
   54CHL1  H16A 3944   3.104   4.557   8.062 -1.7903 -0.2245  2.5883
   54CHL1  H16B 3945   3.082   4.395   8.122  0.3833  0.2212  0.0677
   54CHL1   C17 3946   3.266   4.427   7.986  0.5017 -0.4632  0.2422
   54CHL1   H17 3947   3.267   4.317   8.000  1.2436 -0.5498 -0.4293
   54CHL1   C13 3948   3.267   4.463   7.842 -0.7496 -0.2987  0.5576
   54CHL1   C18 3949   3.253   4.614   7.827  0.1702  0.3592  0.7560
   54CHL1  H18A 3950   3.177   4.659   7.894 -0.2048  0.1466  0.4777
   54CHL1  H18B 3951   3.349   4.664   7.848  0.9226 -0.7759  0.1185
   54CHL1  H18C 3952   3.223   4.642   7.723  3.1026  3.0021  0.4827
   54CHL1   C12 3953   3.375   4.415   7.748 -0.6471  0.0349  0.1675
   54CHL1  H12A 3954   3.474   4.462   7.768  0.7904 -1.9193 -1.8474
   54CHL1  H12B 3955   3.381   4.308   7.778 -2.5236 -0.0022  0.4741
   54CHL1   C11 3956   3.338   4.426   7.600 -0.1008  0.0032  0.0947
   54CHL1  H11A 3957   3.328   4.533   7.572 -2.8629 -0.4252 -0.8533
   54CHL1  H11B 3958   3.417   4.379   7.537 -0.2388  1.8516 -1.5462
   54CHL1    C9 3959   3.196   4.359   7.564 -0.2410 -0.3214  0.1747
   54CHL1    H9 3960   3.205   4.252   7.591 -1.0841 -0.7787 -1.2902
   54CHL1   C10 3961   3.152   4.365   7.410 -0.3706  1.0073 -0.1609
   54CHL1   C19 3962   3.172   4.513   7.364  0.1151 -0.7296  0.0167
   54CHL1  H19A 3963   3.122   4.543   7.270  0.3059 -0.8285 -0.1153
   54CHL1  H19B 3964   3.135   4.579   7.445  2.8410  1.3411 -0.3067
   54CHL1  H19C 3965   3.280   4.533   7.351  0.0591  0.3283  1.0419
   54CHL1    C1 3966   3.245   4.267   7.331 -0.6452 -0.5105  0.2855
   54CHL1   H1A 3967   3.347   4.311   7.326 -1.6495  1.9149 -0.5365
   54CHL1   H1B 3968   3.259   4.168   7.379  2.5845 -1.1454 -1.7020
   54CHL1    C2 3969   3.205   4.247   7.179 -0.0343  0.0172 -0.9201
   54CHL1   H2A 3970   3.268   4.172   7.126 -0.8993  0.0024 -1.9728
   54CHL1   H2B 3971   3.220   4.329   7.106  1.2685 -2.1611 -3.3039
   54CHL1   C20 3972   3.362   4.500   8.083  0.6284 -0.0634 -0.7225
   54CHL1   H20 3973   3.344   4.609   8.086  1.0707 -0.0020 -0.1412
   54CHL1   C21 3974   3.503   4.468   8.046 -0.0238 -0.7550  0.1331
   54CHL1  H21A 3975   3.538   4.517   7.953 -1.7663  0.0309 -0.1455
   54CHL1  H21B 3976   3.523   4.363   8.015 -1.5374 -0.8092 -0.7785
   54CHL1  H21C 3977   3.577   4.480   8.128  1.1371 -0.8493 -0.8791
   54CHL1   C22 3978   3.332   4.449   8.234  0.0183 -0.7498  0.3476
   54CHL1  H22A 3979   3.232   4.492   8.260  0.4370  0.1587  0.4839
   54CHL1  H22B 3980   3.337   4.339   8.220  0.2524 -0.3984 -3.6228
   54CHL1   C23 3981   3.434   4.500   8.335 -0.2605  0.3373 -0.0095
   54CHL1  H23A 3982   3.527   4.440   8.324  0.4328  1.4693 -0.4273
   54CHL1  H23B 3983   3.475   4.600   8.309  1.6908 -0.7042 -1.2225
   54CHL1   C24 3984   3.368   4.520   8.469 -0.4677 -0.5003  0.5505
   54CHL1  H24A 3985   3.324   4.622   8.476 -0.9593 -0.8054  2.2969
   54CHL1  H24B 3986   3.287   4.446   8.480 -0.3220 -0.8700 -0.7238
   54CHL1   C25 3987   3.464   4.497   8.590 -0.1110 -0.5555  0.0758
   54CHL1   H25 3988   3.515   4.401   8.566  1.1622  0.3370 -0.9156
   54CHL1   C26 3989   3.570   4.611   8.591  0.5640 -0.6136 -0.3105
   54CHL1  H26A 3990   3.519   4.704   8.625 -0.7908 -1.0376 -1.0928
   54CHL1  H26B 3991   3.642   4.588   8.673 -0.3923 -1.8614  0.2160
   54CHL1  H26C 3992   3.622   4.623   8.494  0.6534 -0.6569 -0.2672
   54CHL1   C27 3993   3.392   4.483   8.723  0.2195 -0.4390 -0.3879
   54CHL1  H27A 3994   3.331   4.392   8.739 -0.9713  0.2318 -0.9284
   54CHL1  H27B 3995   3.471   4.487   8.802  0.4538 -2.0675 -0.5154
   54CHL1  H27C 3996   3.329   4.573   8.744  1.1793  0.7854 -2.4329
   55CHL1    C3 3997   1.741   4.695   7.018  0.1128  0.2730 -0.3607
   55CHL1    H3 3998   1.846   4.729   7.022  1.6553 -3.9832  0.1379
   55CHL1    O3 3999   1.707   4.633   6.892 -0.2491 -0.3909 -0.0326
   55CHL1   H3' 4000   1.615   4.606   6.892 -0.0551 -1.1178 -1.6210
   55CHL1    C4 4001   1.706   4.587   7.124 -0.6327 -0.0178 -0.0374
   55CHL1   H4A 4002   1.599   4.559   7.118 -0.9130  1.2374 -2.0691
   55CHL1   H4B 4003   1.756   4.503   7.071 -1.6412  0.3418 -1.6232
   55CHL1    C5 4004   1.746   4.625   7.264  0.1727  0.4716  0.1244
   55CHL1    C6 4005   1.842   4.566   7.332 -0.3893  0.6017  0.1614
   55CHL1    H6 4006   1.912   4.490   7.294 -1.1424 -1.6625  2.9643
   55CHL1    C7 4007   1.866   4.592   7.480 -0.5164  0.3835  0.6739
   55CHL1   H7A 4008   1.875   4.500   7.542 -2.3080 -0.5773 -0.4121
   55CHL1   H7B 4009   1.967   4.638   7.491  1.4869 -2.6896 -2.6674
   55CHL1    C8 4010   1.749   4.689   7.542 -0.1980  0.8261 -0.5794
   55CHL1    H8 4011   1.665   4.617   7.548  1.4891 -1.1796  0.1218
   55CHL1   C14 4012   1.789   4.748   7.674 -0.6135  0.2182 -0.4995
   55CHL1   H14 4013   1.866   4.820   7.639 -0.2029  0.1025  0.1463
   55CHL1   C15 4014   1.862   4.655   7.770  0.0863  0.3846  0.5673
   55CHL1  H15A 4015   1.798   4.564   7.771 -1.3135  1.3152  2.6223
   55CHL1  H15B 4016   1.964   4.619   7.744  0.8832  3.0839 -0.4915
   55CHL1   C16 4017   1.859   4.733   7.906  0.2015 -0.7788  0.7486
   55CHL1  H16A 4018   1.803   4.669   7.978 -2.0586  0.6016  0.3030
   55CHL1  H16B 4019   1.961   4.757   7.943  1.5750 -0.6950 -2.6921
   55CHL1   C17 4020   1.779   4.866   7.875 -0.3727 -0.0316 -0.0411
   55CHL1   H17 4021   1.862   4.937   7.855  1.3877 -1.0277  3.1747
   55CHL1   C13 4022   1.694   4.844   7.747 -0.2878 -0.0297 -0.1273
   55CHL1   C18 4023   1.562   4.765   7.782  0.1330 -0.0521  0.2739
   55CHL1  H18A 4024   1.575   4.699   7.870  0.6722 -1.1733 -0.6140
   55CHL1  H18B 4025   1.475   4.833   7.789  0.1644  0.0252 -0.0328
   55CHL1  H18C 4026   1.546   4.697   7.695 -0.7553 -0.9736  1.1410
   55CHL1   C12 4027   1.659   4.960   7.648 -0.1219  0.4034 -0.6241
   55CHL1  H12A 4028   1.570   5.016   7.683 -2.3793 -0.9221 -3.7746
   55CHL1  H12B 4029   1.751   5.021   7.639  1.7404 -1.9420  1.2429
   55CHL1   C11 4030   1.625   4.904   7.508 -0.6576  0.9284 -0.2091
   55CHL1  H11A 4031   1.531   4.846   7.521 -0.6973  0.8034 -0.9795
   55CHL1  H11B 4032   1.620   4.992   7.440  3.6694  1.0281 -0.6827
   55CHL1    C9 4033   1.721   4.803   7.448  0.3557  0.1920  0.1360
   55CHL1    H9 4034   1.817   4.855   7.430 -0.1122  0.5853 -1.4117
   55CHL1   C10 4035   1.665   4.753   7.311 -0.3916 -0.6055  0.0681
   55CHL1   C19 4036   1.516   4.712   7.322 -0.2168 -0.1235 -0.3138
   55CHL1  H19A 4037   1.496   4.662   7.419 -1.4988 -0.1680 -0.5757
   55CHL1  H19B 4038   1.444   4.798   7.326 -0.3285 -0.2320  0.0927
   55CHL1  H19C 4039   1.480   4.644   7.242  2.3656 -0.9642 -0.8224
   55CHL1    C1 4040   1.678   4.863   7.203 -1.0649  0.1869 -0.2904
   55CHL1   H1A 4041   1.619   4.954   7.226 -0.2485  0.9865 -1.2686
   55CHL1   H1B 4042   1.784   4.895   7.197  0.1864 -3.2466  1.0211
   55CHL1    C2 4043   1.645   4.809   7.064 -0.0807 -0.0072 -0.0436
   55CHL1   H2A 4044   1.673   4.879   6.982  1.9376 -2.6768 -1.8458
   55CHL1   H2B 4045   1.539   4.776   7.056  0.6101 -2.0408 -1.7213
   55CHL1   C20 4046   1.711   4.925   8.001  0.3506  0.3680 -0.5304
   55CHL1   H20 4047   1.643   4.842   8.031  0.4252  0.6077  0.3176
   55CHL1   C21 4048   1.625   5.049   7.951  0.3206  0.1885  0.0766
   55CHL1  H21A 4049   1.528   5.013   7.909  0.7298 -1.9506  0.8327
   55CHL1  H21B 4050   1.677   5.113   7.877 -0.2078  2.2069  1.3632
   55CHL1  H21C 4051   1.593   5.108   8.040  0.8630 -0.6186  0.8197
   55CHL1   C22 4052   1.800   4.956   8.126 -0.1853  0.3523 -0.0420
   55CHL1  H22A 4053   1.882   4.881   8.130  1.3219  1.9745  1.0885
   55CHL1  H22B 4054   1.846   5.058   8.121 -1.2693  0.9035  0.9258
   55CHL1   C23 4055   1.729   4.949   8.262 -0.0800  1.0054 -0.0836
   55CHL1  H23A 4056   1.635   5.007   8.273  0.3018  1.5728  0.2334
   55CHL1  H23B 4057   1.713   4.840   8.273  3.0863  0.4413 -0.1244
   55CHL1   C24 4058   1.816   4.991   8.374 -0.3190 -0.5755 -0.2014
   55CHL1  H24A 4059   1.902   4.921   8.382 -0.8614 -1.2005  0.2981
   55CHL1  H24B 4060   1.844   5.093   8.339 -1.0212 -0.7989 -1.4593
   55CHL1   C25 4061   1.747   4.985   8.509 -0.4430  0.0380 -0.0935
   55CHL1   H25 4062   1.636   4.994   8.498 -0.6793  0.6385  2.3182
   55CHL1   C26 4063   1.767   4.851   8.585 -0.3697  0.4494  0.2063
   55CHL1  H26A 4064   1.876   4.839   8.605 -0.1176  0.2781 -1.1506
   55CHL1  H26B 4065   1.717   4.857   8.684 -2.5819 -0.1419 -0.8095
   55CHL1  H26C 4066   1.723   4.765   8.530 -2.2966  0.5688  1.4864
   55CHL1   C27 4067   1.787   5.109   8.594  0.3882 -0.0261  0.4756
   55CHL1  H27A 4068   1.884   5.103   8.647  0.3793  0.5179  0.5606
   55CHL1  H27B 4069   1.793   5.195   8.524  1.5628 -0.9026 -0.5218
   55CHL1  H27C 4070   1.694   5.125   8.653 -0.3003 -0.2047 -0.5422
   56CHL1    C3 4071   1.518   3.975   7.062  0.3093  0.1780  0.1390
   56CHL1    H3 4072   1.490   3.871   7.090  1.4098 -0.2676 -0.3620
   56CHL1    O3 4073   1.512   3.989   6.922 -0.3089 -0.4462  0.0594
   56CHL1   H3' 4074   1.598   3.958   6.892 -0.7466 -2.2026  0.4979
   56CHL1    C4 4075   1.410   4.065   7.126 -0.2037 -0.6726 -0.1792
   56CHL1   H4A 4076   1.422   4.166   7.081 -1.8980  0.1601  1.1267
   56CHL1   H4B 4077   1.314   4.025   7.087 -0.4193  0.7105 -1.1451
   56CHL1    C5 4078   1.422   4.073   7.278  0.1012  0.2998 -0.3963
   56CHL1    C6 4079   1.322   4.033   7.361 -0.2155 -0.4490 -0.5004
   56CHL1    H6 4080   1.227   4.006   7.313 -0.9017  1.7758 -0.5021
   56CHL1    C7 4081   1.315   4.055   7.513  0.8285  0.7313 -0.4717
   56CHL1   H7A 4082   1.218   4.106   7.533  2.2856  3.1083  1.0694
   56CHL1   H7B 4083   1.320   3.959   7.568 -0.1854  0.7707 -0.2819
   56CHL1    C8 4084   1.429   4.157   7.565  0.7568 -0.1319 -0.5843
   56CHL1    H8 4085   1.410   4.264   7.540  0.4699 -0.0839 -0.1658
   56CHL1   C14 4086   1.436   4.143   7.717  0.0890  0.7813  0.5671
   56CHL1   H14 4087   1.453   4.037   7.742  0.3726  0.8632  0.7242
   56CHL1   C15 4088   1.315   4.178   7.801  0.3347 -0.2433 -0.1218
   56CHL1  H15A 4089   1.253   4.261   7.762  0.0012 -1.0170 -1.2795
   56CHL1  H15B 4090   1.246   4.091   7.796  0.7135 -0.7109  1.7818
   56CHL1   C16 4091   1.370   4.188   7.944  0.2121  0.2306  0.5531
   56CHL1  H16A 4092   1.339   4.284   7.991 -1.1133  0.1864 -0.1843
   56CHL1  H16B 4093   1.332   4.100   8.001 -0.9980  0.3681 -0.0148
   56CHL1   C17 4094   1.528   4.178   7.933  0.6477 -0.7927 -0.5935
   56CHL1   H17 4095   1.559   4.072   7.945  0.3803 -1.0486 -1.9924
   56CHL1   C13 4096   1.555   4.218   7.781 -0.1231 -0.6216 -0.8186
   56CHL1   C18 4097   1.531   4.372   7.766  0.2525  0.6288 -0.4056
   56CHL1  H18A 4098   1.489   4.424   7.855  0.2695 -0.8963  0.5448
   56CHL1  H18B 4099   1.627   4.426   7.760 -0.3108  1.9049  1.2197
   56CHL1  H18C 4100   1.465   4.402   7.682  0.4782  1.4228 -0.3014
   56CHL1   C12 4101   1.686   4.170   7.717 -0.4452  0.5409 -0.1441
   56CHL1  H12A 4102   1.760   4.249   7.744 -0.5532  0.7324 -0.3978
   56CHL1  H12B 4103   1.703   4.063   7.743 -0.4418  0.6073  0.1240
   56CHL1   C11 4104   1.678   4.184   7.558  0.3817 -0.3890 -1.2382
   56CHL1  H11A 4105   1.693   4.290   7.530  0.5592 -0.9157 -3.2988
   56CHL1  H11B 4106   1.768   4.134   7.515  0.5463 -0.9323 -0.2887
   56CHL1    C9 4107   1.558   4.114   7.495 -0.8460  0.2742  0.1731
   56CHL1    H9 4108   1.574   4.006   7.518  0.9986  0.8302  1.8238
   56CHL1   C10 4109   1.552   4.119   7.339 -1.1642 -0.0297 -0.4785
   56CHL1   C19 4110   1.578   4.260   7.286  0.2154 -0.6270  0.7556
   56CHL1  H19A 4111   1.551   4.278   7.180  1.3307  1.2999  0.7709
   56CHL1  H19B 4112   1.515   4.339   7.331 -0.7529  0.3287 -2.0458
   56CHL1  H19C 4113   1.686   4.276   7.305  0.2137  0.5451 -0.1166
   56CHL1    C1 4114   1.649   4.020   7.276  0.4296 -0.3033  1.3903
   56CHL1   H1A 4115   1.754   4.029   7.309  0.3108  0.2998  1.6161
   56CHL1   H1B 4116   1.620   3.917   7.307 -3.7238  0.3741  0.4621
   56CHL1    C2 4117   1.652   4.020   7.120 -0.5510  0.2050 -0.5767
   56CHL1   H2A 4118   1.735   3.952   7.092  0.4077  0.7596  0.7918
   56CHL1   H2B 4119   1.674   4.121   7.079  2.5499  0.3975  1.2515
   56CHL1   C20 4120   1.592   4.264   8.048  0.1508 -0.5270 -0.5053
   56CHL1   H20 4121   1.547   4.366   8.043  0.7241 -0.2228  0.4490
   56CHL1   C21 4122   1.746   4.272   8.034 -0.6727 -0.4624  1.0648
   56CHL1  H21A 4123   1.775   4.348   7.958  0.0288 -1.7107  0.0509
   56CHL1  H21B 4124   1.784   4.174   7.998  0.7812  0.6079 -0.4606
   56CHL1  H21C 4125   1.795   4.308   8.127 -1.7926  0.8934  1.1687
   56CHL1   C22 4126   1.556   4.202   8.180 -0.3813 -0.7751  0.1152
   56CHL1  H22A 4127   1.446   4.187   8.185 -0.5313 -0.5704 -2.0154
   56CHL1  H22B 4128   1.600   4.101   8.197  0.3741 -0.1167  2.5519
   56CHL1   C23 4129   1.590   4.291   8.301 -0.1184  0.1042  0.9321
   56CHL1  H23A 4130   1.700   4.309   8.300  0.0072 -0.6145  1.3819
   56CHL1  H23B 4131   1.544   4.391   8.282 -0.8815 -0.9085 -3.7678
   56CHL1   C24 4132   1.539   4.250   8.434  0.1637  0.2220  0.2289
   56CHL1  H24A 4133   1.428   4.258   8.443 -0.3223 -3.4150 -0.8005
   56CHL1  H24B 4134   1.561   4.141   8.442 -1.2420 -0.0614  0.6420
   56CHL1   C25 4135   1.599   4.316   8.560 -0.0137  0.5577 -0.3872
   56CHL1   H25 4136   1.709   4.309   8.551 -0.0760 -0.0356 -0.7789
   56CHL1   C26 4137   1.570   4.470   8.577  0.8925 -0.7299 -0.1204
   56CHL1  H26A 4138   1.463   4.488   8.600  0.7365 -0.7065 -0.8400
   56CHL1  H26B 4139   1.586   4.509   8.474 -0.2189 -1.5978 -0.6421
   56CHL1  H26C 4140   1.643   4.521   8.644  1.0205 -2.1594  0.8732
   56CHL1   C27 4141   1.541   4.237   8.682  0.2116  0.4587 -0.3330
   56CHL1  H27A 4142   1.432   4.259   8.689  0.2848  0.5130  0.9642
   56CHL1  H27B 4143   1.562   4.132   8.652 -0.8526 -0.9423  3.2245
   56CHL1  H27C 4144   1.596   4.277   8.770  1.5251 -1.0039 -0.4444
   57SAPC     N 4145   2.011   0.969  11.173  0.1080 -0.1277  0.6865
   57SAPC   C12 4146   1.968   1.100  11.110 -0.6716  0.9848  0.1306
   57SAPC  H12A 4147   2.043   1.178  11.116  2.3682 -1.7119  0.3097
   57SAPC  H12B 4148   1.881   1.132  11.164 -1.7236  0.6942 -1.3348
   57SAPC   C13 4149   2.059   0.991  11.315 -0.6178 -0.3892  0.3572
   57SAPC  H13A 4150   2.091   0.899  11.361  0.6230 -0.4005 -0.4843
   57SAPC  H13B 4151   2.144   1.055  11.304  1.0995 -2.6963 -0.6051
   57SAPC  H13C 4152   1.984   1.045  11.371 -0.9260  0.3354 -0.7301
   57SAPC   C14 4153   1.907   0.866  11.178  0.5711  0.1579  0.5850
   57SAPC  H14A 4154   1.938   0.768  11.211 -0.8709  0.5670  3.4118
   57SAPC  H14B 4155   1.830   0.887  11.251  0.9871  0.3505  0.9728
   57SAPC  H14C 4156   1.863   0.848  11.081  0.5512  1.8769  0.2422
   57SAPC   C15 4157   2.118   0.900  11.101 -0.4471  0.2522 -0.5685
   57SAPC  H15A 4158   2.210   0.956  11.101 -0.1074 -0.2989 -0.1351
   57SAPC  H15B 4159   2.121   0.801  11.142  0.8967  0.7129  0.5171
   57SAPC  H15C 4160   2.089   0.893  10.997 -0.8925  2.9085 -0.7010
   57SAPC   C11 4161   1.927   1.087  10.962 -0.4603 -0.6021  0.1850
   57SAPC  H11A 4162   1.857   1.002  10.946 -1.0309  0.0574 -0.9578
   57SAPC  H11B 4163   2.012   1.060  10.896  0.4862 -1.4518  1.6997
   57SAPC     P 4164   1.948   1.328  10.873  0.2949 -0.2910 -0.4325
   57SAPC   O13 4165   1.857   1.447  10.891  0.1671  0.0745 -0.3764
   57SAPC   O14 4166   2.083   1.322  10.939  0.2920  0.0173 -0.5118
   57SAPC   O12 4167   1.865   1.206  10.915 -0.3735 -0.4516 -0.0325
   57SAPC   O11 4168   1.973   1.301  10.716 -0.4423 -0.0997  0.5823
   57SAPC    C1 4169   1.844   1.326  10.642  0.1956  0.3371  0.4842
   57SAPC    HA 4170   1.768   1.252  10.675  0.8799 -0.3954  0.4531
   57SAPC    HB 4171   1.807   1.429  10.663 -0.6346  0.1341  0.0226
   57SAPC    C2 4172   1.862   1.329  10.483 -0.4925  0.6353  0.1011
   57SAPC    HS 4173   1.764   1.357  10.440 -1.8102  0.5669  2.8463
   57SAPC   O21 4174   1.903   1.194  10.438  0.4373  0.1451 -0.4412
   57SAPC   C21 4175   1.875   1.177  10.313  0.5308  0.0026 -0.1867
   57SAPC   O22 4176   1.797   1.237  10.246  0.1979 -0.2918 -0.5706
   57SAPC   C22 4177   1.974   1.065  10.255 -1.0549 -0.0506  0.3497
   57SAPC   H2R 4178   2.073   1.112  10.235 -1.9750  1.4598 -0.8941
   57SAPC   H2S 4179   1.981   0.987  10.334  3.0785  0.0856  0.3026
   57SAPC    C3 4180   1.970   1.434  10.441  0.4909  1.2277 -0.7318
   57SAPC    HX 4181   2.066   1.390  10.477 -0.1229  0.4227 -0.0304
   57SAPC    HY 4182   1.950   1.518  10.511 -0.1266  0.6926 -0.2493
   57SAPC   O31 4183   1.967   1.455  10.297 -0.1581 -0.1986 -0.6073
   57SAPC   C31 4184   1.866   1.526  10.258  0.7114 -0.3958 -0.0406
   57SAPC   O32 4185   1.776   1.571  10.324 -0.3424 -0.4370  0.1130
   57SAPC   C32 4186   1.880   1.539  10.102  0.0566  0.0081  0.0686
   57SAPC   H2X 4187   1.907   1.444  10.052 -3.2512 -0.0998 -1.7813
   57SAPC   H2Y 4188   1.949   1.619  10.067  1.4271 -1.2591 -0.2543
   57SAPC   C23 4189   1.922   1.009  10.117  0.4089 -0.1297 -0.9675
   57SAPC   H3R 4190   1.909   1.092  10.046 -0.3456  0.2482 -0.4036
   57SAPC   H3S 4191   1.819   0.967  10.127  0.5856 -0.4827 -0.5669
   57SAPC   C24 4192   2.028   0.919  10.057  0.4908  0.3252  0.0311
   57SAPC   H4R 4193   2.052   0.829  10.118  1.9758  0.7393  0.0851
   57SAPC   H4S 4194   2.114   0.987  10.042  0.8054  0.0120  0.4025
   57SAPC   C25 4195   1.976   0.865   9.922 -0.0289 -0.1481 -0.5564
   57SAPC   H5R 4196   1.899   0.788   9.938  1.7645 -1.7104  1.1632
   57SAPC   C26 4197   2.003   0.924   9.797  0.3492 -0.6683  0.3920
   57SAPC   H6R 4198   1.965   0.874   9.707  0.4156 -1.4958  0.8063
   57SAPC   C27 4199   2.089   1.045   9.768 -0.7254  0.3742  0.3945
   57SAPC   H7R 4200   2.120   1.029   9.663 -0.5193 -3.1398  0.8699
   57SAPC   H7S 4201   2.182   1.032   9.828 -0.3591  0.4294 -0.1585
   57SAPC   C28 4202   2.053   1.187   9.801 -0.0409  0.8737  0.4368
   57SAPC   H8R 4203   2.013   1.206   9.902  0.5910 -0.4480  0.9545
   57SAPC   C29 4204   2.052   1.296   9.728  0.1669  0.2253  0.6272
   57SAPC   H9R 4205   2.028   1.395   9.769 -2.3334  1.7737 -3.8276
   57SAPC  C210 4206   2.094   1.306   9.588 -0.1786 -0.5001  0.1236
   57SAPC  H10R 4207   2.185   1.243   9.575  0.2742  0.0720  0.4389
   57SAPC  H10S 4208   2.144   1.403   9.565  1.4994 -1.9638 -3.1539
   57SAPC  C211 4209   1.996   1.268   9.483 -0.4974 -0.2688  0.1420
   57SAPC  H11R 4210   1.890   1.287   9.502 -0.8164 -1.8625  0.0895
   57SAPC  C212 4211   2.030   1.206   9.370 -0.1020 -0.1487  0.2305
   57SAPC  H12R 4212   1.949   1.184   9.298 -0.3294  1.7023 -0.1246
   57SAPC  C213 4213   2.171   1.182   9.320  0.1314  0.6034  0.4996
   57SAPC  H13R 4214   2.174   1.116   9.230  0.4592  1.3696 -0.0684
   57SAPC  H13S 4215   2.216   1.123   9.402  0.2304  1.0751  0.7842
   57SAPC  C214 4216   2.257   1.299   9.290  0.6132 -0.3208 -0.2135
   57SAPC  H14R 4217   2.289   1.365   9.372  0.1066  1.6010 -1.4958
   57SAPC  C215 4218   2.301   1.334   9.168 -0.1778 -0.5128 -0.9092
   57SAPC  H15R 4219   2.366   1.423   9.164  0.7218 -1.0376  0.9447
   57SAPC  C216 4220   2.284   1.261   9.036 -0.4813 -0.3468  0.4752
   57SAPC  H16R 4221   2.185   1.289   8.993  0.1985 -1.0695 -1.6501
   57SAPC  H16S 4222   2.296   1.151   9.053 -2.0585 -0.6319 -0.1034
   57SAPC  C217 4223   2.392   1.280   8.930 -0.0252 -0.1644 -0.2100
   57SAPC  H17R 4224   2.477   1.229   8.979 -1.3847 -0.8531  1.5335
   57SAPC  H17S 4225   2.417   1.387   8.920  3.8605 -0.8882  0.4394
   57SAPC  C218 4226   2.377   1.201   8.795 -0.0804  0.1348 -0.2497
   57SAPC  H18R 4227   2.277   1.212   8.748 -1.1439  0.0520  1.8675
   57SAPC  H18S 4228   2.391   1.093   8.816 -0.2797  0.0474 -0.5594
   57SAPC  C219 4229   2.481   1.251   8.696 -1.0600  0.4830  1.2620
   57SAPC  H19R 4230   2.565   1.285   8.760 -0.4972 -0.7979  1.2270
   57SAPC  H19S 4231   2.439   1.344   8.652 -2.0030  0.7922  2.7159
   57SAPC  C220 4232   2.519   1.136   8.595 -0.0707 -0.3020 -0.1373
   57SAPC  H20R 4233   2.426   1.093   8.554 -1.1754  0.7893  1.1344
   57SAPC  H20S 4234   2.565   1.062   8.664  2.4968  2.2208  1.0845
   57SAPC  H20T 4235   2.575   1.156   8.501  1.7202 -0.2272  0.8958
   57SAPC   C33 4236   1.735   1.543  10.043 -0.0830  0.3416 -0.3889
   57SAPC   H3X 4237   1.671   1.608  10.105  1.0805 -0.0358  1.2680
   57SAPC   H3Y 4238   1.703   1.438  10.061  0.6417  0.1737 -0.0513
   57SAPC   C34 4239   1.711   1.584   9.900 -0.8309  0.2916 -0.1530
   57SAPC   H4X 4240   1.738   1.691   9.887  1.0699 -0.1626 -0.1417
   57SAPC   H4Y 4241   1.603   1.557   9.889 -0.4007 -1.2438 -0.8061
   57SAPC   C35 4242   1.794   1.500   9.799  0.8227 -0.0060  0.4213
   57SAPC   H5X 4243   1.819   1.400   9.840 -2.4782 -1.2798 -0.3500
   57SAPC   H5Y 4244   1.890   1.551   9.778  0.9288 -0.3783 -0.0096
   57SAPC   C36 4245   1.720   1.496   9.673 -0.2267 -0.2915  0.1668
   57SAPC   H6X 4246   1.612   1.520   9.687  0.0979  0.0510  2.4495
   57SAPC   H6Y 4247   1.726   1.389   9.643 -0.6199  0.5650 -3.4914
   57SAPC   C37 4248   1.774   1.580   9.559 -0.0068 -0.0192  0.4078
   57SAPC   H7X 4249   1.883   1.563   9.544 -0.3636 -0.8542 -1.6252
   57SAPC   H7Y 4250   1.753   1.685   9.588 -2.5213 -0.0072 -1.1650
   57SAPC   C38 4251   1.700   1.556   9.429  0.0667  0.1729  0.0604
   57SAPC   H8X 4252   1.589   1.558   9.438  0.0411 -2.1426  0.9911
   57SAPC   H8Y 4253   1.741   1.459   9.394  2.4433  1.3538 -0.6328
   57SAPC   C39 4254   1.732   1.658   9.318 -0.4095 -0.3488  0.5418
   57SAPC   H9X 4255   1.837   1.685   9.343 -0.8271 -1.5440  4.2452
   57SAPC   H9Y 4256   1.670   1.747   9.342  0.8742  0.8184 -0.3295
   57SAPC  C310 4257   1.713   1.619   9.172  0.1565  1.2963 -0.3968
   57SAPC  H10X 4258   1.611   1.574   9.172  0.7856 -0.7282  4.3953
   57SAPC  H10Y 4259   1.780   1.533   9.150 -1.8557 -0.1862 -1.0536
   57SAPC  C311 4260   1.723   1.731   9.070 -0.0219  0.3673 -0.5260
   57SAPC  H11X 4261   1.748   1.701   8.966  1.1295  0.6839 -0.3523
   57SAPC  H11Y 4262   1.791   1.810   9.109 -0.3631 -1.2242  3.8404
   57SAPC  C312 4263   1.587   1.801   9.059  0.4901  0.1895 -0.7673
   57SAPC  H12X 4264   1.549   1.821   9.162  3.0474 -2.4814  0.8729
   57SAPC  H12Y 4265   1.506   1.734   9.022  2.3283 -4.2129  2.2491
   57SAPC  C313 4266   1.584   1.934   8.976 -0.7859  1.0460 -0.1000
   57SAPC  H13X 4267   1.621   1.929   8.871  1.2626 -2.6301  0.6278
   57SAPC  H13Y 4268   1.656   2.001   9.027 -0.6606  1.1177 -0.3689
   57SAPC  C314 4269   1.444   1.987   8.970  0.1504 -0.1364  0.1016
   57SAPC  H14X 4270   1.410   1.997   9.075  1.9632  1.5421  0.5911
   57SAPC  H14Y 4271   1.389   1.907   8.916 -0.6068  0.6440 -0.3065
   57SAPC  C315 4272   1.428   2.131   8.899  0.0979 -0.2211 -0.5828
   57SAPC  H15X 4273   1.482   2.210   8.956 -3.7040  0.4642  2.5382
   57SAPC  H15Y 4274   1.322   2.162   8.911  0.0343 -0.5444 -0.2916
   57SAPC  C316 4275   1.467   2.134   8.752  0.0335  0.0542 -0.2964
   57SAPC  H16X 4276   1.427   2.045   8.698 -0.2552 -1.4442  2.2545
   57SAPC  H16Y 4277   1.578   2.126   8.743  0.1008 -0.0185  0.5211
   57SAPC  C317 4278   1.424   2.265   8.680  0.0287  0.0977  1.0516
   57SAPC  H17X 4279   1.511   2.300   8.620 -1.6643  2.3570 -0.2802
   57SAPC  H17Y 4280   1.398   2.350   8.747 -1.1364  3.3051 -3.0480
   57SAPC  C318 4281   1.304   2.266   8.589 -0.2201 -0.0860 -0.2927
   57SAPC  H18X 4282   1.301   2.171   8.533 -0.1378  0.3858 -1.1133
   57SAPC  H18Y 4283   1.308   2.361   8.531 -2.3134  0.1000 -0.2046
   57SAPC  H18Z 4284   1.211   2.276   8.647  0.7738  1.4399  1.1510
   58SAPC     N 4285   3.959   4.930  11.323  0.4051  0.0712  0.1932
   58SAPC   C12 4286   3.936   5.010  11.197 -0.2870  0.2148  0.1724
   58SAPC  H12A 4287   3.930   5.116  11.221  2.4634  1.0069 -2.1710
   58SAPC  H12B 4288   3.846   4.977  11.147 -0.7291  2.0536 -0.3496
   58SAPC   C13 4289   3.956   4.785  11.291  0.2398  0.4850  0.6710
   58SAPC  H13A 4290   4.003   4.765  11.196 -0.6048 -0.3566  0.4134
   58SAPC  H13B 4291   4.002   4.720  11.363  0.5173 -1.3937 -1.1212
   58SAPC  H13C 4292   3.857   4.744  11.276  1.4320 -2.5289  0.4120
   58SAPC   C14 4293   4.086   4.968  11.386 -0.0029  0.0971  0.1167
   58SAPC  H14A 4294   4.077   5.067  11.430  2.7373  0.3604  0.2463
   58SAPC  H14B 4295   4.121   4.900  11.462 -1.0696  1.5721  2.0334
   58SAPC  H14C 4296   4.165   4.975  11.314  1.8057  0.2564  2.0266
   58SAPC   C15 4297   3.850   4.959  11.425  0.0566  0.2002  0.0383
   58SAPC  H15A 4298   3.852   4.906  11.519  1.6180  0.1451 -0.0135
   58SAPC  H15B 4299   3.854   5.065  11.444  0.0307  0.0064  1.1712
   58SAPC  H15C 4300   3.753   4.940  11.380  1.0512  0.1322 -2.1956
   58SAPC   C11 4301   4.042   5.002  11.089 -0.7508  0.8311 -0.0328
   58SAPC  H11A 4302   4.144   5.016  11.133 -0.6130  1.5836 -0.5837
   58SAPC  H11B 4303   4.012   5.081  11.018  0.4074 -0.6670 -2.2949
   58SAPC     P 4304   4.118   4.855  10.889  0.1875  0.1269 -0.4131
   58SAPC   O13 4305   4.249   4.800  10.935  0.0687 -0.4171  0.4326
   58SAPC   O14 4306   4.044   4.763  10.798 -0.2621 -0.6423 -0.2492
   58SAPC   O12 4307   4.031   4.881  11.017 -0.2434 -0.5838  0.6584
   58SAPC   O11 4308   4.137   5.000  10.828  0.3122  0.3728 -0.0824
   58SAPC    C1 4309   4.255   5.031  10.757 -0.4156 -0.4060 -0.0019
   58SAPC    HA 4310   4.338   4.963  10.787  0.7463  1.1270  0.3935
   58SAPC    HB 4311   4.242   5.015  10.648 -2.2287 -2.2350  0.4358
   58SAPC    C2 4312   4.295   5.178  10.781 -0.7177 -0.3868  0.1203
   58SAPC    HS 4313   4.279   5.183  10.890  0.7530 -0.1046  0.3350
   58SAPC   O21 4314   4.198   5.261  10.721 -0.4588  0.2695 -0.6748
   58SAPC   C21 4315   4.168   5.378  10.759  0.3280  0.0561 -0.5327
   58SAPC   O22 4316   4.200   5.431  10.867 -0.1425 -0.1641 -0.0933
   58SAPC   C22 4317   4.062   5.445  10.677 -0.1124 -0.3090 -0.0224
   58SAPC   H2R 4318   3.993   5.365  10.646  0.4144 -0.3128 -1.2416
   58SAPC   H2S 4319   4.008   5.515  10.745  1.4246  0.9805 -0.0548
   58SAPC    C3 4320   4.437   5.220  10.733 -0.1445 -0.2633 -0.4003
   58SAPC    HX 4321   4.512   5.142  10.758  1.3134  0.0572 -3.2674
   58SAPC    HY 4322   4.463   5.310  10.793 -0.2457  0.4306 -1.3671
   58SAPC   O31 4323   4.445   5.255  10.592  0.0859 -0.9341 -0.3423
   58SAPC   C31 4324   4.446   5.149  10.515  0.1164  0.2281  0.3675
   58SAPC   O32 4325   4.467   5.036  10.550 -0.6348 -0.4990 -0.2477
   58SAPC   C32 4326   4.424   5.195  10.370  0.2115  0.6407 -0.6612
   58SAPC   H2X 4327   4.343   5.271  10.365 -1.0952 -0.6364  0.3192
   58SAPC   H2Y 4328   4.399   5.100  10.319  0.7341  0.2098 -0.1208
   58SAPC   C23 4329   4.114   5.512  10.551 -0.2145 -0.2795 -0.4540
   58SAPC   H3R 4330   4.184   5.441  10.503  0.2756 -0.2360  0.1880
   58SAPC   H3S 4331   4.162   5.610  10.574 -1.3728  0.1088  0.4247
   58SAPC   C24 4332   4.005   5.537  10.444 -0.6964 -0.0404  0.2215
   58SAPC   H4R 4333   3.922   5.594  10.492 -0.7771 -0.8072  1.0119
   58SAPC   H4S 4334   3.962   5.437  10.423 -0.7381  0.1775 -0.7627
   58SAPC   C25 4335   4.052   5.598  10.313  0.0469  0.4153  0.4233
   58SAPC   H5R 4336   4.092   5.700  10.327 -2.0498  1.3488  0.0562
   58SAPC   C26 4337   4.040   5.538  10.196  0.5992 -0.0868  0.2156
   58SAPC   H6R 4338   4.075   5.600  10.112  0.8929 -1.3547 -0.6268
   58SAPC   C27 4339   3.993   5.401  10.164 -0.2789 -0.0665  0.4915
   58SAPC   H7R 4340   3.930   5.417  10.074 -0.8135 -0.1550  0.8530
   58SAPC   H7S 4341   3.933   5.354  10.244  0.3631 -1.8673 -0.0263
   58SAPC   C28 4342   4.118   5.323  10.128 -0.1466  0.7049 -0.0641
   58SAPC   H8R 4343   4.157   5.271  10.216  1.0343  0.4630 -0.7091
   58SAPC   C29 4344   4.175   5.290  10.007  0.8352 -0.1552 -0.6075
   58SAPC   H9R 4345   4.278   5.252  10.005  1.3636  0.9269  1.6707
   58SAPC  C210 4346   4.122   5.349   9.873  0.5858  0.1490  0.8342
   58SAPC  H10R 4347   4.055   5.436   9.890  0.5969  0.1805  0.7133
   58SAPC  H10S 4348   4.055   5.273   9.829  1.4439  1.6716 -3.5327
   58SAPC  C211 4349   4.233   5.400   9.780  0.4903  0.9892  0.6023
   58SAPC  H11R 4350   4.314   5.448   9.836  1.7134  0.5708 -0.7524
   58SAPC  C212 4351   4.248   5.382   9.645 -0.1530  0.7287  0.8434
   58SAPC  H12R 4352   4.342   5.421   9.603  0.6649 -0.9368  1.0581
   58SAPC  C213 4353   4.146   5.322   9.546  0.4270  0.1810  0.1691
   58SAPC  H13R 4354   4.042   5.338   9.583  0.5502 -1.4151  1.3220
   58SAPC  H13S 4355   4.160   5.212   9.544  3.3128  0.4534  0.6530
   58SAPC  C214 4356   4.163   5.372   9.400  0.3970  0.2517 -0.0191
   58SAPC  H14R 4357   4.082   5.420   9.343 -0.1054 -1.0879 -0.4605
   58SAPC  C215 4358   4.269   5.340   9.327  0.3135 -0.5193 -0.1643
   58SAPC  H15R 4359   4.282   5.398   9.234  1.9073 -1.6554 -0.6771
   58SAPC  C216 4360   4.390   5.262   9.368 -0.3296 -0.3163  0.2512
   58SAPC  H16R 4361   4.373   5.209   9.464  1.6699 -0.2697  0.6715
   58SAPC  H16S 4362   4.469   5.338   9.380 -1.6390  0.9628  1.1065
   58SAPC  C217 4363   4.430   5.151   9.270 -0.3138  0.5492  0.1519
   58SAPC  H17R 4364   4.343   5.084   9.261  0.3624 -0.0955 -2.5548
   58SAPC  H17S 4365   4.513   5.103   9.326 -0.7375 -0.3868 -0.0103
   58SAPC  C218 4366   4.490   5.192   9.134  0.0533 -0.7291 -0.1820
   58SAPC  H18R 4367   4.589   5.240   9.152  0.1837 -0.0076 -2.5283
   58SAPC  H18S 4368   4.421   5.263   9.085 -0.5549 -0.8703  0.4595
   58SAPC  C219 4369   4.532   5.072   9.043 -0.0391 -0.5577  0.5647
   58SAPC  H19R 4370   4.554   5.117   8.944 -0.8923 -2.6441 -0.6276
   58SAPC  H19S 4371   4.437   5.017   9.028 -0.1458  0.0923 -1.5142
   58SAPC  C220 4372   4.648   4.978   9.090 -0.2294  0.2379 -0.3853
   58SAPC  H20R 4373   4.734   5.045   9.111  0.5411 -0.2648 -1.7972
   58SAPC  H20S 4374   4.661   4.888   9.025 -0.9483 -0.2582  0.1467
   58SAPC  H20T 4375   4.622   4.925   9.184  1.2256  0.3818  0.1220
   58SAPC   C33 4376   4.558   5.255  10.313 -0.1212  0.3887 -0.0241
   58SAPC   H3X 4377   4.626   5.170  10.288 -0.1080  0.6548 -0.9535
   58SAPC   H3Y 4378   4.606   5.321  10.389  0.1654  0.8780 -0.6211
   58SAPC   C34 4379   4.537   5.343  10.194 -0.1453 -0.2300 -0.1274
   58SAPC   H4X 4380   4.479   5.434  10.218 -0.9782 -0.7354 -0.1762
   58SAPC   H4Y 4381   4.487   5.285  10.114  0.2088 -0.4876 -0.1703
   58SAPC   C35 4382   4.665   5.397  10.126  0.1839  0.0884  1.1150
   58SAPC   H5X 4383   4.720   5.309  10.085 -1.3572 -0.0690 -0.7384
   58SAPC   H5Y 4384   4.726   5.455  10.199  0.8123 -0.3787  0.9750
   58SAPC   C36 4385   4.632   5.492  10.000  0.8023  0.2077  0.6282
   58SAPC   H6X 4386   4.709   5.572  10.006 -0.5057  1.6372 -0.8321
   58SAPC   H6Y 4387   4.531   5.535  10.015  1.0652  1.9844 -1.9773
   58SAPC   C37 4388   4.651   5.428   9.858 -0.6951  0.1973 -0.1528
   58SAPC   H7X 4389   4.587   5.338   9.842 -1.3017  0.4480  0.7936
   58SAPC   H7Y 4390   4.753   5.385   9.859 -0.3145  1.0966  1.3101
   58SAPC   C38 4391   4.649   5.522   9.739  0.3559  0.6256  0.2231
   58SAPC   H8X 4392   4.714   5.610   9.757  0.4038  0.8212 -0.8508
   58SAPC   H8Y 4393   4.546   5.561   9.728  0.8251  1.9002  0.1782
   58SAPC   C39 4394   4.691   5.443   9.612  0.0160  0.2328 -0.0907
   58SAPC   H9X 4395   4.620   5.358   9.610 -2.0556  1.8863 -1.2439
   58SAPC   H9Y 4396   4.790   5.392   9.622 -1.2855 -2.7722 -1.2813
   58SAPC  C310 4397   4.676   5.523   9.480  0.9604  0.1482  0.2709
   58SAPC  H10X 4398   4.691   5.629   9.511  1.3357  0.7687 -1.8794
   58SAPC  H10Y 4399   4.571   5.515   9.444  0.4369  1.0399  1.5489
   58SAPC  C311 4400   4.757   5.469   9.363  0.1653 -0.4262 -0.0681
   58SAPC  H11X 4401   4.719   5.369   9.333  0.9208 -0.8847  0.4775
   58SAPC  H11Y 4402   4.857   5.451   9.409  0.1880 -0.3587 -0.0903
   58SAPC  C312 4403   4.766   5.559   9.237  0.7418 -0.0745  0.0057
   58SAPC  H12X 4404   4.797   5.495   9.152 -1.8477 -1.5800  0.0868
   58SAPC  H12Y 4405   4.846   5.635   9.251  2.2392 -0.9994 -2.7253
   58SAPC  C313 4406   4.635   5.628   9.199  0.4103  0.7961  0.6589
   58SAPC  H13X 4407   4.600   5.696   9.279  1.9445  0.2751  1.8210
   58SAPC  H13Y 4408   4.566   5.541   9.200  0.4263  0.7814  0.5705
   58SAPC  C314 4409   4.619   5.686   9.057  0.4690  1.1517 -0.5443
   58SAPC  H14X 4410   4.678   5.779   9.065 -0.3066  1.6057  0.0391
   58SAPC  H14Y 4411   4.512   5.711   9.039  0.0731  0.8071  1.1640
   58SAPC  C315 4412   4.669   5.592   8.944 -0.2620  0.4614  0.4461
   58SAPC  H15X 4413   4.763   5.538   8.966  1.0468  1.7341 -1.6681
   58SAPC  H15Y 4414   4.692   5.665   8.863  0.8013 -0.6313 -0.2703
   58SAPC  C316 4415   4.552   5.494   8.903  0.8944 -0.3381  0.6465
   58SAPC  H16X 4416   4.472   5.559   8.862  1.8087  1.5716  1.7292
   58SAPC  H16Y 4417   4.498   5.447   8.987 -0.2622  3.2141  2.1009
   58SAPC  C317 4418   4.584   5.391   8.798  0.3507 -0.6673 -0.5105
   58SAPC  H17X 4419   4.650   5.319   8.850 -0.1960 -0.6023  0.2877
   58SAPC  H17Y 4420   4.626   5.435   8.704 -1.0597  0.5554 -0.5948
   58SAPC  C318 4421   4.454   5.328   8.756  0.4547 -0.4717  0.1720
   58SAPC  H18X 4422   4.381   5.394   8.705  2.6045  2.7760  0.9936
   58SAPC  H18Y 4423   4.406   5.300   8.852 -0.1643 -0.0548 -0.0110
   58SAPC  H18Z 4424   4.469   5.241   8.688  0.9031 -1.2380  1.2134
   59SAPC     N 4425   5.524   0.518  11.324 -0.3153 -0.2758 -0.5524
   59SAPC   C12 4426   5.628   0.610  11.259  0.7843 -1.0577  0.4587
   59SAPC  H12A 4427   5.701   0.650  11.327  1.0478  0.4920 -0.6696
   59SAPC  H12B 4428   5.591   0.697  11.206  0.7688 -1.0374  0.5027
   59SAPC   C13 4429   5.424   0.461  11.235 -0.1063  0.4305  0.3458
   59SAPC  H13A 4430   5.344   0.419  11.293 -0.2041 -0.1445 -0.2038
   59SAPC  H13B 4431   5.391   0.529  11.157  1.6798 -0.2497 -1.0876
   59SAPC  H13C 4432   5.471   0.384  11.176 -0.9530  0.3729 -0.2670
   59SAPC   C14 4433   5.588   0.416  11.414 -0.5378  0.6919  0.3944
   59SAPC  H14A 4434   5.514   0.353  11.460 -0.9641 -0.1119 -1.3243
   59SAPC  H14B 4435   5.651   0.352  11.354 -1.2023  1.1982 -0.8965
   59SAPC  H14C 4436   5.657   0.468  11.479  0.5651  0.4489 -0.5531
   59SAPC   C15 4437   5.442   0.603  11.430  0.5346  0.6769  0.0588
   59SAPC  H15A 4438   5.503   0.624  11.517 -0.0825  1.7105  0.2488
   59SAPC  H15B 4439   5.409   0.699  11.392 -1.6377  0.0588  0.2812
   59SAPC  H15C 4440   5.357   0.547  11.465 -0.1065 -0.6858 -3.2524
   59SAPC   C11 4441   5.721   0.528  11.165  0.8027  0.3912  0.3250
   59SAPC  H11A 4442   5.784   0.597  11.105 -0.8337  1.3230 -0.3536
   59SAPC  H11B 4443   5.653   0.485  11.088 -2.0341  3.2416  1.0585
   59SAPC     P 4444   5.929   0.455  11.320  0.1930 -0.4374 -0.1408
   59SAPC   O13 4445   5.903   0.566  11.417 -0.0793  0.0083  0.2154
   59SAPC   O14 4446   5.960   0.324  11.382  0.1585 -0.3253 -0.2603
   59SAPC   O12 4447   5.803   0.432  11.228 -0.2379  0.2215  0.2857
   59SAPC   O11 4448   6.043   0.501  11.229 -0.4859 -0.0175 -0.2194
   59SAPC    C1 4449   6.098   0.411  11.132  0.9552  0.2571  0.3055
   59SAPC    HA 4450   6.208   0.422  11.129  0.8501  1.1260 -1.3009
   59SAPC    HB 4451   6.069   0.305  11.147  0.6617  0.1980 -0.6162
   59SAPC    C2 4452   6.047   0.458  10.996  0.1348  0.4103 -0.4015
   59SAPC    HS 4453   5.937   0.466  11.007  0.2213  2.7525 -0.8644
   59SAPC   O21 4454   6.092   0.366  10.894  0.7452 -0.0451  0.4362
   59SAPC   C21 4455   5.997   0.299  10.833 -0.2900  0.3469 -0.6296
   59SAPC   O22 4456   5.875   0.301  10.847 -0.5502 -0.0609  0.0863
   59SAPC   C22 4457   6.065   0.222  10.717  0.0388  0.3996 -0.0143
   59SAPC   H2R 4458   6.174   0.243  10.719  0.0726  1.1072 -3.1628
   59SAPC   H2S 4459   6.065   0.116  10.749 -0.2726  0.1867 -0.7105
   59SAPC    C3 4460   6.104   0.598  10.958  0.4493  0.3160 -0.1898
   59SAPC    HX 4461   6.213   0.583  10.951  0.2146 -2.5388  0.7189
   59SAPC    HY 4462   6.089   0.673  11.038  0.4693 -0.7616  0.8617
   59SAPC   O31 4463   6.052   0.634  10.840 -0.8176 -0.0429  1.3050
   59SAPC   C31 4464   6.088   0.751  10.787 -0.2779 -0.6687 -0.0080
   59SAPC   O32 4465   6.162   0.829  10.848  0.0885  0.5695 -0.0095
   59SAPC   C32 4466   6.031   0.770  10.647  0.3236  0.0626  0.3250
   59SAPC   H2X 4467   6.031   0.670  10.597 -1.2573  0.2625 -0.1282
   59SAPC   H2Y 4468   6.085   0.845  10.586 -2.4341  0.2814 -2.1046
   59SAPC   C23 4469   6.001   0.257  10.582  0.4809  0.2470 -0.3093
   59SAPC   H3R 4470   6.012   0.362  10.548 -1.9645  0.2167 -1.3714
   59SAPC   H3S 4471   5.893   0.231  10.584  0.6209 -0.3384 -0.2075
   59SAPC   C24 4472   6.066   0.172  10.469  0.6056 -0.0204 -0.0746
   59SAPC   H4R 4473   6.059   0.069  10.511 -0.4901  0.3913  0.8108
   59SAPC   H4S 4474   6.170   0.208  10.455  0.4129  0.4850 -0.2163
   59SAPC   C25 4475   5.984   0.169  10.343 -0.1616  0.5636 -0.1570
   59SAPC   H5R 4476   5.886   0.219  10.345 -1.1251 -1.2214 -0.8482
   59SAPC   C26 4477   6.019   0.107  10.234 -0.8272 -0.3919  0.5267
   59SAPC   H6R 4478   5.952   0.121  10.148  0.6422 -0.0592 -0.6012
   59SAPC   C27 4479   6.150   0.033  10.201  0.5739 -0.2104 -1.1179
   59SAPC   H7R 4480   6.185  -0.029  10.287  1.3569 -0.5525 -1.6723
   59SAPC   H7S 4481   6.226   0.113  10.188  2.7945 -2.2784 -1.4487
   59SAPC   C28 4482   6.134  -0.068  10.086 -0.0732 -0.8646 -0.8859
   59SAPC   H8R 4483   6.073  -0.156  10.111 -0.7896 -0.4120 -0.9989
   59SAPC   C29 4484   6.183  -0.048   9.960  0.1664  0.3781 -0.8473
   59SAPC   H9R 4485   6.154  -0.122   9.884 -0.3346 -0.9361  0.5941
   59SAPC  C210 4486   6.249   0.080   9.911  0.3668  0.1008  0.7118
   59SAPC  H10R 4487   6.322   0.056   9.831  1.0833 -0.1446  1.4218
   59SAPC  H10S 4488   6.303   0.131   9.994  1.3053  0.9214 -0.3729
   59SAPC  C211 4489   6.153   0.193   9.872 -0.2336  0.5002 -0.7943
   59SAPC  H11R 4490   6.135   0.266   9.952  0.5276 -0.7421  0.5545
   59SAPC  C212 4491   6.082   0.191   9.755 -0.0347 -0.0417  0.2628
   59SAPC  H12R 4492   6.012   0.273   9.733  1.0206  0.7915 -0.0851
   59SAPC  C213 4493   6.090   0.082   9.652 -0.2773 -0.2754 -0.4998
   59SAPC  H13R 4494   6.048  -0.010   9.698 -0.3318 -0.7300 -1.4462
   59SAPC  H13S 4495   6.199   0.074   9.635 -0.3311 -0.3181 -0.8198
   59SAPC  C214 4496   6.021   0.107   9.517 -0.0455  1.0443 -0.0585
   59SAPC  H14R 4497   5.969   0.203   9.518 -0.3695  0.8687  0.3723
   59SAPC  C215 4498   6.029   0.024   9.414  0.1412  0.4590 -0.5221
   59SAPC  H15R 4499   5.978   0.057   9.323 -2.7454 -0.1042  0.7861
   59SAPC  C216 4500   6.129  -0.095   9.402  0.6431 -0.6103  0.1763
   59SAPC  H16R 4501   6.190  -0.120   9.491 -0.2872 -2.1501  0.4216
   59SAPC  H16S 4502   6.193  -0.069   9.315  2.3121  0.0728  1.5503
   59SAPC  C217 4503   6.054  -0.222   9.356 -0.0416 -0.3340 -0.4996
   59SAPC  H17R 4504   5.968  -0.248   9.421 -1.2242  3.0446 -0.5412
   59SAPC  H17S 4505   6.119  -0.312   9.370  0.7832 -0.1510 -2.7548
   59SAPC  C218 4506   5.996  -0.223   9.211 -0.7364 -0.6232 -0.7309
   59SAPC  H18R 4507   6.080  -0.215   9.140  1.7958  1.9008  2.2394
   59SAPC  H18S 4508   5.929  -0.136   9.194  1.2288  1.0291 -0.3786
   59SAPC  C219 4509   5.917  -0.354   9.186 -0.6259  0.0673 -0.4344
   59SAPC  H19R 4510   5.846  -0.369   9.271  0.7542 -0.6592  0.6268
   59SAPC  H19S 4511   5.984  -0.441   9.200 -0.4341  0.2500 -0.1940
   59SAPC  C220 4512   5.847  -0.348   9.041  0.2345 -0.1244 -0.1284
   59SAPC  H20R 4513   5.748  -0.300   9.054  1.0610  1.8504 -0.7448
   59SAPC  H20S 4514   5.841  -0.453   9.005 -0.3537 -0.5195  1.0750
   59SAPC  H20T 4515   5.909  -0.279   8.980 -1.1903  2.4960  1.2408
   59SAPC   C33 4516   5.875   0.796  10.647 -0.4550 -0.1980 -0.0480
   59SAPC   H3X 4517   5.869   0.887  10.711 -1.6910 -1.4033  1.6408
   59SAPC   H3Y 4518   5.818   0.719  10.703 -0.1418  1.0076  2.0133
   59SAPC   C34 4519   5.816   0.814  10.510  0.2387 -0.0874  0.0955
   59SAPC   H4X 4520   5.878   0.882  10.447 -1.6475  0.8391 -0.8390
   59SAPC   H4Y 4521   5.718   0.864  10.526  0.0125 -0.2886 -0.6320
   59SAPC   C35 4522   5.785   0.693  10.426  0.5947 -0.3102 -0.2336
   59SAPC   H5X 4523   5.688   0.666  10.472  1.3026 -1.5963  0.5827
   59SAPC   H5Y 4524   5.861   0.613  10.438  0.5731 -0.3996 -0.6959
   59SAPC   C36 4525   5.790   0.705  10.276 -0.5380  0.5217 -0.3071
   59SAPC   H6X 4526   5.747   0.620  10.219 -0.4494  0.7974 -0.7900
   59SAPC   H6Y 4527   5.895   0.712  10.240 -1.0201 -0.6763 -2.0473
   59SAPC   C37 4528   5.695   0.816  10.217  0.0503 -0.1633  0.0972
   59SAPC   H7X 4529   5.738   0.918  10.230  0.8951 -0.3829 -0.8732
   59SAPC   H7Y 4530   5.612   0.812  10.291 -0.6466  0.9102 -0.5895
   59SAPC   C38 4531   5.650   0.778  10.072 -0.1443 -0.1953  0.3417
   59SAPC   H8X 4532   5.544   0.811  10.066  0.5724  2.3709  0.4956
   59SAPC   H8Y 4533   5.637   0.668  10.065 -0.8741 -0.0388 -1.0400
   59SAPC   C39 4534   5.739   0.828   9.958 -0.1088 -0.8721  0.1724
   59SAPC   H9X 4535   5.846   0.807   9.980 -0.2076 -0.7327  0.8251
   59SAPC   H9Y 4536   5.720   0.937   9.946 -1.8149 -1.4498 -4.6146
   59SAPC  C310 4537   5.715   0.775   9.817 -0.4756  0.0597 -0.8128
   59SAPC  H10X 4538   5.711   0.664   9.821  0.0711 -0.0627 -2.7659
   59SAPC  H10Y 4539   5.803   0.805   9.757  2.4307 -2.2628  1.9849
   59SAPC  C311 4540   5.577   0.820   9.759  0.2182 -0.5599 -0.0631
   59SAPC  H11X 4541   5.556   0.928   9.774 -0.0045 -0.5726 -0.2663
   59SAPC  H11Y 4542   5.506   0.767   9.825  0.8075 -1.5941 -0.2527
   59SAPC  C312 4543   5.553   0.783   9.612  0.0382 -0.6781  0.1656
   59SAPC  H12X 4544   5.443   0.770   9.600 -0.1249 -2.6975  2.9851
   59SAPC  H12Y 4545   5.587   0.678   9.613 -1.4882 -1.3977 -3.6240
   59SAPC  C313 4546   5.618   0.875   9.512  0.2634 -0.3650  0.3201
   59SAPC  H13X 4547   5.709   0.925   9.554  0.2424 -0.5965  0.6509
   59SAPC  H13Y 4548   5.538   0.949   9.494  0.2102  0.1042  2.2234
   59SAPC  C314 4549   5.654   0.809   9.378 -0.7221 -0.0023 -1.5051
   59SAPC  H14X 4550   5.727   0.727   9.394 -1.2835 -0.1751  0.4635
   59SAPC  H14Y 4551   5.705   0.884   9.314  2.3337 -0.2951  0.3716
   59SAPC  C315 4552   5.530   0.752   9.303 -0.4597 -0.6432  0.3438
   59SAPC  H15X 4553   5.444   0.822   9.312  0.3132  0.5171 -0.8521
   59SAPC  H15Y 4554   5.501   0.651   9.338  0.9060 -2.9046 -4.2194
   59SAPC  C316 4555   5.556   0.723   9.155 -0.1378  0.2971  0.4397
   59SAPC  H16X 4556   5.563   0.814   9.092  3.2389 -1.1063 -1.5022
   59SAPC  H16Y 4557   5.471   0.664   9.114 -1.3354  1.6812  0.8900
   59SAPC  C317 4558   5.694   0.653   9.127  0.8850  0.2191  0.9612
   59SAPC  H17X 4559   5.701   0.569   9.200 -0.4590  0.3009  1.2193
   59SAPC  H17Y 4560   5.767   0.728   9.164  1.6780  0.0284 -0.1787
   59SAPC  C318 4561   5.717   0.608   8.983  0.4414 -0.4785  0.2453
   59SAPC  H18X 4562   5.723   0.699   8.919 -3.6225  1.4177  2.1732
   59SAPC  H18Y 4563   5.638   0.545   8.938 -0.5274  0.4641  0.5575
   59SAPC  H18Z 4564   5.805   0.541   8.980 -0.3705 -1.6278  1.0996
   60SAPC     N 4565   0.845   4.363  10.806 -0.3941  0.0690  0.5189
   60SAPC   C12 4566   0.702   4.379  10.786  0.2134 -0.1872  0.2711
   60SAPC  H12A 4567   0.672   4.350  10.885  2.1986  0.0993  0.9969
   60SAPC  H12B 4568   0.673   4.312  10.706  3.6018 -0.8212 -0.5761
   60SAPC   C13 4569   0.871   4.213  10.829 -0.2454 -0.3743 -0.4188
   60SAPC  H13A 4570   0.814   4.181  10.916 -1.9404 -0.1678 -1.3986
   60SAPC  H13B 4571   0.830   4.152  10.750 -1.2333  2.0052 -1.8424
   60SAPC  H13C 4572   0.974   4.199  10.855 -0.4931 -0.1299  0.7358
   60SAPC   C14 4573   0.916   4.408  10.680  0.6617 -0.3955  0.7842
   60SAPC  H14A 4574   0.899   4.510  10.649  0.4515 -0.9598 -1.0874
   60SAPC  H14B 4575   1.022   4.420  10.699  1.0115  3.5955 -2.3938
   60SAPC  H14C 4576   0.899   4.342  10.596  0.6123  0.7182 -0.1065
   60SAPC   C15 4577   0.894   4.443  10.929  0.0854  0.6387  0.2375
   60SAPC  H15A 4578   0.870   4.548  10.928 -0.2785  0.5572  0.0957
   60SAPC  H15B 4579   0.859   4.397  11.021 -0.9464 -0.7570 -0.7989
   60SAPC  H15C 4580   1.001   4.438  10.940  0.0328 -0.5854  0.2889
   60SAPC   C11 4581   0.643   4.519  10.760 -0.4065 -0.6140  0.1206
   60SAPC  H11A 4582   0.536   4.495  10.741 -0.5056 -0.3747  0.3706
   60SAPC  H11B 4583   0.681   4.554  10.661  0.1803  2.3120  1.2808
   60SAPC     P 4584   0.565   4.639  10.971 -0.4824  0.8241 -0.0075
   60SAPC   O13 4585   0.526   4.505  11.020 -0.2795  0.1057  0.0947
   60SAPC   O14 4586   0.621   4.733  11.071  0.6352  0.0749 -0.4895
   60SAPC   O12 4587   0.674   4.616  10.863 -0.1517 -0.1728 -0.1222
   60SAPC   O11 4588   0.441   4.706  10.901  0.7508 -0.0584 -0.2360
   60SAPC    C1 4589   0.465   4.840  10.860  0.7870 -0.8347  0.4882
   60SAPC    HA 4590   0.381   4.899  10.903  0.9484 -1.4176  1.6496
   60SAPC    HB 4591   0.554   4.894  10.900  1.1040 -1.1585  0.2248
   60SAPC    C2 4592   0.472   4.847  10.701 -0.1817  0.9388 -0.1791
   60SAPC    HS 4593   0.566   4.794  10.672 -0.3417  0.8741 -0.5918
   60SAPC   O21 4594   0.461   4.971  10.634 -0.9123  0.1365  0.4795
   60SAPC   C21 4595   0.549   5.061  10.659  0.2708 -0.1632  0.9912
   60SAPC   O22 4596   0.649   5.045  10.730  0.3594 -0.3413  0.2048
   60SAPC   C22 4597   0.524   5.177  10.570 -0.3924  0.7331  0.0155
   60SAPC   H2R 4598   0.422   5.215  10.590  0.1233  2.1161  0.1076
   60SAPC   H2S 4599   0.603   5.248  10.602 -0.1953  1.0399 -1.1080
   60SAPC    C3 4600   0.345   4.769  10.657  0.2828 -0.4602  0.3110
   60SAPC    HX 4601   0.265   4.807  10.723  0.7907  1.2932 -0.0469
   60SAPC    HY 4602   0.370   4.663  10.679  0.9722 -0.7222 -1.5134
   60SAPC   O31 4603   0.313   4.791  10.515  0.5100 -0.3843 -0.1997
   60SAPC   C31 4604   0.374   4.710  10.439 -0.0702 -0.1213  0.5527
   60SAPC   O32 4605   0.475   4.647  10.461 -0.4116 -0.1128  0.1500
   60SAPC   C32 4606   0.284   4.706  10.313 -0.2307  0.3419 -0.2863
   60SAPC   H2X 4607   0.180   4.689  10.350 -0.8813 -0.1167 -2.2078
   60SAPC   H2Y 4608   0.309   4.605  10.274 -0.0786  0.5064 -0.6133
   60SAPC   C23 4609   0.525   5.136  10.419  0.2439 -0.3070 -0.8862
   60SAPC   H3R 4610   0.460   5.047  10.405 -0.1626  0.2740 -3.1759
   60SAPC   H3S 4611   0.628   5.105  10.393  1.1633  0.8970  1.1054
   60SAPC   C24 4612   0.479   5.243  10.312 -0.0645  0.6861  0.2047
   60SAPC   H4R 4613   0.370   5.264  10.320  0.2470  2.2565  0.8504
   60SAPC   H4S 4614   0.503   5.202  10.212 -3.0477  2.5635 -1.4278
   60SAPC   C25 4615   0.545   5.378  10.332  0.2666  0.2820  0.6315
   60SAPC   H5R 4616   0.510   5.432  10.421 -1.8266 -0.8163  0.5277
   60SAPC   C26 4617   0.630   5.443  10.249 -0.4692  0.3168 -0.4746
   60SAPC   H6R 4618   0.678   5.535  10.286 -2.2162  1.1839 -0.2746
   60SAPC   C27 4619   0.678   5.406  10.111 -0.1168  0.4832 -0.0437
   60SAPC   H7R 4620   0.654   5.492  10.045 -0.5804 -0.4309 -1.1076
   60SAPC   H7S 4621   0.621   5.316  10.079 -1.2406 -0.0533  3.1266
   60SAPC   C28 4622   0.823   5.380  10.126 -0.1111  0.0794 -0.3026
   60SAPC   H8R 4623   0.880   5.366  10.219 -2.1198  1.2550  1.1982
   60SAPC   C29 4624   0.901   5.376  10.013  0.6091 -0.3285  0.5443
   60SAPC   H9R 4625   1.010   5.377  10.026  1.1933 -2.1537 -2.9687
   60SAPC  C210 4626   0.853   5.392   9.869 -0.2569 -0.2100 -0.5429
   60SAPC  H10R 4627   0.765   5.461   9.869  0.3577  0.7136  2.1923
   60SAPC  H10S 4628   0.802   5.297   9.842 -1.4883  0.6488 -1.3633
   60SAPC  C211 4629   0.957   5.423   9.766 -0.0089  0.0621  0.9545
   60SAPC  H11R 4630   1.061   5.422   9.803  0.1609 -1.9663  0.5604
   60SAPC  C212 4631   0.939   5.474   9.646  0.6306 -0.2922 -0.3535
   60SAPC  H12R 4632   1.030   5.497   9.588  0.6496 -0.6291 -0.4614
   60SAPC  C213 4633   0.817   5.526   9.582  0.5208  0.5172  0.0413
   60SAPC  H13R 4634   0.844   5.599   9.502  3.3434  1.2976  1.5636
   60SAPC  H13S 4635   0.762   5.583   9.660  0.4542  1.1887 -0.4841
   60SAPC  C214 4636   0.732   5.422   9.510  0.1890 -0.6877  0.8046
   60SAPC  H14R 4637   0.798   5.364   9.443  1.5299  2.2502 -0.5627
   60SAPC  C215 4638   0.604   5.400   9.531  0.4243 -0.5671 -0.1476
   60SAPC  H15R 4639   0.555   5.318   9.477  3.3248 -2.0481 -0.6942
   60SAPC  C216 4640   0.514   5.468   9.629  0.3293 -0.5386 -0.4577
   60SAPC  H16R 4641   0.436   5.532   9.583 -0.6785 -0.2785  1.5114
   60SAPC  H16S 4642   0.574   5.538   9.691  0.7199  0.1534 -1.5983
   60SAPC  C217 4643   0.445   5.359   9.714 -0.8849 -0.3061 -0.1282
   60SAPC  H17R 4644   0.517   5.286   9.757  0.7422  0.7113 -1.0045
   60SAPC  H17S 4645   0.362   5.316   9.653 -3.0385  2.4172  0.6977
   60SAPC  C218 4646   0.363   5.411   9.828 -0.1212  0.1186  0.1655
   60SAPC  H18R 4647   0.269   5.467   9.805 -0.6675 -0.9164 -0.1735
   60SAPC  H18S 4648   0.424   5.472   9.898 -0.5025  0.8507 -0.1235
   60SAPC  C219 4649   0.316   5.295   9.917  0.2388 -0.8565  0.3542
   60SAPC  H19R 4650   0.407   5.239   9.945  0.4229 -0.8836 -0.2889
   60SAPC  H19S 4651   0.258   5.231   9.847  0.0986 -0.2121 -0.1233
   60SAPC  C220 4652   0.229   5.338  10.041  0.1846  0.0667 -0.5214
   60SAPC  H20R 4653   0.132   5.386  10.014 -0.8011 -1.3124  0.4128
   60SAPC  H20S 4654   0.300   5.395  10.104  2.7415 -2.9440 -0.4388
   60SAPC  H20T 4655   0.199   5.249  10.100  0.6208 -1.7333 -2.8560
   60SAPC   C33 4656   0.292   4.820  10.219 -0.5910 -0.1752  0.6205
   60SAPC   H3X 4657   0.399   4.848  10.205  0.9589 -4.2145  2.7687
   60SAPC   H3Y 4658   0.243   4.913  10.257 -0.5840  0.6021 -1.1892
   60SAPC   C34 4659   0.243   4.788  10.074 -0.3100  0.1781  0.4257
   60SAPC   H4X 4660   0.136   4.765  10.092  0.0825 -0.6999  1.8291
   60SAPC   H4Y 4661   0.296   4.694  10.045  0.2148  0.5554  0.1574
   60SAPC   C35 4662   0.286   4.896   9.971  0.0847 -0.3279 -1.5493
   60SAPC   H5X 4663   0.393   4.904  10.002 -0.6110 -1.4533  1.4257
   60SAPC   H5Y 4664   0.238   4.993   9.994  1.0307 -0.0874 -0.5186
   60SAPC   C36 4665   0.273   4.841   9.830 -1.1091  0.2343  0.1205
   60SAPC   H6X 4666   0.166   4.827   9.806 -0.3486 -2.1611 -2.3998
   60SAPC   H6Y 4667   0.332   4.747   9.821  1.0929  1.6421 -1.4331
   60SAPC   C37 4668   0.333   4.937   9.724  0.2149 -0.1492 -0.1459
   60SAPC   H7X 4669   0.444   4.929   9.724  0.2946  0.5451  1.1636
   60SAPC   H7Y 4670   0.316   5.042   9.756 -1.7981 -0.4333 -0.1699
   60SAPC   C38 4671   0.267   4.903   9.591  0.0839 -0.0861  0.3469
   60SAPC   H8X 4672   0.156   4.901   9.601  0.1142  0.4642  0.8926
   60SAPC   H8Y 4673   0.305   4.803   9.561 -0.2428  0.0038 -0.3663
   60SAPC   C39 4674   0.288   5.005   9.471  0.3775 -0.4010  0.0562
   60SAPC   H9X 4675   0.397   5.015   9.451  0.2157  0.8888 -0.2827
   60SAPC   H9Y 4676   0.240   5.104   9.489 -0.0335 -0.9869  2.6723
   60SAPC  C310 4677   0.232   4.941   9.337 -0.3755  0.0086 -0.5003
   60SAPC  H10X 4678   0.122   4.957   9.340 -0.2493  1.1044  2.9582
   60SAPC  H10Y 4679   0.266   4.836   9.334  1.1892  0.4729 -0.1638
   60SAPC  C311 4680   0.279   5.023   9.207 -0.5833  0.6720 -0.4869
   60SAPC  H11X 4681   0.390   5.019   9.197 -0.6160  0.0067 -0.6582
   60SAPC  H11Y 4682   0.238   5.125   9.218 -0.2997  0.8670 -1.1962
   60SAPC  C312 4683   0.227   4.966   9.077 -0.1921  1.3408  0.0865
   60SAPC  H12X 4684   0.237   4.856   9.077  0.7258  1.4067 -0.3301
   60SAPC  H12Y 4685   0.287   4.999   8.989 -0.2134 -1.1239 -0.9265
   60SAPC  C313 4686   0.074   4.998   9.054  0.5070 -0.1481 -0.0284
   60SAPC  H13X 4687   0.020   4.946   9.136  1.5271  1.0327  1.4740
   60SAPC  H13Y 4688   0.041   4.963   8.955  1.8082  2.5989 -1.5686
   60SAPC  C314 4689   0.042   5.148   9.041  0.5209 -0.2032 -0.3071
   60SAPC  H14X 4690   0.072   5.212   9.127 -1.7580 -1.9031  1.9075
   60SAPC  H14Y 4691  -0.069   5.145   9.040  0.5001 -0.9780  1.2016
   60SAPC  C315 4692   0.081   5.213   8.907 -0.7582  0.2874  0.4517
   60SAPC  H15X 4693   0.012   5.292   8.871  0.4105  0.3247 -1.9533
   60SAPC  H15Y 4694   0.081   5.133   8.830  1.0133  0.3401  0.3405
   60SAPC  C316 4695   0.221   5.278   8.909  0.0288 -0.8515 -0.0633
   60SAPC  H16X 4696   0.297   5.204   8.942  1.4054 -0.0113 -1.2045
   60SAPC  H16Y 4697   0.218   5.365   8.979  1.0087 -0.9558  0.1269
   60SAPC  C317 4698   0.254   5.316   8.766 -0.4021  0.0587 -0.1965
   60SAPC  H17X 4699   0.226   5.233   8.699  0.9237 -0.9534  0.4721
   60SAPC  H17Y 4700   0.364   5.325   8.760 -0.5509  0.8974 -2.8597
   60SAPC  C318 4701   0.200   5.452   8.723 -0.2503 -0.3061 -0.5276
   60SAPC  H18X 4702   0.247   5.528   8.789 -2.1958 -0.1661  0.7666
   60SAPC  H18Y 4703   0.092   5.459   8.749 -0.3082  2.5816 -1.2816
   60SAPC  H18Z 4704   0.225   5.466   8.615 -0.2451  0.7726 -0.3878
   61SAPC     N 4705   1.109   3.736  11.274 -0.4113 -0.3497 -0.0242
   61SAPC   C12 4706   1.096   3.677  11.132 -0.0077 -0.1014 -0.0023
   61SAPC  H12A 4707   1.093   3.758  11.061 -0.4380 -0.7271 -0.7081
   61SAPC  H12B 4708   0.998   3.632  11.132  0.5733 -1.6001  2.7517
   61SAPC   C13 4709   1.243   3.794  11.281 -0.0321 -0.4331  0.0711
   61SAPC  H13A 4710   1.246   3.856  11.370  1.1636  0.3742 -0.5132
   61SAPC  H13B 4711   1.316   3.716  11.273  0.0167 -0.2319 -1.8562
   61SAPC  H13C 4712   1.259   3.871  11.207  0.6303 -0.0492  0.6004
   61SAPC   C14 4713   1.008   3.847  11.288 -0.0974 -0.0515  0.1746
   61SAPC  H14A 4714   0.904   3.816  11.286 -1.0087  2.5020  2.1078
   61SAPC  H14B 4715   1.031   3.906  11.375 -0.1402  1.3477 -0.7309
   61SAPC  H14C 4716   1.025   3.920  11.210  1.4958 -0.8393 -0.2464
   61SAPC   C15 4717   1.100   3.628  11.384 -0.7293 -0.2551  0.0367
   61SAPC  H15A 4718   1.009   3.571  11.375 -1.4805  1.1715 -2.6080
   61SAPC  H15B 4719   1.184   3.560  11.378  0.3441  1.0282 -0.0909
   61SAPC  H15C 4720   1.103   3.678  11.480  0.2472  1.7272 -0.9647
   61SAPC   C11 4721   1.191   3.563  11.101 -0.7409  0.2985 -0.0969
   61SAPC  H11A 4722   1.175   3.488  11.181 -2.2813  0.0689 -0.5801
   61SAPC  H11B 4723   1.294   3.603  11.110 -1.1285  1.6695 -1.3442
   61SAPC     P 4724   1.131   3.368  10.935 -0.1496  0.1043 -0.2297
   61SAPC   O13 4725   1.231   3.282  11.010 -0.2514 -0.1173  0.2381
   61SAPC   O14 4726   0.986   3.342  10.950 -0.2305 -0.0908 -0.7512
   61SAPC   O12 4727   1.165   3.515  10.966 -0.2435  0.2426  0.2037
   61SAPC   O11 4728   1.164   3.350  10.786  0.2210  0.0334  0.6969
   61SAPC    C1 4729   1.216   3.460  10.707  0.6031  0.7973  0.2716
   61SAPC    HA 4730   1.138   3.538  10.716 -2.8627 -2.1390 -1.8758
   61SAPC    HB 4731   1.309   3.498  10.755  1.1725  2.6935 -2.1427
   61SAPC    C2 4732   1.232   3.427  10.561 -0.4257  0.0172  0.1358
   61SAPC    HS 4733   1.251   3.529  10.521 -1.0809  0.2053  0.2960
   61SAPC   O21 4734   1.122   3.362  10.495 -0.0762 -0.7082  0.2353
   61SAPC   C21 4735   1.000   3.416  10.517 -0.2993 -0.0109  0.7236
   61SAPC   O22 4736   0.977   3.526  10.555  0.5094 -0.2352  0.1087
   61SAPC   C22 4737   0.902   3.305  10.491  0.2560  0.1022 -0.3235
   61SAPC   H2R 4738   0.940   3.212  10.537  0.3355  0.1895 -0.2125
   61SAPC   H2S 4739   0.806   3.321  10.546 -0.1810  1.2004 -1.3567
   61SAPC    C3 4740   1.369   3.348  10.531 -0.0228  0.2561 -0.6014
   61SAPC    HX 4741   1.354   3.248  10.577  1.8255  0.6619  0.9995
   61SAPC    HY 4742   1.448   3.398  10.592 -1.2379  1.3381  0.1281
   61SAPC   O31 4743   1.395   3.340  10.393 -0.0406  0.3044 -0.1792
   61SAPC   C31 4744   1.448   3.442  10.330  0.4778 -0.1273 -0.8803
   61SAPC   O32 4745   1.461   3.554  10.375 -0.3851  0.2821  0.0450
   61SAPC   C32 4746   1.481   3.410  10.188  0.0694  0.9747 -0.1657
   61SAPC   H2X 4747   1.471   3.301  10.166  1.8111  0.9542 -1.0245
   61SAPC   H2Y 4748   1.588   3.436  10.173 -0.0242  0.5148 -1.7848
   61SAPC   C23 4749   0.874   3.276  10.347  0.4908  0.1161  0.2748
   61SAPC   H3R 4750   0.838   3.373  10.308  0.4941  0.4894  1.1685
   61SAPC   H3S 4751   0.779   3.219  10.338 -0.6945  1.8892  0.9760
   61SAPC   C24 4752   0.986   3.212  10.271 -1.0218  0.6638 -0.1643
   61SAPC   H4R 4753   0.935   3.148  10.195 -0.0305 -0.9316  0.4673
   61SAPC   H4S 4754   1.043   3.152  10.345 -3.8458 -0.0114  1.5901
   61SAPC   C25 4755   1.078   3.303  10.198  0.1327 -0.1860 -0.1283
   61SAPC   H5R 4756   1.170   3.325  10.255  0.1542 -0.3179 -0.1115
   61SAPC   C26 4757   1.063   3.345  10.073 -0.0151  0.4754 -0.1331
   61SAPC   H6R 4758   1.137   3.410  10.023  0.5610  0.6540  0.9356
   61SAPC   C27 4759   0.943   3.312   9.974 -0.4255 -0.4482 -0.2731
   61SAPC   H7R 4760   0.851   3.280  10.027  0.0477  0.7727  1.3821
   61SAPC   H7S 4761   0.969   3.221   9.916  1.3277 -1.7542  2.3368
   61SAPC   C28 4762   0.904   3.417   9.874 -0.2681 -0.5536  0.6631
   61SAPC   H8R 4763   0.824   3.482   9.911  1.0344  1.8611 -0.5039
   61SAPC   C29 4764   0.966   3.436   9.749 -0.6895  0.1935 -0.6962
   61SAPC   H9R 4765   0.933   3.514   9.680 -0.7147 -0.0648 -0.9786
   61SAPC  C210 4766   1.081   3.353   9.702  0.3404  0.3472 -0.5157
   61SAPC  H10R 4767   1.136   3.329   9.796  1.4516 -3.0131 -1.8882
   61SAPC  H10S 4768   1.150   3.422   9.648  2.4280 -1.7028 -0.6310
   61SAPC  C211 4769   1.023   3.238   9.633  0.2347 -0.3295 -0.5004
   61SAPC  H11R 4770   0.997   3.158   9.703  1.8619  0.3349  0.9191
   61SAPC  C212 4771   1.009   3.226   9.506  0.9132 -0.1644  0.9588
   61SAPC  H12R 4772   0.960   3.136   9.466  0.6525 -0.1000  1.1324
   61SAPC  C213 4773   1.041   3.327   9.398  0.7903  0.4879  1.3084
   61SAPC  H13R 4774   1.147   3.357   9.407  1.3359  0.2282 -2.7562
   61SAPC  H13S 4775   0.985   3.422   9.404 -1.3970 -0.7171  1.0339
   61SAPC  C214 4776   1.017   3.279   9.255 -0.3938  0.0283 -0.4322
   61SAPC  H14R 4777   0.919   3.305   9.212  0.3677  0.9813 -1.6537
   61SAPC  C215 4778   1.108   3.231   9.179 -0.2765  0.5060  0.0704
   61SAPC  H15R 4779   1.076   3.209   9.076 -0.3758  3.5930 -0.6724
   61SAPC  C216 4780   1.259   3.215   9.207 -0.5332 -0.2231 -0.3269
   61SAPC  H16R 4781   1.289   3.229   9.313 -0.3390 -1.5950 -0.1845
   61SAPC  H16S 4782   1.329   3.289   9.162  2.0295 -0.7009  2.5662
   61SAPC  C217 4783   1.295   3.074   9.160 -0.2874  0.0301  0.2669
   61SAPC  H17R 4784   1.227   2.999   9.204 -0.8784  0.2496 -0.2590
   61SAPC  H17S 4785   1.391   3.061   9.214  0.8326  0.7652 -1.4502
   61SAPC  C218 4786   1.311   3.055   9.011 -0.4087 -0.3426 -0.1025
   61SAPC  H18R 4787   1.233   3.112   8.957  0.3732 -0.4290 -1.3822
   61SAPC  H18S 4788   1.297   2.947   8.989 -2.3101 -0.5340  1.7748
   61SAPC  C219 4789   1.451   3.113   8.959  0.4604  0.3068 -0.9788
   61SAPC  H19R 4790   1.531   3.060   9.014  0.5042 -0.4820 -1.7712
   61SAPC  H19S 4791   1.463   3.222   8.981 -1.2932  0.1702  0.9638
   61SAPC  C220 4792   1.460   3.089   8.810 -0.2679 -0.2035 -0.1392
   61SAPC  H20R 4793   1.389   3.156   8.757  0.3431 -0.4091 -1.2500
   61SAPC  H20S 4794   1.443   2.983   8.781 -1.2049 -0.1711  0.2378
   61SAPC  H20T 4795   1.564   3.116   8.782  0.2740 -0.7092  1.2691
   61SAPC   C33 4796   1.401   3.488  10.084  0.3971  0.0725 -0.2220
   61SAPC   H3X 4797   1.447   3.589  10.080  0.2472  0.1450 -0.0994
   61SAPC   H3Y 4798   1.293   3.504  10.105  0.7796 -0.1639  2.2916
   61SAPC   C34 4799   1.417   3.419   9.943  0.2109  0.6629 -0.0972
   61SAPC   H4X 4800   1.370   3.474   9.858 -0.9936  0.6160  0.5199
   61SAPC   H4Y 4801   1.370   3.319   9.955  2.1362 -0.1601  1.0645
   61SAPC   C35 4802   1.561   3.395   9.897 -0.1624 -0.3992  0.2822
   61SAPC   H5X 4803   1.620   3.321   9.953  1.1031 -0.5975 -1.2521
   61SAPC   H5Y 4804   1.611   3.493   9.917  1.8680 -0.3661 -3.8843
   61SAPC   C36 4805   1.579   3.356   9.744  0.2727  0.6230 -0.0003
   61SAPC   H6X 4806   1.555   3.439   9.674  0.5579  0.5328 -0.2041
   61SAPC   H6Y 4807   1.522   3.261   9.730  0.4366 -0.1448  3.5053
   61SAPC   C37 4808   1.725   3.317   9.704 -0.4464 -0.7558 -0.3394
   61SAPC   H7X 4809   1.737   3.213   9.743 -1.5376 -0.7603  0.0119
   61SAPC   H7Y 4810   1.802   3.380   9.754 -1.2267 -0.0046 -0.0563
   61SAPC   C38 4811   1.749   3.329   9.555  0.2376 -0.1958 -0.1192
   61SAPC   H8X 4812   1.857   3.337   9.530  0.0096  2.5615 -0.6329
   61SAPC   H8Y 4813   1.704   3.423   9.515 -2.5948 -0.8823  1.2067
   61SAPC   C39 4814   1.683   3.214   9.476  0.5660  0.6400  0.0599
   61SAPC   H9X 4815   1.585   3.184   9.519 -0.7028 -0.4323 -3.2903
   61SAPC   H9Y 4816   1.759   3.134   9.482  0.7422  0.8115  0.1348
   61SAPC  C310 4817   1.661   3.255   9.330 -0.0338  0.8342 -0.6404
   61SAPC  H10X 4818   1.606   3.352   9.327 -2.4496 -0.4186  0.5028
   61SAPC  H10Y 4819   1.592   3.180   9.286 -0.5717  1.3141 -0.6239
   61SAPC  C311 4820   1.790   3.251   9.248 -0.1219  0.2779 -0.1236
   61SAPC  H11X 4821   1.821   3.145   9.251  0.4921  0.4655  0.2657
   61SAPC  H11Y 4822   1.862   3.321   9.295  0.7204 -0.3582 -0.4324
   61SAPC  C312 4823   1.760   3.280   9.099  0.4003 -0.5191  0.1662
   61SAPC  H12X 4824   1.742   3.389   9.089 -0.3032 -0.8140 -2.5130
   61SAPC  H12Y 4825   1.668   3.225   9.072  2.0080 -3.0519 -0.4923
   61SAPC  C313 4826   1.870   3.242   9.003 -0.2102  0.3042  0.2148
   61SAPC  H13X 4827   1.959   3.302   9.029  0.4553 -0.9355  0.8903
   61SAPC  H13Y 4828   1.823   3.262   8.904 -2.9350  1.3479  1.6023
   61SAPC  C314 4829   1.927   3.097   9.005  0.6821  0.1846  0.9250
   61SAPC  H14X 4830   1.848   3.023   8.980  0.3447  1.0925 -0.7996
   61SAPC  H14Y 4831   1.977   3.061   9.098 -0.2926 -1.1212  0.9731
   61SAPC  C315 4832   2.024   3.077   8.884  0.2764  0.2057 -0.3633
   61SAPC  H15X 4833   2.120   3.131   8.900 -0.0819  1.0580 -1.0252
   61SAPC  H15Y 4834   1.983   3.126   8.793  1.2907  1.0893 -0.3656
   61SAPC  C316 4835   2.059   2.933   8.838  0.3004  0.3438 -0.1206
   61SAPC  H16X 4836   2.125   2.946   8.749 -0.7486  1.5845 -0.7561
   61SAPC  H16Y 4837   1.970   2.882   8.796 -0.2170  0.5171  0.7350
   61SAPC  C317 4838   2.127   2.848   8.935 -0.3245 -0.6472 -0.1446
   61SAPC  H17X 4839   2.053   2.829   9.015 -0.7132  0.9265 -0.1015
   61SAPC  H17Y 4840   2.209   2.905   8.984 -0.9089  0.7158 -0.6958
   61SAPC  C318 4841   2.162   2.706   8.885  0.0813 -0.2886  0.0748
   61SAPC  H18X 4842   2.210   2.640   8.960  1.1816  0.1479 -0.2259
   61SAPC  H18Y 4843   2.230   2.714   8.797 -0.3254  0.7113 -0.1627
   61SAPC  H18Z 4844   2.063   2.664   8.856 -0.9902  0.5650  2.2916
   62SAPC     N 4845   0.985   4.935  10.891  1.1649 -0.1969  0.4580
   62SAPC   C12 4846   1.046   4.857  11.001 -0.3889  0.6656 -0.5141
   62SAPC  H12A 4847   0.968   4.793  11.039  0.1477 -1.5941 -2.8768
   62SAPC  H12B 4848   1.079   4.911  11.089  0.9122 -1.4079  0.3570
   62SAPC   C13 4849   0.883   5.030  10.940 -0.3545  0.6446 -0.8622
   62SAPC  H13A 4850   0.807   4.994  11.007  1.6316  0.2660  1.3158
   62SAPC  H13B 4851   0.927   5.103  11.007 -0.5188  0.8542 -0.9797
   62SAPC  H13C 4852   0.851   5.092  10.857  0.3244  0.9149 -0.9305
   62SAPC   C14 4853   1.082   4.999  10.798  0.1440  0.4244  0.0279
   62SAPC  H14A 4854   1.142   4.920  10.754 -0.5433 -0.9570  1.4964
   62SAPC  H14B 4855   1.027   5.057  10.726 -2.0990  0.7760  1.9247
   62SAPC  H14C 4856   1.156   5.055  10.854 -1.6577 -0.9395  4.1226
   62SAPC   C15 4857   0.907   4.840  10.806 -0.0926  0.5145 -0.0941
   62SAPC  H15A 4858   0.886   4.876  10.706  2.8647  3.2993  0.1443
   62SAPC  H15B 4859   0.970   4.755  10.785  2.8377  2.4465  0.3593
   62SAPC  H15C 4860   0.819   4.811  10.861  0.8216  1.8922  2.2203
   62SAPC   C11 4861   1.161   4.759  10.960  0.7476 -0.7954  0.3273
   62SAPC  H11A 4862   1.151   4.674  11.032 -0.9499 -2.3045 -1.5430
   62SAPC  H11B 4863   1.254   4.819  10.967 -0.0215  0.1636  3.7201
   62SAPC     P 4864   1.237   4.587  10.790 -0.3270  0.4373 -0.5536
   62SAPC   O13 4865   1.372   4.644  10.780  0.0137  0.1440  0.1947
   62SAPC   O14 4866   1.216   4.474  10.882 -0.9914  0.2555  0.0463
   62SAPC   O12 4867   1.141   4.707  10.829  0.5037 -0.1434 -0.1454
   62SAPC   O11 4868   1.178   4.557  10.642 -0.1987  0.0747  0.0264
   62SAPC    C1 4869   1.149   4.658  10.546 -0.0041 -0.4050  0.0423
   62SAPC    HA 4870   1.044   4.658  10.512  0.8980 -2.1800 -3.1650
   62SAPC    HB 4871   1.167   4.761  10.585  0.6760  0.0822 -1.4871
   62SAPC    C2 4872   1.229   4.634  10.423  0.1243  0.2269  0.7281
   62SAPC    HS 4873   1.211   4.716  10.350  0.5092  0.8880  1.3560
   62SAPC   O21 4874   1.184   4.512  10.360 -0.4450 -0.5038  0.7027
   62SAPC   C21 4875   1.181   4.507  10.229 -0.3598 -0.6404 -0.1175
   62SAPC   O22 4876   1.207   4.604  10.155 -0.3314  0.2101 -0.2148
   62SAPC   C22 4877   1.139   4.368  10.190 -0.2649  0.0359  1.0416
   62SAPC   H2R 4878   1.205   4.296  10.244 -0.4661 -0.0542  1.1677
   62SAPC   H2S 4879   1.034   4.350  10.222 -1.1580  0.4426 -1.4061
   62SAPC    C3 4880   1.381   4.642  10.448  0.2907  0.5067 -0.6840
   62SAPC    HX 4881   1.395   4.551  10.510 -1.6145  1.0353  0.5992
   62SAPC    HY 4882   1.407   4.738  10.498 -2.8898  0.0834  2.0773
   62SAPC   O31 4883   1.455   4.618  10.331  0.1761  0.7538  0.0911
   62SAPC   C31 4884   1.473   4.725  10.252 -0.0684  0.6977 -0.1805
   62SAPC   O32 4885   1.434   4.837  10.274 -0.1186 -0.1618 -0.1421
   62SAPC   C32 4886   1.531   4.678  10.122 -0.5395  0.2737  0.1709
   62SAPC   H2X 4887   1.500   4.751  10.044 -2.1037  0.4440  0.9134
   62SAPC   H2Y 4888   1.482   4.580  10.102 -0.3646  0.1133  0.5295
   62SAPC   C23 4889   1.154   4.344  10.046 -1.0544 -0.2798  0.0909
   62SAPC   H3R 4890   1.261   4.360  10.020 -0.0800  0.4889  3.8819
   62SAPC   H3S 4891   1.107   4.425   9.987  1.4016  0.4888 -0.9540
   62SAPC   C24 4892   1.104   4.206  10.001 -0.9912  0.0718 -0.8477
   62SAPC   H4R 4893   1.149   4.137  10.075  0.5013  0.1446 -1.6527
   62SAPC   H4S 4894   1.150   4.194   9.901  0.6435  0.6165 -0.1895
   62SAPC   C25 4895   0.955   4.197   9.997  0.1845 -0.0005  0.6992
   62SAPC   H5R 4896   0.905   4.210  10.094 -1.7429  0.6657 -0.3159
   62SAPC   C26 4897   0.876   4.167   9.889 -0.1878  0.5406  0.2092
   62SAPC   H6R 4898   0.767   4.151   9.895 -0.2688  0.4279 -1.2396
   62SAPC   C27 4899   0.910   4.155   9.746 -0.6374  0.2121 -0.4658
   62SAPC   H7R 4900   0.877   4.056   9.708 -1.3371 -0.4148  1.6339
   62SAPC   H7S 4901   1.020   4.151   9.732 -0.4338 -1.6462  1.1260
   62SAPC   C28 4902   0.843   4.255   9.652 -0.0694 -0.2792 -0.1412
   62SAPC   H8R 4903   0.757   4.315   9.686  0.6368  2.5424 -2.7754
   62SAPC   C29 4904   0.882   4.284   9.524  0.1388  0.9663 -0.3243
   62SAPC   H9R 4905   0.828   4.362   9.469 -0.4830  2.2129  1.9065
   62SAPC  C210 4906   0.999   4.226   9.441 -0.5338 -0.6192 -0.0224
   62SAPC  H10R 4907   0.973   4.126   9.400 -0.9139 -1.0272  1.1586
   62SAPC  H10S 4908   1.083   4.206   9.511  0.6749 -2.4703 -1.8819
   62SAPC  C211 4909   1.045   4.330   9.336  0.4314  0.2069 -0.3860
   62SAPC  H11R 4910   1.115   4.408   9.369  0.3459  2.2159 -4.3431
   62SAPC  C212 4911   1.017   4.337   9.202  0.1732  0.9157 -0.1697
   62SAPC  H12R 4912   1.072   4.413   9.144  0.2906 -0.5053 -2.0242
   62SAPC  C213 4913   0.924   4.233   9.132 -0.3971  0.4322  0.1597
   62SAPC  H13R 4914   0.936   4.142   9.194  0.0775  0.4111  0.0439
   62SAPC  H13S 4915   0.961   4.192   9.036  2.6515 -0.1052  1.4541
   62SAPC  C214 4916   0.781   4.275   9.137 -0.0994 -0.5426 -0.1798
   62SAPC  H14R 4917   0.744   4.259   9.239  1.5742  1.1006  0.7410
   62SAPC  C215 4918   0.699   4.312   9.036  0.1399  0.9216  0.3780
   62SAPC  H15R 4919   0.596   4.344   9.057  0.5566  0.5702  3.5647
   62SAPC  C216 4920   0.730   4.317   8.888  0.1095  0.1412  0.3256
   62SAPC  H16R 4921   0.836   4.313   8.857 -0.3333  0.7291 -1.3884
   62SAPC  H16S 4922   0.686   4.411   8.848  1.7643 -0.4864 -3.4100
   62SAPC  C217 4923   0.649   4.227   8.784 -0.0620 -0.0387  0.0110
   62SAPC  H17R 4924   0.543   4.222   8.817  0.2712  1.1571  1.3406
   62SAPC  H17S 4925   0.694   4.128   8.803  0.9051  0.8781  2.9980
   62SAPC  C218 4926   0.667   4.273   8.636  0.3734 -0.0804  0.0469
   62SAPC  H18R 4927   0.766   4.321   8.621  0.5058 -0.3012  0.2080
   62SAPC  H18S 4928   0.595   4.354   8.615 -1.6641 -1.6890  0.5456
   62SAPC  C219 4929   0.644   4.163   8.534 -0.1187 -0.2022 -0.0683
   62SAPC  H19R 4930   0.727   4.089   8.545  0.7807  0.9770  1.6484
   62SAPC  H19S 4931   0.658   4.210   8.435  0.1594  1.1734  0.5893
   62SAPC  C220 4932   0.510   4.093   8.521 -0.1075 -0.1482 -0.3049
   62SAPC  H20R 4933   0.418   4.155   8.514 -0.5522 -0.7709 -0.0542
   62SAPC  H20S 4934   0.494   4.011   8.594  0.7843  0.6196  0.7800
   62SAPC  H20T 4935   0.510   4.040   8.424  1.1328 -2.7993  1.0361
   62SAPC   C33 4936   1.682   4.662  10.122 -0.0537 -0.0298 -0.1023
   62SAPC   H3X 4937   1.706   4.579  10.193 -0.8645 -0.4048 -0.2573
   62SAPC   H3Y 4938   1.725   4.760  10.151  0.3261 -0.8413  2.3158
   62SAPC   C34 4939   1.731   4.622   9.984 -0.3018  0.2816 -1.1443
   62SAPC   H4X 4940   1.724   4.708   9.914 -0.1679  0.4302 -0.9730
   62SAPC   H4Y 4941   1.671   4.537   9.945  1.6182 -2.4467  1.4502
   62SAPC   C35 4942   1.885   4.580   9.972 -0.5219  0.5403  0.4494
   62SAPC   H5X 4943   1.898   4.485  10.027 -1.0523 -0.1827 -0.6236
   62SAPC   H5Y 4944   1.939   4.665  10.019  1.0956 -0.0364 -0.2938
   62SAPC   C36 4945   1.926   4.561   9.823  0.1466 -0.9660 -0.0250
   62SAPC   H6X 4946   2.031   4.525   9.814  0.3663 -0.9786  2.1980
   62SAPC   H6Y 4947   1.931   4.665   9.782 -1.1908  0.3120  2.7474
   62SAPC   C37 4948   1.842   4.477   9.726  0.3578  0.2522  0.7694
   62SAPC   H7X 4949   1.737   4.512   9.735 -0.2754 -1.3018 -0.0983
   62SAPC   H7Y 4950   1.838   4.367   9.743 -0.0554  0.0538 -0.5145
   62SAPC   C38 4951   1.875   4.504   9.577 -0.1155 -0.1999  0.3167
   62SAPC   H8X 4952   1.968   4.449   9.551  0.3953 -0.0346  1.6871
   62SAPC   H8Y 4953   1.903   4.608   9.552  3.5203 -0.3144  3.0011
   62SAPC   C39 4954   1.761   4.455   9.488 -0.1773 -0.5247  0.2185
   62SAPC   H9X 4955   1.675   4.525   9.497 -0.8012 -0.9630 -1.9274
   62SAPC   H9Y 4956   1.724   4.356   9.522 -0.3567  0.1453  2.0874
   62SAPC  C310 4957   1.791   4.440   9.337 -0.0660 -0.0848  0.7261
   62SAPC  H10X 4958   1.718   4.376   9.284  0.3931  0.0588 -0.0960
   62SAPC  H10Y 4959   1.887   4.390   9.312 -0.4911  0.3556 -2.0427
   62SAPC  C311 4960   1.786   4.578   9.265  0.3808 -0.5298 -0.6791
   62SAPC  H11X 4961   1.869   4.629   9.320  1.2796 -2.3279 -0.3053
   62SAPC  H11Y 4962   1.692   4.631   9.291  0.0260 -1.7804  0.7373
   62SAPC  C312 4963   1.809   4.579   9.120  0.3261 -0.2731 -0.0232
   62SAPC  H12X 4964   1.899   4.515   9.106  0.3430 -0.5580  1.2736
   62SAPC  H12Y 4965   1.813   4.683   9.081  2.1898 -0.3810 -0.2336
   62SAPC  C313 4966   1.702   4.511   9.037  0.1754 -0.7901  0.0207
   62SAPC  H13X 4967   1.676   4.415   9.085 -0.6383 -0.4093  0.3683
   62SAPC  H13Y 4968   1.734   4.493   8.932 -2.1900 -0.3091 -0.8557
   62SAPC  C314 4969   1.576   4.599   9.028  0.5720  0.0345  0.4552
   62SAPC  H14X 4970   1.593   4.695   8.975  0.3116 -0.3597 -0.3620
   62SAPC  H14Y 4971   1.538   4.641   9.124  2.3278 -1.1181  1.6960
   62SAPC  C315 4972   1.471   4.522   8.950 -0.4121  0.0483  0.3410
   62SAPC  H15X 4973   1.474   4.420   8.995  2.6827 -0.3991 -0.5994
   62SAPC  H15Y 4974   1.502   4.507   8.845 -2.7047  0.4922 -0.4495
   62SAPC  C316 4975   1.325   4.594   8.954  0.4261  0.0729  0.2941
   62SAPC  H16X 4976   1.354   4.693   8.913  3.2408 -1.7952 -2.7468
   62SAPC  H16Y 4977   1.302   4.596   9.063  0.4484  2.4782  0.3078
   62SAPC  C317 4978   1.209   4.522   8.878  0.0400  0.5552 -0.4475
   62SAPC  H17X 4979   1.189   4.429   8.934  0.9621 -0.2669 -1.4198
   62SAPC  H17Y 4980   1.247   4.485   8.780  1.8309  0.8501  0.0894
   62SAPC  C318 4981   1.074   4.592   8.861  0.7208 -0.2124  0.2112
   62SAPC  H18X 4982   1.089   4.680   8.795 -2.8056  0.0748 -0.4015
   62SAPC  H18Y 4983   1.020   4.625   8.953 -1.6343  3.0442 -2.1090
   62SAPC  H18Z 4984   1.008   4.521   8.807  3.5389 -2.2919 -0.7063
   63SAPC     N 4985   5.025   1.188   6.553 -0.1041  0.0415 -0.2156
   63SAPC   C12 4986   5.155   1.177   6.632 -0.3116 -0.3271 -0.0401
   63SAPC  H12A 4987   5.199   1.078   6.627  0.4931 -0.0005  0.4222
   63SAPC  H12B 4988   5.130   1.184   6.737 -1.0159  0.3442 -0.2510
   63SAPC   C13 4989   4.960   1.320   6.575 -0.0990  0.2449  0.1341
   63SAPC  H13A 4990   5.020   1.408   6.557 -1.2781  0.4862 -3.4001
   63SAPC  H13B 4991   4.880   1.340   6.505 -0.2726 -1.5571 -0.2384
   63SAPC  H13C 4992   4.931   1.328   6.679  1.7980 -1.4999  0.8801
   63SAPC   C14 4993   5.049   1.175   6.406 -0.4372 -0.1699  0.3022
   63SAPC  H14A 4994   4.959   1.206   6.355 -0.0970  0.1684 -0.1011
   63SAPC  H14B 4995   5.131   1.246   6.396  0.2719 -0.6930  1.9880
   63SAPC  H14C 4996   5.061   1.071   6.383 -0.7359 -0.2782  0.6408
   63SAPC   C15 4997   4.924   1.077   6.577  0.1313 -1.0997 -0.5269
   63SAPC  H15A 4998   4.842   1.085   6.507  0.3940  2.0707 -0.6018
   63SAPC  H15B 4999   4.969   0.982   6.553  1.2067 -0.6747 -0.2494
   63SAPC  H15C 5000   4.897   1.077   6.681 -1.4337  4.2512 -0.6415
   63SAPC   C11 5001   5.262   1.288   6.610  0.3404 -1.2133 -0.1648
   63SAPC  H11A 5002   5.291   1.290   6.503  0.1653  0.5293 -0.2068
   63SAPC  H11B 5003   5.352   1.263   6.669  2.1147  1.0196 -1.7556
   63SAPC     P 5004   5.297   1.553   6.614  0.0722 -0.4777 -0.6799
   63SAPC   O13 5005   5.327   1.548   6.474  0.0690  0.8217  0.1636
   63SAPC   O14 5006   5.214   1.664   6.672  0.4475 -0.5042  0.1230
   63SAPC   O12 5007   5.217   1.419   6.648 -0.4800  0.6596 -0.2122
   63SAPC   O11 5008   5.432   1.540   6.696  0.3110 -0.3089 -0.3333
   63SAPC    C1 5009   5.415   1.532   6.843 -0.6461 -0.2732  0.5476
   63SAPC    HA 5010   5.309   1.536   6.875 -1.1158 -1.0670 -0.8269
   63SAPC    HB 5011   5.456   1.434   6.875  1.8081  1.1413  2.0735
   63SAPC    C2 5012   5.504   1.644   6.912 -0.1151 -0.0474 -0.1489
   63SAPC    HS 5013   5.526   1.602   7.013 -0.6077 -0.3118 -0.1441
   63SAPC   O21 5014   5.432   1.772   6.923  0.0768  0.1709 -0.4762
   63SAPC   C21 5015   5.353   1.777   7.034 -0.6835 -0.9485 -0.1805
   63SAPC   O22 5016   5.332   1.689   7.115  0.2932  0.2635 -0.0114
   63SAPC   C22 5017   5.296   1.920   7.049 -0.2360 -0.0325  0.7351
   63SAPC   H2R 5018   5.383   1.988   7.064  0.0078  0.2281 -1.5052
   63SAPC   H2S 5019   5.250   1.953   6.954 -0.1430 -0.7345  0.4463
   63SAPC    C3 5020   5.635   1.675   6.843 -0.2411 -0.1339  0.0308
   63SAPC    HX 5021   5.616   1.717   6.743 -1.5706 -0.0298  0.3123
   63SAPC    HY 5022   5.691   1.584   6.813  0.6310  1.0851 -2.3021
   63SAPC   O31 5023   5.717   1.757   6.927  0.3358  0.2910 -0.7016
   63SAPC   C31 5024   5.703   1.891   6.917  0.3383 -0.3345 -0.0680
   63SAPC   O32 5025   5.621   1.947   6.850 -0.4813  0.0222  0.4651
   63SAPC   C32 5026   5.804   1.962   6.999 -0.5546 -0.1837 -0.0335
   63SAPC   H2X 5027   5.799   2.068   6.968  0.6963 -0.2641 -0.5683
   63SAPC   H2Y 5028   5.909   1.936   6.974 -0.4418  1.2895 -1.2540
   63SAPC   C23 5029   5.185   1.933   7.161  0.4861 -0.4157  0.1602
   63SAPC   H3R 5030   5.100   1.867   7.134 -2.5930  3.4686 -0.6536
   63SAPC   H3S 5031   5.147   2.038   7.161  2.6950  0.4296  0.8928
   63SAPC   C24 5032   5.230   1.910   7.309  0.2375  0.7290  0.0992
   63SAPC   H4R 5033   5.218   1.801   7.326  1.5631  0.2408 -1.8282
   63SAPC   H4S 5034   5.152   1.969   7.361  0.6891  1.6777 -0.2711
   63SAPC   C25 5035   5.374   1.972   7.323 -0.1350  0.4992 -0.0733
   63SAPC   H5R 5036   5.388   2.066   7.268  1.0787  1.0486  1.0906
   63SAPC   C26 5037   5.476   1.921   7.395 -0.7356  0.5003  0.2102
   63SAPC   H6R 5038   5.563   1.985   7.414 -0.9543  0.4976  1.2688
   63SAPC   C27 5039   5.466   1.795   7.477 -0.6349  0.7508  0.1537
   63SAPC   H7R 5040   5.396   1.724   7.427 -0.1565 -0.7135  1.4645
   63SAPC   H7S 5041   5.416   1.820   7.573 -2.4009 -0.7879 -0.2832
   63SAPC   C28 5042   5.603   1.730   7.504  0.5006  0.1002  0.2408
   63SAPC   H8R 5043   5.635   1.663   7.424  2.7965  0.1505  1.0392
   63SAPC   C29 5044   5.676   1.738   7.617 -0.3146  0.3413  0.2432
   63SAPC   H9R 5045   5.771   1.682   7.618  0.1832  1.1229 -0.9270
   63SAPC  C210 5046   5.646   1.813   7.742 -0.7345 -0.1299 -0.3015
   63SAPC  H10R 5047   5.585   1.899   7.707 -1.1600 -1.2047 -2.3019
   63SAPC  H10S 5048   5.737   1.867   7.775 -1.2538 -0.6338  2.1472
   63SAPC  C211 5049   5.578   1.752   7.862  0.4063  0.6296  0.4877
   63SAPC  H11R 5050   5.477   1.714   7.836  1.0327 -0.2712 -0.7671
   63SAPC  C212 5051   5.614   1.740   7.993  0.7407  0.0610  0.1146
   63SAPC  H12R 5052   5.538   1.699   8.061 -0.0948  1.5879  0.1583
   63SAPC  C213 5053   5.735   1.796   8.063  0.2440  0.6880  0.1264
   63SAPC  H13R 5054   5.702   1.893   8.104 -1.3838  0.4583 -0.5611
   63SAPC  H13S 5055   5.804   1.821   7.980  0.2877 -1.2200 -0.4730
   63SAPC  C214 5056   5.797   1.715   8.173 -0.0600 -0.2843 -0.1496
   63SAPC  H14R 5057   5.868   1.643   8.131 -0.5173 -0.7994 -0.0484
   63SAPC  C215 5058   5.759   1.717   8.306 -0.6469  0.2616 -0.3066
   63SAPC  H15R 5059   5.814   1.664   8.385 -0.0583  1.5483  0.1614
   63SAPC  C216 5060   5.653   1.801   8.374  0.2092  0.3424  0.6012
   63SAPC  H16R 5061   5.577   1.733   8.416  1.7065 -1.3186  0.7058
   63SAPC  H16S 5062   5.598   1.867   8.303 -1.3767 -0.4833  1.0250
   63SAPC  C217 5063   5.709   1.894   8.487 -0.3757 -0.0986  0.1540
   63SAPC  H17R 5064   5.629   1.964   8.518 -1.0893  0.4768 -2.6719
   63SAPC  H17S 5065   5.791   1.955   8.444 -2.4256  1.3785 -1.9342
   63SAPC  C218 5066   5.765   1.811   8.608 -0.7801 -0.3398 -0.1006
   63SAPC  H18R 5067   5.840   1.739   8.568 -0.0009  1.5384 -2.3074
   63SAPC  H18S 5068   5.691   1.742   8.654 -1.2583  0.6424  0.6236
   63SAPC  C219 5069   5.825   1.881   8.729  0.2313 -0.0021  0.5023
   63SAPC  H19R 5070   5.758   1.952   8.781  2.2164  0.5761  2.4184
   63SAPC  H19S 5071   5.914   1.934   8.690 -1.2082  2.3830  0.2995
   63SAPC  C220 5072   5.885   1.780   8.822 -0.0253  0.6636  0.4015
   63SAPC  H20R 5073   5.963   1.728   8.762 -1.5007 -1.0545 -0.1173
   63SAPC  H20S 5074   5.823   1.696   8.860  2.4966 -2.5405 -1.9609
   63SAPC  H20T 5075   5.943   1.814   8.911  1.4716 -4.8739  1.9692
   63SAPC   C33 5076   5.786   1.942   7.150  0.1910  0.2612 -0.2449
   63SAPC   H3X 5077   5.794   1.836   7.184 -0.2294  0.6420  1.1160
   63SAPC   H3Y 5078   5.685   1.974   7.185  0.9197  0.3461  1.9264
   63SAPC   C34 5079   5.886   2.025   7.222 -0.2184 -0.0116  0.1004
   63SAPC   H4X 5080   5.868   2.132   7.198  3.0112  0.3773 -1.1615
   63SAPC   H4Y 5081   5.992   2.017   7.190 -0.0005  1.1735  0.4817
   63SAPC   C35 5082   5.876   2.016   7.374 -0.0426 -0.6900  0.9257
   63SAPC   H5X 5083   5.902   1.916   7.414 -1.8656 -1.9568 -0.8677
   63SAPC   H5Y 5084   5.769   2.022   7.401  0.2265 -0.9548  2.1346
   63SAPC   C36 5085   5.937   2.122   7.463  0.5047 -0.1897 -0.4052
   63SAPC   H6X 5086   5.905   2.225   7.437 -1.6533 -1.0120 -1.2432
   63SAPC   H6Y 5087   6.047   2.108   7.456  0.5614 -1.0618  1.5641
   63SAPC   C37 5088   5.898   2.098   7.614 -0.0861 -0.1856 -0.0733
   63SAPC   H7X 5089   5.924   1.996   7.648 -3.4625 -1.0353  0.2846
   63SAPC   H7Y 5090   5.787   2.096   7.609 -0.0388  0.0759 -1.7847
   63SAPC   C38 5091   5.960   2.201   7.707 -0.0359  0.8502  0.5933
   63SAPC   H8X 5092   5.934   2.301   7.667 -0.7666  0.8695  1.0933
   63SAPC   H8Y 5093   6.069   2.179   7.712 -0.0906  0.8414  2.9751
   63SAPC   C39 5094   5.910   2.176   7.853  0.0007 -0.4465  0.1153
   63SAPC   H9X 5095   5.914   2.070   7.884 -0.2116 -0.0370  1.6446
   63SAPC   H9Y 5096   5.807   2.216   7.866  0.5354  0.7483  0.8387
   63SAPC  C310 5097   5.999   2.256   7.955  0.1623  0.2095 -0.5803
   63SAPC  H10X 5098   5.985   2.364   7.934  0.4076  0.0960 -1.3876
   63SAPC  H10Y 5099   6.109   2.240   7.942  0.4173  1.7298 -0.4886
   63SAPC  C311 5100   5.970   2.239   8.108  1.0087 -0.4450 -0.2385
   63SAPC  H11X 5101   5.957   2.134   8.140  0.0223  0.0457  1.1256
   63SAPC  H11Y 5102   5.867   2.281   8.113  0.6535 -1.3280  0.0638
   63SAPC  C312 5103   6.065   2.302   8.203  0.0840 -0.3553 -0.4161
   63SAPC  H12X 5104   6.088   2.407   8.179 -0.3447 -0.6886 -2.4736
   63SAPC  H12Y 5105   6.160   2.252   8.172  0.8686  0.1016  1.1402
   63SAPC  C313 5106   6.017   2.284   8.349  0.1380  0.0049  0.8530
   63SAPC  H13X 5107   6.008   2.173   8.361 -0.6924  0.0606  0.8216
   63SAPC  H13Y 5108   5.920   2.335   8.367  0.6056  0.7322  1.3293
   63SAPC  C314 5109   6.124   2.329   8.445 -0.2241  0.2553  0.6899
   63SAPC  H14X 5110   6.223   2.291   8.413 -0.4544 -0.4039  0.7530
   63SAPC  H14Y 5111   6.088   2.293   8.544 -1.5447  1.7234  0.7901
   63SAPC  C315 5112   6.125   2.477   8.459 -0.2095 -0.9490 -0.6587
   63SAPC  H15X 5113   6.019   2.506   8.478  0.1918  1.0684 -1.2543
   63SAPC  H15Y 5114   6.162   2.536   8.372  2.1528 -1.6213 -0.1717
   63SAPC  C316 5115   6.215   2.528   8.572  0.2946 -0.0010  0.0218
   63SAPC  H16X 5116   6.191   2.481   8.670  2.5633  1.5496  1.4303
   63SAPC  H16Y 5117   6.210   2.638   8.587  0.1787 -0.1946  1.5206
   63SAPC  C317 5118   6.364   2.494   8.558  0.3099 -0.7565  0.3260
   63SAPC  H17X 5119   6.397   2.515   8.454 -0.5313  0.1478  0.2363
   63SAPC  H17Y 5120   6.376   2.387   8.586  0.4488 -0.4681  1.4062
   63SAPC  C318 5121   6.455   2.568   8.650  0.3229  0.0572 -0.4434
   63SAPC  H18X 5122   6.438   2.675   8.626 -0.2540  0.5221  1.8326
   63SAPC  H18Y 5123   6.561   2.536   8.638  0.0743 -1.0296  0.0926
   63SAPC  H18Z 5124   6.418   2.558   8.754  0.7578 -0.3047 -0.3203
   64SAPC     N 5125   0.644   3.611   6.266  0.1703  1.0667  0.0523
   64SAPC   C12 5126   0.554   3.551   6.377 -0.6702  0.3528 -0.4360
   64SAPC  H12A 5127   0.495   3.472   6.333  0.3439 -0.1655 -0.8861
   64SAPC  H12B 5128   0.483   3.627   6.405  0.6910  1.8045 -0.7553
   64SAPC   C13 5129   0.557   3.643   6.141 -0.0966  0.2859 -0.8009
   64SAPC  H13A 5130   0.616   3.717   6.089 -0.0276  1.2674  0.6178
   64SAPC  H13B 5131   0.540   3.548   6.093  2.3989 -1.2980  1.2121
   64SAPC  H13C 5132   0.473   3.704   6.171  0.2857  1.8547 -2.7106
   64SAPC   C14 5133   0.717   3.729   6.317 -0.3308  0.1376 -0.7565
   64SAPC  H14A 5134   0.803   3.706   6.377 -0.4465  2.1356  0.2579
   64SAPC  H14B 5135   0.746   3.791   6.234 -1.9555  1.5077 -0.3697
   64SAPC  H14C 5136   0.654   3.789   6.381  0.3288 -0.5440  0.5768
   64SAPC   C15 5137   0.739   3.503   6.231  0.2454  0.1071 -0.1938
   64SAPC  H15A 5138   0.799   3.469   6.314 -0.6380  0.3753  0.5705
   64SAPC  H15B 5139   0.700   3.409   6.195  0.9305 -0.4981  0.5973
   64SAPC  H15C 5140   0.811   3.543   6.161 -0.7464  1.1996 -0.6222
   64SAPC   C11 5141   0.620   3.503   6.505  0.3971  0.1459 -0.0325
   64SAPC  H11A 5142   0.545   3.483   6.584 -0.7463  2.5907 -0.3800
   64SAPC  H11B 5143   0.689   3.577   6.552  1.0440 -0.0125 -0.7092
   64SAPC     P 5144   0.586   3.252   6.442  0.3751  0.3260 -0.3483
   64SAPC   O13 5145   0.442   3.298   6.446 -0.2789 -0.0751 -0.4152
   64SAPC   O14 5146   0.634   3.191   6.319  1.1774 -0.2904 -0.1114
   64SAPC   O12 5147   0.682   3.381   6.483  0.1396  0.8634  0.0848
   64SAPC   O11 5148   0.599   3.141   6.556 -0.2737  0.1007 -0.0254
   64SAPC    C1 5149   0.721   3.119   6.628  0.0689  0.0964 -0.5319
   64SAPC    HA 5150   0.734   3.009   6.639  3.4406  0.2438 -2.0138
   64SAPC    HB 5151   0.804   3.160   6.566 -0.5370  1.0721 -0.7170
   64SAPC    C2 5152   0.716   3.186   6.769 -0.2713  0.8346 -0.7353
   64SAPC    HS 5153   0.719   3.297   6.766 -0.8039  0.9534  1.4040
   64SAPC   O21 5154   0.821   3.129   6.851  0.0103 -0.5158  0.8326
   64SAPC   C21 5155   0.938   3.195   6.832 -0.9741  0.2905  0.1492
   64SAPC   O22 5156   0.943   3.296   6.760  0.3306  0.3376  0.9529
   64SAPC   C22 5157   1.049   3.128   6.902  0.0422  0.1627  1.3890
   64SAPC   H2R 5158   1.026   3.025   6.938 -1.1699  0.2274  0.8634
   64SAPC   H2S 5159   1.127   3.117   6.824  0.9400 -0.3738  2.3498
   64SAPC    C3 5160   0.584   3.151   6.836  0.2641  0.2937 -0.3979
   64SAPC    HX 5161   0.568   3.041   6.830 -0.3090  0.3295  0.3262
   64SAPC    HY 5162   0.506   3.198   6.772  0.5847  0.8669 -0.3683
   64SAPC   O31 5163   0.571   3.198   6.973 -0.0211  0.0612 -0.3235
   64SAPC   C31 5164   0.605   3.114   7.068  0.2948 -0.1136 -0.9948
   64SAPC   O32 5165   0.609   2.992   7.058  0.3159  0.4392 -0.1659
   64SAPC   C32 5166   0.626   3.197   7.194  0.9246 -0.2876 -0.3154
   64SAPC   H2X 5167   0.555   3.283   7.187  0.9203 -0.3684 -1.3579
   64SAPC   H2Y 5168   0.728   3.241   7.196  1.0830 -0.5994 -1.0858
   64SAPC   C23 5169   1.101   3.226   7.009 -0.3533  0.5716  0.2746
   64SAPC   H3R 5170   1.132   3.323   6.965 -0.2382  0.5867  0.3877
   64SAPC   H3S 5171   1.193   3.171   7.037  0.4796  0.5514 -2.3048
   64SAPC   C24 5172   1.017   3.249   7.133 -0.3141  0.2116  0.2193
   64SAPC   H4R 5173   0.931   3.314   7.106  0.2826  0.8606 -0.1333
   64SAPC   H4S 5174   1.080   3.307   7.204 -0.9879 -0.0857  1.0895
   64SAPC   C25 5175   0.978   3.111   7.202 -0.2422 -0.5999  0.5411
   64SAPC   H5R 5176   0.913   3.053   7.134  1.0939  0.4015 -1.7113
   64SAPC   C26 5177   0.990   3.083   7.332  0.0695  0.1702  0.7379
   64SAPC   H6R 5178   0.955   2.983   7.364 -0.6072 -0.0155 -0.5337
   64SAPC   C27 5179   1.046   3.155   7.444 -0.5120  0.3784  0.1263
   64SAPC   H7R 5180   0.999   3.112   7.535  1.0944 -1.4566  0.1500
   64SAPC   H7S 5181   1.022   3.264   7.446 -1.4676  0.1918  2.3150
   64SAPC   C28 5182   1.191   3.143   7.453 -0.3540 -0.3370 -0.2010
   64SAPC   H8R 5183   1.240   3.116   7.359 -0.0079  0.2597 -0.2022
   64SAPC   C29 5184   1.257   3.178   7.560 -0.6796  0.1510  0.8558
   64SAPC   H9R 5185   1.367   3.180   7.556 -0.6879 -0.8774 -0.7312
   64SAPC  C210 5186   1.198   3.218   7.689 -0.0187 -0.2292  0.0245
   64SAPC  H10R 5187   1.211   3.132   7.757 -2.0086 -0.6901 -0.0961
   64SAPC  H10S 5188   1.088   3.224   7.674 -0.1206 -1.5010  0.1406
   64SAPC  C211 5189   1.253   3.341   7.749  0.2399  0.2992  0.7220
   64SAPC  H11R 5190   1.259   3.433   7.689  0.0915  2.1083  3.2966
   64SAPC  C212 5191   1.285   3.350   7.879 -0.8681 -0.2079  0.1029
   64SAPC  H12R 5192   1.301   3.454   7.911  0.5073 -0.1738 -0.6024
   64SAPC  C213 5193   1.263   3.249   7.987 -0.8061  0.5870 -0.7256
   64SAPC  H13R 5194   1.339   3.269   8.066 -0.3845 -0.6485 -0.7859
   64SAPC  H13S 5195   1.279   3.144   7.954  2.8929  0.8335 -0.1544
   64SAPC  C214 5196   1.133   3.257   8.052  0.5630  0.2169 -0.3759
   64SAPC  H14R 5197   1.055   3.201   7.999  0.7030 -1.6632  1.3013
   64SAPC  C215 5198   1.086   3.320   8.164  0.1210  0.1127  0.7432
   64SAPC  H15R 5199   0.978   3.323   8.183  0.2249  0.7139  1.3091
   64SAPC  C216 5200   1.157   3.402   8.260  0.3728  0.1464 -0.0529
   64SAPC  H16R 5201   1.100   3.494   8.286  0.8857  1.4640 -3.0692
   64SAPC  H16S 5202   1.256   3.437   8.222  1.0761  0.1863  1.7410
   64SAPC  C217 5203   1.204   3.305   8.375 -0.0350 -0.2475  0.3364
   64SAPC  H17R 5204   1.207   3.199   8.343  0.8040  0.0039 -0.4761
   64SAPC  H17S 5205   1.120   3.308   8.448 -0.0052 -0.2895  0.3729
   64SAPC  C218 5206   1.333   3.332   8.446 -0.3014 -0.4485  0.2706
   64SAPC  H18R 5207   1.337   3.278   8.543  0.9910  0.5677  0.8200
   64SAPC  H18S 5208   1.342   3.441   8.469  2.5926 -0.0013 -2.2289
   64SAPC  C219 5209   1.459   3.312   8.359  0.0928 -0.2604 -0.3821
   64SAPC  H19R 5210   1.441   3.394   8.286  1.1549 -0.6213 -1.0735
   64SAPC  H19S 5211   1.448   3.208   8.321 -1.4010 -0.3299  0.1382
   64SAPC  C220 5212   1.590   3.335   8.433  0.2875  0.5962 -0.3587
   64SAPC  H20R 5213   1.676   3.335   8.363  0.9991  0.5339  0.4916
   64SAPC  H20S 5214   1.601   3.249   8.503 -0.8274  1.3077  0.7266
   64SAPC  H20T 5215   1.592   3.430   8.490 -2.7008 -0.7115  2.2200
   64SAPC   C33 5216   0.609   3.125   7.327  0.8283  0.2878  0.1469
   64SAPC   H3X 5217   0.686   3.044   7.324  1.7618  1.1741 -0.7561
   64SAPC   H3Y 5218   0.511   3.078   7.350 -0.2523  3.0967  1.7286
   64SAPC   C34 5219   0.649   3.213   7.451  0.0061  0.0414  0.1884
   64SAPC   H4X 5220   0.571   3.291   7.453  0.0289  0.1086 -0.8474
   64SAPC   H4Y 5221   0.748   3.263   7.443 -0.1489  0.1127 -1.5735
   64SAPC   C35 5222   0.649   3.128   7.583  0.8058 -0.0314 -0.7823
   64SAPC   H5X 5223   0.713   3.038   7.579  1.2652  0.1700  1.3608
   64SAPC   H5Y 5224   0.547   3.085   7.593  1.3088 -0.8844  0.9942
   64SAPC   C36 5225   0.682   3.210   7.702  0.3194  0.0756 -0.8380
   64SAPC   H6X 5226   0.616   3.298   7.715  1.6191  0.6352  3.8434
   64SAPC   H6Y 5227   0.776   3.269   7.688  0.2019  0.3885 -0.3528
   64SAPC   C37 5228   0.689   3.127   7.831  0.0710  0.2979  0.0241
   64SAPC   H7X 5229   0.766   3.048   7.818 -1.6291 -1.2961 -0.9690
   64SAPC   H7Y 5230   0.590   3.076   7.841  1.3950 -2.3539  0.5321
   64SAPC   C38 5231   0.727   3.212   7.957  0.1003  0.1987  0.5880
   64SAPC   H8X 5232   0.814   3.275   7.926 -0.3156  0.1194 -0.7865
   64SAPC   H8Y 5233   0.764   3.140   8.033 -1.2352 -0.8033  0.3197
   64SAPC   C39 5234   0.617   3.290   8.025  0.2979 -0.3919  0.1612
   64SAPC   H9X 5235   0.591   3.384   7.972 -0.3414 -0.3245  0.5722
   64SAPC   H9Y 5236   0.664   3.329   8.118  1.4903  2.0615 -1.3603
   64SAPC  C310 5237   0.490   3.217   8.060 -0.2375 -0.0045 -0.5436
   64SAPC  H10X 5238   0.513   3.147   8.143  0.5119 -1.7416 -2.1573
   64SAPC  H10Y 5239   0.459   3.161   7.969  1.6995  1.0273 -1.9118
   64SAPC  C311 5240   0.364   3.300   8.098  0.1786  0.5364 -0.5886
   64SAPC  H11X 5241   0.345   3.371   8.014  1.5748 -0.0228 -1.4069
   64SAPC  H11Y 5242   0.377   3.377   8.177  0.7154  1.8366 -1.8883
   64SAPC  C312 5243   0.230   3.228   8.112  0.0194  0.6142 -0.1743
   64SAPC  H12X 5244   0.206   3.164   8.024 -0.0316 -1.8990  1.5834
   64SAPC  H12Y 5245   0.150   3.304   8.126 -0.2944  0.1041  0.8638
   64SAPC  C313 5246   0.225   3.125   8.231  1.0402  0.1567  0.1574
   64SAPC  H13X 5247   0.292   3.040   8.208 -0.5165 -0.6350 -1.7463
   64SAPC  H13Y 5248   0.124   3.082   8.249  0.9864  0.5525  0.8326
   64SAPC  C314 5249   0.259   3.184   8.363  0.5080 -0.0815 -0.4272
   64SAPC  H14X 5250   0.181   3.254   8.399  0.1149 -0.4164 -0.6289
   64SAPC  H14Y 5251   0.355   3.240   8.352 -1.1031  2.6837 -1.2106
   64SAPC  C315 5252   0.273   3.074   8.472 -0.5303  0.2388  0.1661
   64SAPC  H15X 5253   0.349   2.995   8.453 -2.4069 -2.6339  3.5372
   64SAPC  H15Y 5254   0.176   3.024   8.490 -0.3492 -0.5215 -0.8817
   64SAPC  C316 5255   0.311   3.134   8.615  0.2498  0.2841 -0.3151
   64SAPC  H16X 5256   0.220   3.158   8.674  1.6208  1.5981  1.3701
   64SAPC  H16Y 5257   0.370   3.225   8.594 -2.2144  1.5790 -2.1198
   64SAPC  C317 5258   0.388   3.043   8.719 -0.1876  0.4336  0.5552
   64SAPC  H17X 5259   0.494   3.039   8.685 -0.8240  1.4688 -1.7417
   64SAPC  H17Y 5260   0.347   2.940   8.715 -0.0399  0.3979 -0.1209
   64SAPC  C318 5261   0.370   3.094   8.860 -0.4440 -0.2932 -0.2238
   64SAPC  H18X 5262   0.429   3.031   8.929  0.0186 -1.6988 -1.8119
   64SAPC  H18Y 5263   0.264   3.087   8.893 -1.0906 -0.2897 -2.1570
   64SAPC  H18Z 5264   0.402   3.200   8.867 -0.7546 -0.1461 -0.9058
   65SAPC     N 5265   0.872   5.709   5.838 -0.2713  0.0596  0.3351
   65SAPC   C12 5266   0.860   5.662   5.982  0.1626  0.7893  0.0396
   65SAPC  H12A 5267   0.786   5.583   5.983 -0.6131  1.4370 -2.0187
   65SAPC  H12B 5268   0.835   5.751   6.040  0.6450  1.2400 -0.4384
   65SAPC   C13 5269   0.958   5.823   5.840 -0.3310 -0.1080 -0.0224
   65SAPC  H13A 5270   1.045   5.800   5.900  0.0218  2.7667  0.7450
   65SAPC  H13B 5271   0.988   5.856   5.742 -0.4722  0.5152  0.1384
   65SAPC  H13C 5272   0.912   5.907   5.892 -0.8753 -1.5317  1.9073
   65SAPC   C14 5273   0.933   5.606   5.743 -0.4197 -0.2338  0.2001
   65SAPC  H14A 5274   0.889   5.509   5.760 -0.0584 -0.4504 -0.0967
   65SAPC  H14B 5275   0.929   5.642   5.642  0.5331  0.4056  0.3720
   65SAPC  H14C 5276   1.038   5.591   5.765 -0.1954 -1.4011 -1.5059
   65SAPC   C15 5277   0.735   5.738   5.788  0.0820 -0.2363 -0.7612
   65SAPC  H15A 5278   0.692   5.828   5.830  2.3644  2.6487 -4.0910
   65SAPC  H15B 5279   0.727   5.756   5.682 -0.0571 -0.6642 -0.8261
   65SAPC  H15C 5280   0.667   5.656   5.804 -1.8381  1.6024  1.3274
   65SAPC   C11 5281   0.988   5.605   6.035 -0.3552 -0.0667 -0.0407
   65SAPC  H11A 5282   1.040   5.527   5.976 -1.2371  0.3226 -1.3816
   65SAPC  H11B 5283   0.957   5.544   6.123  0.6073  1.7396  1.6444
   65SAPC     P 5284   1.060   5.808   6.191 -0.2180  0.3407 -0.0303
   65SAPC   O13 5285   1.174   5.899   6.188 -0.3484 -0.7811  0.0559
   65SAPC   O14 5286   0.922   5.858   6.172 -0.2829 -0.9104 -0.1312
   65SAPC   O12 5287   1.082   5.700   6.077  0.6260 -0.4894 -0.1210
   65SAPC   O11 5288   1.061   5.736   6.334 -0.3962  0.0860  0.5017
   65SAPC    C1 5289   1.157   5.631   6.363 -0.0443  0.3185  0.3761
   65SAPC    HA 5290   1.168   5.556   6.281  0.3963  1.1914 -0.3775
   65SAPC    HB 5291   1.258   5.674   6.373  0.9982 -1.7127 -0.6945
   65SAPC    C2 5292   1.127   5.552   6.496  0.5644 -0.7431  0.0576
   65SAPC    HS 5293   1.037   5.495   6.464 -0.7021  1.1609  0.0186
   65SAPC   O21 5294   1.090   5.647   6.593 -0.1086 -0.6602 -0.1805
   65SAPC   C21 5295   0.975   5.632   6.657  0.6765 -0.1822 -0.4007
   65SAPC   O22 5296   0.883   5.566   6.619 -0.1285 -0.1866 -0.1492
   65SAPC   C22 5297   0.962   5.737   6.763  0.4102  0.0577 -0.4250
   65SAPC   H2R 5298   1.058   5.754   6.817 -0.2450  3.5582 -0.1463
   65SAPC   H2S 5299   0.949   5.835   6.713  0.3529 -0.3266 -1.1918
   65SAPC    C3 5300   1.243   5.462   6.544 -0.5907  0.5155  0.5112
   65SAPC    HX 5301   1.330   5.527   6.568  1.4417 -1.2472 -1.6423
   65SAPC    HY 5302   1.273   5.407   6.453 -0.2307  1.9098 -0.2457
   65SAPC   O31 5303   1.211   5.392   6.664  0.3675  0.4517 -0.2042
   65SAPC   C31 5304   1.141   5.278   6.643 -0.0974  0.0843  0.0240
   65SAPC   O32 5305   1.116   5.235   6.529  0.4344 -0.2688 -0.6907
   65SAPC   C32 5306   1.097   5.216   6.772 -0.4287 -0.1995 -0.8356
   65SAPC   H2X 5307   1.179   5.197   6.844 -1.0394  0.0489 -0.0735
   65SAPC   H2Y 5308   1.053   5.117   6.747 -0.9641 -0.6738  1.7718
   65SAPC   C23 5309   0.854   5.706   6.868 -0.0400 -0.3944  0.6729
   65SAPC   H3R 5310   0.870   5.611   6.923  0.4047  0.2976  1.7714
   65SAPC   H3S 5311   0.753   5.696   6.821 -1.6803 -0.4132  3.9069
   65SAPC   C24 5312   0.847   5.816   6.976  0.0052 -0.4512 -0.3961
   65SAPC   H4R 5313   0.748   5.810   7.025 -0.2357  0.2139 -0.7858
   65SAPC   H4S 5314   0.849   5.914   6.923  1.4512 -0.3461 -0.1867
   65SAPC   C25 5315   0.959   5.816   7.074 -0.1269 -0.2028 -0.1234
   65SAPC   H5R 5316   1.039   5.741   7.060  1.1190  0.7197  1.7096
   65SAPC   C26 5317   0.963   5.878   7.193 -0.5116 -0.5721 -0.3804
   65SAPC   H6R 5318   1.052   5.864   7.257  0.5012  0.1016 -1.5972
   65SAPC   C27 5319   0.858   5.969   7.257  0.6982  0.0373  0.3582
   65SAPC   H7R 5320   0.775   5.916   7.308 -1.8533  2.4403 -0.9980
   65SAPC   H7S 5321   0.806   6.025   7.175 -0.8908 -1.4740  0.2827
   65SAPC   C28 5322   0.923   6.079   7.343  0.5732 -0.0063  0.1351
   65SAPC   H8R 5323   0.991   6.142   7.284  2.5874 -0.9056  1.3892
   65SAPC   C29 5324   0.887   6.103   7.469 -0.4469 -0.7346 -0.0843
   65SAPC   H9R 5325   0.935   6.193   7.511 -1.3412  1.0096 -2.5880
   65SAPC  C210 5326   0.796   6.036   7.563 -0.4334  0.2691  0.2630
   65SAPC  H10R 5327   0.705   6.001   7.509  0.2552  1.0530 -1.5070
   65SAPC  H10S 5328   0.749   6.103   7.637 -0.9633  2.5188 -1.9627
   65SAPC  C211 5329   0.871   5.920   7.628 -0.3365  0.6306 -0.5794
   65SAPC  H11R 5330   0.913   5.850   7.555  1.6643  0.5950  0.5474
   65SAPC  C212 5331   0.888   5.889   7.757 -1.2863  0.0481 -0.3475
   65SAPC  H12R 5332   0.934   5.793   7.783 -1.3375  0.7946  2.9203
   65SAPC  C213 5333   0.844   5.959   7.883  0.6516  0.2396 -0.6971
   65SAPC  H13R 5334   0.828   5.885   7.964  1.2679 -0.2135 -0.9891
   65SAPC  H13S 5335   0.741   5.996   7.862  0.1232 -0.8674 -0.1838
   65SAPC  C214 5336   0.931   6.073   7.918 -0.0463  0.2282  0.1269
   65SAPC  H14R 5337   0.949   6.135   7.829  1.4639 -0.7089 -0.2624
   65SAPC  C215 5338   1.002   6.091   8.028 -0.6495  0.5639 -0.3309
   65SAPC  H15R 5339   1.067   6.179   8.034  0.0321  0.1477 -1.3741
   65SAPC  C216 5340   0.993   6.008   8.154 -0.1655 -0.7179 -0.5177
   65SAPC  H16R 5341   0.948   5.908   8.135  0.3190 -0.8176 -1.1875
   65SAPC  H16S 5342   0.937   6.051   8.240 -0.1154  1.2124 -1.4094
   65SAPC  C217 5343   1.132   5.976   8.216 -0.1679  0.1084  0.0158
   65SAPC  H17R 5344   1.190   6.070   8.231  0.8044 -0.8285  2.6139
   65SAPC  H17S 5345   1.184   5.928   8.130 -1.9666  0.0039 -1.0710
   65SAPC  C218 5346   1.118   5.889   8.341 -0.6074  0.5057  0.0670
   65SAPC  H18R 5347   1.093   5.788   8.303  0.0508  0.0928  0.7005
   65SAPC  H18S 5348   1.040   5.929   8.410  0.1419  2.4486 -0.1461
   65SAPC  C219 5349   1.255   5.883   8.414  0.1321 -0.6726 -0.3829
   65SAPC  H19R 5350   1.286   5.984   8.448  1.9114 -1.4551  0.4200
   65SAPC  H19S 5351   1.326   5.848   8.337 -0.8613 -0.5509 -1.3885
   65SAPC  C220 5352   1.247   5.798   8.540 -1.0220 -0.2390 -0.8109
   65SAPC  H20R 5353   1.345   5.780   8.589 -1.6743 -1.5288  0.0779
   65SAPC  H20S 5354   1.202   5.698   8.519  3.2448 -2.4619 -0.4408
   65SAPC  H20T 5355   1.193   5.862   8.613  1.1688  0.0150  0.6537
   65SAPC   C33 5356   0.990   5.305   6.837 -0.1228  0.2845 -0.4512
   65SAPC   H3X 5357   0.908   5.331   6.767 -1.8424  1.6120  1.8937
   65SAPC   H3Y 5358   1.038   5.402   6.863 -1.8372  0.3739  2.9201
   65SAPC   C34 5359   0.934   5.248   6.966 -0.3730 -0.1709 -0.1524
   65SAPC   H4X 5360   0.865   5.332   6.990 -1.0621 -0.3858 -1.3026
   65SAPC   H4Y 5361   0.996   5.234   7.057 -2.1935 -0.1138  1.1526
   65SAPC   C35 5362   0.849   5.125   6.958  0.5075 -0.2168 -0.0002
   65SAPC   H5X 5363   0.902   5.027   6.953 -0.5264 -0.8732  1.1926
   65SAPC   H5Y 5364   0.790   5.129   6.864  0.7262  0.9401 -0.0944
   65SAPC   C36 5365   0.752   5.102   7.080 -0.1306 -0.3793  0.2032
   65SAPC   H6X 5366   0.701   5.006   7.059 -0.3442 -0.1664 -0.2904
   65SAPC   H6Y 5367   0.662   5.168   7.076  0.4368  0.5274  1.7396
   65SAPC   C37 5368   0.820   5.084   7.215 -0.1470 -0.5311 -0.0873
   65SAPC   H7X 5369   0.869   5.181   7.236  0.2339 -0.2297 -2.2064
   65SAPC   H7Y 5370   0.897   5.004   7.214  0.8937  0.4478 -1.6018
   65SAPC   C38 5371   0.719   5.072   7.331  0.0003  0.3424 -0.7428
   65SAPC   H8X 5372   0.665   4.975   7.319 -0.0572  0.3888 -0.8592
   65SAPC   H8Y 5373   0.641   5.151   7.331 -0.1296  0.2206 -0.0109
   65SAPC   C39 5374   0.782   5.073   7.473 -0.3418 -0.2411  0.4202
   65SAPC   H9X 5375   0.855   5.157   7.467 -0.1120 -0.5231 -1.2451
   65SAPC   H9Y 5376   0.849   4.987   7.493  2.6196  2.3204  2.4888
   65SAPC  C310 5377   0.687   5.074   7.589  0.6280 -0.2462  0.0994
   65SAPC  H10X 5378   0.607   4.997   7.582  0.8970 -0.5076 -0.1189
   65SAPC  H10Y 5379   0.632   5.170   7.598  0.7327 -0.2209  0.4990
   65SAPC  C311 5380   0.757   5.037   7.717  0.2515  0.2796 -0.0866
   65SAPC  H11X 5381   0.840   5.110   7.723  1.3264 -0.5002 -3.2232
   65SAPC  H11Y 5382   0.814   4.942   7.704  3.1803  1.9035  0.0399
   65SAPC  C312 5383   0.672   5.035   7.843 -0.0999  0.0898 -0.5906
   65SAPC  H12X 5384   0.594   4.956   7.844 -1.8105  1.7368  0.2715
   65SAPC  H12Y 5385   0.627   5.136   7.839 -0.7502 -0.1793 -0.1422
   65SAPC  C313 5386   0.764   5.031   7.972 -0.4407  0.8335 -0.4139
   65SAPC  H13X 5387   0.853   5.097   7.975  1.0604 -1.0848 -0.8018
   65SAPC  H13Y 5388   0.808   4.929   7.969 -0.9185  0.4816  2.3551
   65SAPC  C314 5389   0.682   5.076   8.096  0.2313  0.3000 -0.3535
   65SAPC  H14X 5390   0.595   5.009   8.116 -0.7822  1.2346 -1.5480
   65SAPC  H14Y 5391   0.640   5.174   8.067  1.8947  1.2517  0.3155
   65SAPC  C315 5392   0.774   5.097   8.224 -0.0534 -0.1856  0.2654
   65SAPC  H15X 5393   0.866   5.155   8.201  0.2975 -1.2673 -1.1966
   65SAPC  H15Y 5394   0.814   5.000   8.262  0.1902 -0.2879 -0.2439
   65SAPC  C316 5395   0.692   5.183   8.326  0.5641 -0.0221 -0.7560
   65SAPC  H16X 5396   0.652   5.272   8.273  0.0456  1.0809  1.3895
   65SAPC  H16Y 5397   0.758   5.207   8.412 -1.4324  0.2166  0.7779
   65SAPC  C317 5398   0.575   5.097   8.392 -0.4047 -0.0160 -0.0554
   65SAPC  H17X 5399   0.624   5.000   8.415 -0.4884 -0.5161 -1.8351
   65SAPC  H17Y 5400   0.501   5.088   8.310 -1.3027 -1.0942  0.8428
   65SAPC  C318 5401   0.509   5.155   8.520 -0.0347 -0.6836  0.0922
   65SAPC  H18X 5402   0.588   5.195   8.586  0.9619  1.6388 -2.2878
   65SAPC  H18Y 5403   0.442   5.082   8.570 -1.1560  0.4036  0.2103
   65SAPC  H18Z 5404   0.447   5.241   8.487  0.8255 -0.3950 -0.8461
   66SAPC     N 5405   4.955   4.129   5.823 -0.6748  0.1987  0.1284
   66SAPC   C12 5406   4.984   4.091   5.975  1.0023 -0.6305 -0.2960
   66SAPC  H12A 5407   5.085   4.119   6.001  0.4912 -0.1065  1.2406
   66SAPC  H12B 5408   4.971   3.984   5.978 -2.5736 -0.3136  0.9183
   66SAPC   C13 5409   5.059   4.080   5.733 -0.4811 -0.3873 -0.2022
   66SAPC  H13A 5410   5.158   4.103   5.768 -1.1790 -0.7260  2.1527
   66SAPC  H13B 5411   5.048   3.973   5.722  1.2650 -0.5060 -1.1877
   66SAPC  H13C 5412   5.055   4.118   5.632  1.9489 -0.9345 -0.5742
   66SAPC   C14 5413   4.817   4.077   5.781 -0.4592 -0.1147 -0.1642
   66SAPC  H14A 5414   4.753   4.134   5.847 -0.4935 -0.9615  0.5498
   66SAPC  H14B 5415   4.787   4.096   5.679 -1.8302  0.6204  0.3415
   66SAPC  H14C 5416   4.802   3.977   5.817  0.5232  0.2502  1.3688
   66SAPC   C15 5417   4.972   4.274   5.820  0.3714  0.3600  0.4130
   66SAPC  H15A 5418   4.954   4.309   5.720 -3.7970 -0.3698  0.7418
   66SAPC  H15B 5419   4.902   4.323   5.886 -0.2025  0.8780 -0.5612
   66SAPC  H15C 5420   5.064   4.305   5.867  0.3352 -1.7770  2.0716
   66SAPC   C11 5421   4.884   4.148   6.086  0.8666  0.4092 -0.4223
   66SAPC  H11A 5422   4.943   4.149   6.180  0.2005 -0.3313  0.0169
   66SAPC  H11B 5423   4.798   4.078   6.082  1.5428 -0.6201  1.5709
   66SAPC     P 5424   4.699   4.335   6.058 -0.3004 -0.6834 -0.1900
   66SAPC   O13 5425   4.696   4.480   6.038 -0.0274  0.0086  0.9220
   66SAPC   O14 5426   4.626   4.254   5.953 -0.3797  0.1279  0.1888
   66SAPC   O12 5427   4.852   4.287   6.060 -0.3712  0.0176 -0.4826
   66SAPC   O11 5428   4.645   4.308   6.206  0.6862  0.0474 -0.2119
   66SAPC    C1 5429   4.719   4.355   6.322 -0.0271 -0.4757  0.4639
   66SAPC    HA 5430   4.830   4.348   6.312 -0.2594 -1.5910 -1.8207
   66SAPC    HB 5431   4.696   4.461   6.345 -1.3838 -1.2850  3.2082
   66SAPC    C2 5432   4.681   4.272   6.446 -0.3463 -0.3436  0.5090
   66SAPC    HS 5433   4.625   4.183   6.412 -1.0287  0.6561 -1.0712
   66SAPC   O21 5434   4.610   4.359   6.538 -0.4919 -0.4875 -0.1046
   66SAPC   C21 5435   4.519   4.302   6.614 -0.0371 -0.1723 -0.1450
   66SAPC   O22 5436   4.467   4.193   6.593 -0.0621  0.1340 -0.0756
   66SAPC   C22 5437   4.488   4.387   6.736  0.4463 -0.5158 -0.8137
   66SAPC   H2R 5438   4.554   4.476   6.727 -2.3462  2.1536  2.3937
   66SAPC   H2S 5439   4.382   4.416   6.746 -0.0716 -2.5542  0.1480
   66SAPC    C3 5440   4.808   4.227   6.525 -0.4075 -0.0473 -0.1687
   66SAPC    HX 5441   4.860   4.312   6.574  1.2134 -0.3849 -1.2099
   66SAPC    HY 5442   4.869   4.172   6.450 -0.5905 -4.0624  2.3084
   66SAPC   O31 5443   4.770   4.139   6.638 -0.3857  0.4905  0.3489
   66SAPC   C31 5444   4.809   4.012   6.635 -0.4596  0.0807  0.1618
   66SAPC   O32 5445   4.881   3.961   6.551 -0.1516  0.1119  0.1749
   66SAPC   C32 5446   4.761   3.938   6.762 -1.0609  0.3170 -0.5658
   66SAPC   H2X 5447   4.651   3.926   6.755 -1.0190 -0.8482  0.4853
   66SAPC   H2Y 5448   4.788   4.000   6.850  1.4457  0.7223 -1.5332
   66SAPC   C23 5449   4.531   4.320   6.870 -0.3208 -0.3753 -0.4073
   66SAPC   H3R 5450   4.548   4.407   6.936  2.3336  1.2516 -2.9844
   66SAPC   H3S 5451   4.623   4.260   6.854  0.3795  0.5400  0.0925
   66SAPC   C24 5452   4.415   4.242   6.939  0.3939  0.1506 -0.3843
   66SAPC   H4R 5453   4.318   4.297   6.934 -0.7600 -1.3202  2.8327
   66SAPC   H4S 5454   4.441   4.239   7.047  1.0703  0.0674 -0.5468
   66SAPC   C25 5455   4.382   4.104   6.885  0.0824  0.2871 -0.0373
   66SAPC   H5R 5456   4.363   4.103   6.777 -3.6660  3.9231  0.3153
   66SAPC   C26 5457   4.385   3.988   6.960 -1.5312 -0.6703  0.7677
   66SAPC   H6R 5458   4.350   3.899   6.907 -2.0342  0.4952 -0.9580
   66SAPC   C27 5459   4.418   3.969   7.107  0.1473 -0.8292  0.1487
   66SAPC   H7R 5460   4.324   3.990   7.162 -1.5794 -2.4675 -1.9767
   66SAPC   H7S 5461   4.495   4.046   7.126 -0.1830 -0.1564 -1.0950
   66SAPC   C28 5462   4.489   3.840   7.137  0.3611 -0.3427 -0.0443
   66SAPC   H8R 5463   4.503   3.777   7.048  0.7668  0.3406 -0.4722
   66SAPC   C29 5464   4.528   3.794   7.257 -0.3011  0.3730  0.1920
   66SAPC   H9R 5465   4.581   3.698   7.260 -0.1908  0.4566  1.8580
   66SAPC  C210 5466   4.505   3.868   7.386 -0.2905 -0.0597  0.0969
   66SAPC  H10R 5467   4.438   3.815   7.456  1.1907 -2.0573  0.0902
   66SAPC  H10S 5468   4.469   3.972   7.368  0.3000  0.0844 -0.3232
   66SAPC  C211 5469   4.642   3.881   7.449  0.8175  0.0887  0.0711
   66SAPC  H11R 5470   4.727   3.903   7.383  0.6492  2.1607  0.4624
   66SAPC  C212 5471   4.673   3.862   7.575 -0.2620  0.2788  0.0065
   66SAPC  H12R 5472   4.781   3.858   7.596 -0.2948  0.0727  0.1414
   66SAPC  C213 5473   4.584   3.831   7.695  0.0478 -0.6426  0.0179
   66SAPC  H13R 5474   4.603   3.735   7.748 -2.1810 -1.3924 -0.4470
   66SAPC  H13S 5475   4.478   3.828   7.662  0.7603  1.5839 -2.8603
   66SAPC  C214 5476   4.581   3.955   7.786  0.0036 -0.0122  0.5369
   66SAPC  H14R 5477   4.578   4.051   7.732  0.3070 -0.7812 -0.9059
   66SAPC  C215 5478   4.556   3.956   7.919  0.4169  0.3571  0.4438
   66SAPC  H15R 5479   4.546   4.050   7.974 -2.9281  0.8590 -0.8013
   66SAPC  C216 5480   4.532   3.829   7.994 -0.0339 -0.2104  1.0109
   66SAPC  H16R 5481   4.588   3.738   7.965 -0.6811 -0.4539  0.4998
   66SAPC  H16S 5482   4.425   3.798   7.988  0.2305 -0.8915 -0.7808
   66SAPC  C217 5483   4.572   3.861   8.139  0.6134 -0.3788 -0.1756
   66SAPC  H17R 5484   4.486   3.916   8.181  1.5819  1.2165 -0.2312
   66SAPC  H17S 5485   4.667   3.914   8.158 -1.5332  2.8632  2.6734
   66SAPC  C218 5486   4.591   3.735   8.217 -0.0862  1.0734 -0.5597
   66SAPC  H18R 5487   4.659   3.663   8.166 -0.9271 -0.4264  0.3279
   66SAPC  H18S 5488   4.508   3.663   8.235  0.8087  0.3097  0.7853
   66SAPC  C219 5489   4.658   3.772   8.355  0.3498  0.4014 -0.6741
   66SAPC  H19R 5490   4.752   3.827   8.333  1.1806 -0.8498 -0.3433
   66SAPC  H19S 5491   4.689   3.679   8.407 -0.6836  0.8207  0.7456
   66SAPC  C220 5492   4.566   3.845   8.444 -0.3712 -0.4889 -0.4741
   66SAPC  H20R 5493   4.607   3.853   8.547 -0.9982 -1.0297 -0.1759
   66SAPC  H20S 5494   4.473   3.786   8.462 -0.3752 -0.2328  0.4299
   66SAPC  H20T 5495   4.552   3.948   8.404  1.9348  1.1169  2.4716
   66SAPC   C33 5496   4.833   3.804   6.769  0.1634  0.2337  0.8509
   66SAPC   H3X 5497   4.939   3.823   6.797 -0.0375  0.3646  1.5611
   66SAPC   H3Y 5498   4.833   3.752   6.671  1.6991  0.9709  0.4330
   66SAPC   C34 5499   4.766   3.705   6.868 -0.3917 -0.6888  0.3053
   66SAPC   H4X 5500   4.657   3.685   6.857 -0.9028  1.6911  0.4509
   66SAPC   H4Y 5501   4.791   3.737   6.971 -1.0229 -1.3584  0.6720
   66SAPC   C35 5502   4.836   3.568   6.856 -0.6339 -0.5006  0.2619
   66SAPC   H5X 5503   4.939   3.582   6.896  0.4162 -1.4926 -1.9323
   66SAPC   H5Y 5504   4.849   3.533   6.752  3.1488 -2.3611  1.1801
   66SAPC   C36 5505   4.775   3.457   6.944 -0.8591  0.5298 -0.2120
   66SAPC   H6X 5506   4.830   3.362   6.927  0.0832  0.9909  0.2211
   66SAPC   H6Y 5507   4.673   3.441   6.902  0.2585 -4.2833 -1.8016
   66SAPC   C37 5508   4.770   3.496   7.094 -0.3838  0.2717 -0.3891
   66SAPC   H7X 5509   4.690   3.433   7.139 -0.2183  0.1157 -0.3135
   66SAPC   H7Y 5510   4.746   3.602   7.117  1.1761  0.8011 -1.0295
   66SAPC   C38 5511   4.901   3.471   7.170  0.0521 -0.2951 -0.2374
   66SAPC   H8X 5512   4.987   3.530   7.132 -0.5778  2.9301  2.8126
   66SAPC   H8Y 5513   4.915   3.362   7.151 -1.8842 -0.6209 -0.0063
   66SAPC   C39 5514   4.886   3.493   7.325 -0.4994 -0.9402  0.7502
   66SAPC   H9X 5515   4.825   3.583   7.350  0.3352 -0.5520  1.4360
   66SAPC   H9Y 5516   4.992   3.510   7.354 -0.9767  0.8791  1.5651
   66SAPC  C310 5517   4.835   3.367   7.395  0.6131  0.5324 -0.3708
   66SAPC  H10X 5518   4.909   3.285   7.385  0.7711  0.6795 -0.3959
   66SAPC  H10Y 5519   4.743   3.323   7.352  1.5882 -0.4789 -1.4773
   66SAPC  C311 5520   4.801   3.389   7.544 -0.8079 -0.2526 -0.3172
   66SAPC  H11X 5521   4.768   3.294   7.591  0.8246 -0.6059  0.1895
   66SAPC  H11Y 5522   4.711   3.453   7.555 -0.5644 -0.0462  0.5386
   66SAPC  C312 5523   4.908   3.433   7.645 -0.4068  0.0452 -0.8509
   66SAPC  H12X 5524   4.965   3.525   7.624  2.2505 -0.2946  3.6138
   66SAPC  H12Y 5525   4.984   3.352   7.640 -0.4772 -0.0550 -0.3471
   66SAPC  C313 5526   4.832   3.452   7.787  0.1361 -0.1351  0.4472
   66SAPC  H13X 5527   4.792   3.351   7.807  1.6662 -0.9022 -0.2095
   66SAPC  H13Y 5528   4.752   3.530   7.784  2.1631  2.1020  1.3070
   66SAPC  C314 5529   4.930   3.501   7.897 -0.0811 -0.2782  0.3830
   66SAPC  H14X 5530   4.941   3.612   7.898 -0.7062 -0.1768 -1.2030
   66SAPC  H14Y 5531   5.032   3.459   7.886 -0.3493 -0.8016 -0.1699
   66SAPC  C315 5532   4.871   3.456   8.027  0.8152 -0.2715  0.1905
   66SAPC  H15X 5533   4.833   3.351   8.028  1.1757 -0.4099 -0.3852
   66SAPC  H15Y 5534   4.786   3.525   8.049 -0.0773 -0.5833 -2.0342
   66SAPC  C316 5535   4.973   3.456   8.148  0.3941  0.9002  0.1132
   66SAPC  H16X 5536   5.064   3.405   8.109 -1.4285 -0.6195 -2.4224
   66SAPC  H16Y 5537   4.937   3.415   8.245  0.9151  1.3746  0.5129
   66SAPC  C317 5538   5.023   3.600   8.185  0.4683 -0.5462  0.4640
   66SAPC  H17X 5539   4.933   3.664   8.199  1.3777  0.2658  3.2326
   66SAPC  H17Y 5540   5.081   3.637   8.098 -1.9046  0.5178 -0.7483
   66SAPC  C318 5541   5.116   3.617   8.305  0.1028  0.4799  0.5219
   66SAPC  H18X 5542   5.218   3.575   8.291 -0.3167 -0.6192  0.7028
   66SAPC  H18Y 5543   5.074   3.574   8.398 -0.0921 -1.1586 -0.2733
   66SAPC  H18Z 5544   5.110   3.728   8.308 -2.4213  0.3821  1.8213
   67SAPC     N 5545   6.238   6.281   6.593 -0.4001 -0.2517  1.1275
   67SAPC   C12 5546   6.354   6.326   6.508  0.0002  0.0600  0.0845
   67SAPC  H12A 5547   6.330   6.327   6.403 -0.6389 -0.1388  0.2257
   67SAPC  H12B 5548   6.438   6.261   6.525 -1.1335 -1.1372  1.3627
   67SAPC   C13 5549   6.131   6.382   6.608 -0.0742 -0.5825  0.1744
   67SAPC  H13A 5550   6.091   6.418   6.514  1.0548  2.2613  0.6632
   67SAPC  H13B 5551   6.045   6.349   6.663 -0.7619  1.9993  0.8002
   67SAPC  H13C 5552   6.154   6.475   6.657 -2.4582 -0.5114  1.2788
   67SAPC   C14 5553   6.182   6.162   6.527 -0.4677  0.5585  0.2906
   67SAPC  H14A 5554   6.114   6.111   6.594  0.1461 -0.2864  0.2853
   67SAPC  H14B 5555   6.120   6.180   6.440 -0.8764 -2.1913 -0.0523
   67SAPC  H14C 5556   6.256   6.090   6.497 -2.0287  0.0353 -2.6542
   67SAPC   C15 5557   6.289   6.248   6.729  0.6988 -0.4546 -0.1975
   67SAPC  H15A 5558   6.211   6.206   6.791 -0.5491 -0.9594 -2.0227
   67SAPC  H15B 5559   6.364   6.171   6.727  0.3975 -0.7478 -1.5171
   67SAPC  H15C 5560   6.340   6.330   6.777  1.0635 -0.5250 -0.4568
   67SAPC   C11 5561   6.418   6.471   6.531 -0.4278  0.3774  0.0096
   67SAPC  H11A 5562   6.333   6.536   6.502 -1.3046 -0.1458  1.2983
   67SAPC  H11B 5563   6.500   6.494   6.460 -1.9278 -0.7410 -2.2080
   67SAPC     P 5564   6.606   6.484   6.717  0.0856 -0.2222  0.1995
   67SAPC   O13 5565   6.675   6.374   6.645  0.0767 -0.2344 -0.3873
   67SAPC   O14 5566   6.676   6.618   6.719 -0.3249 -0.4626 -0.2934
   67SAPC   O12 5567   6.455   6.505   6.666 -0.0454 -0.3710  0.8137
   67SAPC   O11 5568   6.581   6.450   6.868 -0.3705  0.2060  0.4624
   67SAPC    C1 5569   6.562   6.532   6.975 -0.1567  0.0486  0.0938
   67SAPC    HA 5570   6.661   6.579   6.995  0.4905 -1.1526 -0.2328
   67SAPC    HB 5571   6.488   6.613   6.959  2.1936  2.4373  0.5337
   67SAPC    C2 5572   6.532   6.451   7.102  0.0421 -0.4153 -0.2705
   67SAPC    HS 5573   6.573   6.508   7.188 -0.2843  0.1565 -0.4896
   67SAPC   O21 5574   6.585   6.316   7.092  0.6062 -0.0127 -0.0253
   67SAPC   C21 5575   6.718   6.305   7.089  0.1908  0.6211 -0.4901
   67SAPC   O22 5576   6.794   6.395   7.119  0.6722 -0.0592  0.0941
   67SAPC   C22 5577   6.759   6.164   7.035  0.2184  1.1733  0.9677
   67SAPC   H2R 5578   6.678   6.093   7.010  2.3221 -0.6070 -1.2838
   67SAPC   H2S 5579   6.828   6.191   6.952 -0.6989 -0.4465 -0.3677
   67SAPC    C3 5580   6.382   6.441   7.142 -0.4319 -0.0243  0.4768
   67SAPC    HX 5581   6.331   6.408   7.049 -0.8725  2.2691 -0.1678
   67SAPC    HY 5582   6.336   6.542   7.153  0.6365  0.7090 -1.2365
   67SAPC   O31 5583   6.365   6.370   7.262  0.5040 -0.0162  0.5241
   67SAPC   C31 5584   6.307   6.250   7.261  0.7333 -0.5472  0.3039
   67SAPC   O32 5585   6.268   6.193   7.163  0.3612  0.2767 -0.2099
   67SAPC   C32 5586   6.271   6.191   7.398  0.4407 -0.6062  0.7168
   67SAPC   H2X 5587   6.340   6.106   7.420  1.4020 -0.0853 -0.2173
   67SAPC   H2Y 5588   6.167   6.153   7.388 -0.9105  2.9294 -0.0747
   67SAPC   C23 5589   6.859   6.092   7.125 -0.2846 -0.4537 -1.0687
   67SAPC   H3R 5590   6.826   6.086   7.231  0.3674  0.4282 -0.8109
   67SAPC   H3S 5591   6.949   6.157   7.119  1.0717 -2.2967 -1.5667
   67SAPC   C24 5592   6.901   5.961   7.077  0.6229  0.3107 -0.3731
   67SAPC   H4R 5593   6.828   5.927   7.000 -1.2858  0.1505  1.4254
   67SAPC   H4S 5594   6.869   5.893   7.158  1.4370  0.6347  0.2325
   67SAPC   C25 5595   7.041   5.934   7.038  0.1439  0.4392  0.0597
   67SAPC   H5R 5596   7.061   5.948   6.931  1.2676  0.4569  0.2536
   67SAPC   C26 5597   7.143   5.886   7.114 -0.1520  0.4269 -0.1853
   67SAPC   H6R 5598   7.241   5.872   7.066 -1.3808 -1.5638 -2.3237
   67SAPC   C27 5599   7.135   5.843   7.259 -0.5547 -0.0702  0.7531
   67SAPC   H7R 5600   7.213   5.769   7.287  1.3480  0.6046 -2.3366
   67SAPC   H7S 5601   7.043   5.785   7.280 -1.4438  1.5362  1.5112
   67SAPC   C28 5602   7.143   5.963   7.351 -0.6779  0.3706  0.5058
   67SAPC   H8R 5603   7.219   6.038   7.327  2.0403 -1.8971  1.5152
   67SAPC   C29 5604   7.079   5.979   7.469  0.0383  0.0517 -0.3670
   67SAPC   H9R 5605   7.082   6.074   7.524 -1.1941 -0.2025  0.1733
   67SAPC  C210 5606   6.979   5.878   7.533 -0.2783 -0.2544 -0.2285
   67SAPC  H10R 5607   6.925   5.821   7.454 -3.0043  2.1494 -0.2546
   67SAPC  H10S 5608   6.899   5.933   7.588  0.4248  1.1542 -0.5662
   67SAPC  C211 5609   7.049   5.785   7.627  0.3741  1.0558 -0.5048
   67SAPC  H11R 5610   7.057   5.678   7.603  1.0310  1.0551 -0.2995
   67SAPC  C212 5611   7.089   5.825   7.751 -0.8606  0.6015  0.8867
   67SAPC  H12R 5612   7.132   5.749   7.817 -0.0730  1.5713  1.5089
   67SAPC  C213 5613   7.079   5.956   7.811  0.1095 -0.8709 -0.4230
   67SAPC  H13R 5614   6.993   5.963   7.880  0.0712  2.8651 -0.6539
   67SAPC  H13S 5615   7.064   6.046   7.747  1.0151 -0.1131  0.4068
   67SAPC  C214 5616   7.197   5.995   7.889  0.4325 -0.5052 -0.6358
   67SAPC  H14R 5617   7.274   6.046   7.829  3.1146 -2.3612  0.9889
   67SAPC  C215 5618   7.222   5.958   8.015 -0.0751  0.1907  0.5644
   67SAPC  H15R 5619   7.316   5.985   8.066 -1.1014  0.2702  2.4973
   67SAPC  C216 5620   7.148   5.874   8.120  0.1823  0.4714 -0.0966
   67SAPC  H16R 5621   7.055   5.840   8.070  0.5570  0.1691 -0.5988
   67SAPC  H16S 5622   7.109   5.925   8.210 -2.4118  3.4305 -2.6651
   67SAPC  C217 5623   7.220   5.745   8.163 -0.6325  0.3491 -0.1962
   67SAPC  H17R 5624   7.326   5.764   8.189 -0.4785 -1.1026  0.3640
   67SAPC  H17S 5625   7.221   5.674   8.078 -3.6000  0.7896 -0.6923
   67SAPC  C218 5626   7.152   5.665   8.286 -0.0932  0.6162 -0.5388
   67SAPC  H18R 5627   7.044   5.639   8.277 -0.1496  1.1104 -1.3804
   67SAPC  H18S 5628   7.159   5.732   8.375 -2.7152  0.4618 -0.1227
   67SAPC  C219 5629   7.227   5.534   8.300  0.0349  0.5773  0.3353
   67SAPC  H19R 5630   7.226   5.479   8.204 -0.2915  0.9441  0.1236
   67SAPC  H19S 5631   7.177   5.470   8.376  3.3782 -0.3399  1.9597
   67SAPC  C220 5632   7.367   5.560   8.356  0.3186 -0.2445 -0.5975
   67SAPC  H20R 5633   7.360   5.611   8.455  0.9725 -0.3051 -0.5092
   67SAPC  H20S 5634   7.428   5.629   8.294  0.2347  0.4404  0.0660
   67SAPC  H20T 5635   7.440   5.477   8.370  0.1717 -0.5653 -1.7019
   67SAPC   C33 5636   6.273   6.295   7.503 -0.0557 -0.4888 -0.1006
   67SAPC   H3X 5637   6.193   6.369   7.480  0.8689  0.3369 -0.7231
   67SAPC   H3Y 5638   6.365   6.357   7.499 -0.7167  0.4685 -1.3775
   67SAPC   C34 5639   6.252   6.232   7.641 -0.0625  1.1093  0.1379
   67SAPC   H4X 5640   6.298   6.131   7.635 -1.1726  0.6269 -0.4584
   67SAPC   H4Y 5641   6.146   6.214   7.668  0.2000  0.3627  0.7148
   67SAPC   C35 5642   6.317   6.307   7.758  0.7609 -0.4977 -0.6986
   67SAPC   H5X 5643   6.290   6.415   7.749  1.1859 -0.5171 -2.5273
   67SAPC   H5Y 5644   6.428   6.309   7.757  0.9033  3.7531 -3.1429
   67SAPC   C36 5645   6.289   6.252   7.905  0.2923  0.4103  0.4710
   67SAPC   H6X 5646   6.338   6.152   7.911  2.0604  1.3083  2.9192
   67SAPC   H6Y 5647   6.181   6.233   7.927  0.2443 -0.4873 -0.4552
   67SAPC   C37 5648   6.356   6.329   8.019  0.5495  0.0350  0.3728
   67SAPC   H7X 5649   6.459   6.359   7.989  0.1627 -0.4302 -1.5610
   67SAPC   H7Y 5650   6.371   6.271   8.112  0.1281 -2.0415 -0.8040
   67SAPC   C38 5651   6.271   6.456   8.049  0.1819 -0.7383 -0.6401
   67SAPC   H8X 5652   6.180   6.419   8.100  0.5854  0.7678  1.2833
   67SAPC   H8Y 5653   6.237   6.508   7.956 -2.2565 -0.0130  0.5836
   67SAPC   C39 5654   6.337   6.551   8.154 -1.0503 -0.2808 -0.3283
   67SAPC   H9X 5655   6.308   6.657   8.142  1.2798  0.5789  0.9237
   67SAPC   H9Y 5656   6.445   6.535   8.134 -1.3414 -1.1058 -1.3855
   67SAPC  C310 5657   6.311   6.503   8.295  1.2339 -0.0409  0.3459
   67SAPC  H10X 5658   6.355   6.401   8.299  1.1310 -0.1725 -1.2066
   67SAPC  H10Y 5659   6.201   6.504   8.313  1.2785  0.0127  0.6236
   67SAPC  C311 5660   6.375   6.596   8.403 -0.0819  0.2623  0.2060
   67SAPC  H11X 5661   6.485   6.578   8.395 -0.0612  0.0706  0.8472
   67SAPC  H11Y 5662   6.344   6.547   8.498  2.3679 -1.0632  0.4095
   67SAPC  C312 5663   6.331   6.743   8.405 -0.1255 -1.0125 -0.2202
   67SAPC  H12X 5664   6.222   6.751   8.423  0.1707  3.0563  0.7692
   67SAPC  H12Y 5665   6.356   6.790   8.308  1.7853  0.1135  0.7488
   67SAPC  C313 5666   6.396   6.819   8.520 -0.1252  0.1316  0.1296
   67SAPC  H13X 5667   6.506   6.803   8.524 -0.1535 -0.3954 -0.7831
   67SAPC  H13Y 5668   6.360   6.769   8.613 -0.7442 -1.0231 -0.7109
   67SAPC  C314 5669   6.362   6.967   8.532  0.5151 -0.4959 -0.0216
   67SAPC  H14X 5670   6.252   6.985   8.531  0.4927 -0.3114 -2.8911
   67SAPC  H14Y 5671   6.416   7.006   8.443  0.2385 -1.0029 -0.4206
   67SAPC  C315 5672   6.408   7.027   8.669 -0.0070 -0.7650  0.8065
   67SAPC  H15X 5673   6.505   6.986   8.705  0.1887 -0.7419  0.3109
   67SAPC  H15Y 5674   6.343   6.991   8.752 -0.6132 -0.9100  0.2741
   67SAPC  C316 5675   6.406   7.181   8.666 -0.0444 -0.6385 -0.2279
   67SAPC  H16X 5676   6.307   7.218   8.631  0.2738  0.5453  0.0859
   67SAPC  H16Y 5677   6.481   7.212   8.590 -0.7079 -2.4534 -1.7068
   67SAPC  C317 5678   6.440   7.242   8.801  0.4861  0.2214 -0.0921
   67SAPC  H17X 5679   6.425   7.352   8.794 -0.9156  0.1295  1.1032
   67SAPC  H17Y 5680   6.545   7.219   8.829  0.3494  0.9363  1.0689
   67SAPC  C318 5681   6.360   7.213   8.932  0.5379  0.2144 -0.6895
   67SAPC  H18X 5682   6.251   7.217   8.910  0.3659 -0.5096  0.0263
   67SAPC  H18Y 5683   6.370   7.288   9.014 -2.1060  0.6219 -0.6526
   67SAPC  H18Z 5684   6.397   7.121   8.980 -1.7178 -0.0445  0.6901
   68SAPC     N 5685   5.869   5.164   6.017  0.3376 -0.5162  0.0208
   68SAPC   C12 5686   5.955   5.137   6.143  0.4159 -0.4716 -0.5642
   68SAPC  H12A 5687   6.058   5.165   6.123  0.0390  1.3486 -0.1837
   68SAPC  H12B 5688   5.952   5.030   6.156 -1.2828 -0.2128  1.5770
   68SAPC   C13 5689   5.923   5.086   5.896  0.6151 -0.0317  0.0434
   68SAPC  H13A 5690   6.031   5.090   5.887  0.8120  0.6811  2.2992
   68SAPC  H13B 5691   5.880   4.987   5.899 -2.4473  1.2171  1.1716
   68SAPC  H13C 5692   5.884   5.135   5.807 -1.7186 -0.4517  0.7774
   68SAPC   C14 5693   5.726   5.126   6.033  0.0150 -0.2139  0.1613
   68SAPC  H14A 5694   5.677   5.147   5.940 -0.4562  0.4155  0.5452
   68SAPC  H14B 5695   5.733   5.019   6.044 -0.5454 -0.1539  1.2234
   68SAPC  H14C 5696   5.676   5.171   6.118  0.7360  0.8355  0.0447
   68SAPC   C15 5697   5.876   5.314   5.980 -0.1698 -0.1593  0.0430
   68SAPC  H15A 5698   5.818   5.327   5.890  0.1415 -2.8187 -0.6255
   68SAPC  H15B 5699   5.840   5.387   6.051 -0.5117  1.2957 -1.5784
   68SAPC  H15C 5700   5.975   5.331   5.941  0.4736 -2.0153  0.7193
   68SAPC   C11 5701   5.908   5.208   6.278 -0.6222 -0.4159 -0.7128
   68SAPC  H11A 5702   5.913   5.318   6.265  1.2490 -0.7677 -3.9264
   68SAPC  H11B 5703   5.980   5.182   6.359  1.1043  1.1590 -1.6854
   68SAPC     P 5704   5.695   5.237   6.428 -0.2752  0.2987  0.1418
   68SAPC   O13 5705   5.695   5.384   6.408  0.2881 -0.1089 -0.7900
   68SAPC   O14 5706   5.567   5.166   6.431  0.2049  0.8345 -0.2856
   68SAPC   O12 5707   5.779   5.167   6.312 -0.2890  0.3184 -0.0669
   68SAPC   O11 5708   5.769   5.204   6.560  0.4032 -0.4581 -0.1340
   68SAPC    C1 5709   5.832   5.082   6.575 -0.4333  0.1944 -0.1397
   68SAPC    HA 5710   5.867   5.031   6.483  1.4284  1.1377  0.0066
   68SAPC    HB 5711   5.931   5.096   6.624 -1.0746 -0.7790  1.5039
   68SAPC    C2 5712   5.749   4.983   6.662 -0.0157 -0.9924  0.6275
   68SAPC    HS 5713   5.648   4.973   6.617 -0.7564  0.2591  1.9225
   68SAPC   O21 5714   5.750   5.037   6.792  0.1834 -0.5965 -0.5432
   68SAPC   C21 5715   5.645   5.011   6.866 -0.1784 -0.0220  0.8325
   68SAPC   O22 5716   5.554   4.938   6.828  0.5568  0.0052 -0.0556
   68SAPC   C22 5717   5.640   5.087   6.993  0.4596  0.2237 -0.0049
   68SAPC   H2R 5718   5.741   5.113   7.030  0.6821  0.1733 -0.5745
   68SAPC   H2S 5719   5.588   5.184   6.981 -1.0972 -0.5096  0.4207
   68SAPC    C3 5720   5.812   4.841   6.659  0.7629 -0.3960 -0.1075
   68SAPC    HX 5721   5.793   4.809   6.554 -0.8547 -1.4823  0.4690
   68SAPC    HY 5722   5.743   4.783   6.724 -1.6185  2.4943  0.1807
   68SAPC   O31 5723   5.951   4.837   6.694 -0.1491  0.2533 -0.5528
   68SAPC   C31 5724   5.973   4.822   6.826  0.8089 -0.5256 -0.7088
   68SAPC   O32 5725   5.885   4.800   6.907  0.6307 -0.0834 -0.2246
   68SAPC   C32 5726   6.120   4.846   6.851  0.5115 -0.9531 -0.3011
   68SAPC   H2X 5727   6.132   4.953   6.826 -0.5662 -0.7084  0.1812
   68SAPC   H2Y 5728   6.180   4.767   6.800 -0.7526 -2.0222 -0.2037
   68SAPC   C23 5729   5.546   5.024   7.094 -0.9657  0.0056  0.1231
   68SAPC   H3R 5730   5.447   5.004   7.049 -2.0510  3.4520  0.6293
   68SAPC   H3S 5731   5.527   5.095   7.178  0.2054 -1.7514  1.9818
   68SAPC   C24 5732   5.602   4.892   7.161  0.1198  0.5711  0.0041
   68SAPC   H4R 5733   5.592   4.812   7.085  0.5606 -0.4825  1.0241
   68SAPC   H4S 5734   5.532   4.881   7.246  1.3212 -0.1172  0.9356
   68SAPC   C25 5735   5.736   4.901   7.214 -0.3290 -0.5604 -0.1220
   68SAPC   H5R 5736   5.818   4.872   7.146 -0.6496 -1.9472  0.0504
   68SAPC   C26 5737   5.758   4.942   7.341 -0.2498  0.3454  0.6874
   68SAPC   H6R 5738   5.860   4.938   7.381 -0.3918  2.7101  1.4858
   68SAPC   C27 5739   5.646   4.979   7.438  0.1718  0.5023  0.5565
   68SAPC   H7R 5740   5.587   4.886   7.450 -0.7764  1.1414  0.9660
   68SAPC   H7S 5741   5.564   5.046   7.407 -2.7416 -2.2400  1.7763
   68SAPC   C28 5742   5.697   5.038   7.573 -0.2747  0.0939 -0.1459
   68SAPC   H8R 5743   5.755   5.131   7.568  1.3232 -0.8892 -0.9715
   68SAPC   C29 5744   5.701   4.974   7.691 -0.3300  0.9948  0.5332
   68SAPC   H9R 5745   5.746   5.031   7.773 -0.3901 -1.1002  2.1290
   68SAPC  C210 5746   5.659   4.829   7.716  0.1231 -0.3572 -0.0429
   68SAPC  H10R 5747   5.741   4.770   7.762  1.5628  0.1364 -1.8876
   68SAPC  H10S 5748   5.650   4.781   7.616  0.5447  0.9980 -0.7479
   68SAPC  C211 5749   5.528   4.821   7.794 -0.0868  0.1762  1.0220
   68SAPC  H11R 5750   5.436   4.793   7.741 -2.1878  0.0183  4.4155
   68SAPC  C212 5751   5.507   4.856   7.923  0.3662  0.3336  0.4051
   68SAPC  H12R 5752   5.413   4.825   7.972 -0.9576  0.2049 -2.0627
   68SAPC  C213 5753   5.611   4.900   8.020 -0.6204 -0.1643  0.3313
   68SAPC  H13R 5754   5.711   4.889   7.972 -0.6673 -1.0659  0.4343
   68SAPC  H13S 5755   5.629   4.844   8.115 -0.2793  2.7299  2.1129
   68SAPC  C214 5756   5.591   5.049   8.041  0.0326 -0.5861  0.4538
   68SAPC  H14R 5757   5.584   5.114   7.953  0.9246  0.3056  1.0228
   68SAPC  C215 5758   5.578   5.101   8.159 -0.1548  0.0853 -0.1047
   68SAPC  H15R 5759   5.560   5.209   8.167  0.6027  0.2657 -0.8082
   68SAPC  C216 5760   5.586   5.036   8.296  0.0129 -0.2014 -0.3071
   68SAPC  H16R 5761   5.663   5.092   8.354 -1.6021  1.9592 -0.1360
   68SAPC  H16S 5762   5.612   4.928   8.298  1.0067  0.0340  0.2007
   68SAPC  C217 5763   5.454   5.039   8.370  0.4819 -0.5249 -0.3686
   68SAPC  H17R 5764   5.421   5.144   8.384 -0.0779 -0.7015 -0.3292
   68SAPC  H17S 5765   5.466   5.000   8.473  0.6962 -0.7245 -0.4699
   68SAPC  C218 5766   5.334   4.963   8.308 -0.6013  0.0371  0.6150
   68SAPC  H18R 5767   5.353   4.853   8.312  4.4158  0.5910 -1.3438
   68SAPC  H18S 5768   5.327   4.980   8.198 -1.0221  1.9467  0.9191
   68SAPC  C219 5769   5.209   5.014   8.375 -0.2683  0.1168  0.5949
   68SAPC  H19R 5770   5.198   5.124   8.388  2.1695  0.3470  1.1250
   68SAPC  H19S 5771   5.214   4.971   8.477  1.8698 -0.8301  0.1525
   68SAPC  C220 5772   5.077   4.961   8.299  0.3344 -0.5080 -0.2687
   68SAPC  H20R 5773   5.078   5.008   8.198  0.1985 -1.0356 -0.5178
   68SAPC  H20S 5774   4.993   5.015   8.347  2.2317  0.1617  2.5405
   68SAPC  H20T 5775   5.053   4.853   8.298 -0.1057 -0.4228  0.3177
   68SAPC   C33 5776   6.147   4.839   7.008  0.1477 -0.4099 -0.3930
   68SAPC   H3X 5777   6.055   4.872   7.060  0.0412 -0.8681 -0.2927
   68SAPC   H3Y 5778   6.229   4.906   7.044 -1.3287  0.0406  2.3886
   68SAPC   C34 5779   6.167   4.694   7.054  0.2127  0.8479  0.3876
   68SAPC   H4X 5780   6.266   4.658   7.021 -0.0137 -1.2289  1.8052
   68SAPC   H4Y 5781   6.087   4.637   7.001 -0.0368  2.2102 -0.7561
   68SAPC   C35 5782   6.136   4.677   7.200 -0.1726  0.2319 -0.4215
   68SAPC   H5X 5783   6.028   4.703   7.205 -0.3040 -0.3278 -0.2817
   68SAPC   H5Y 5784   6.194   4.750   7.259 -2.4652  2.1923 -0.4363
   68SAPC   C36 5785   6.155   4.534   7.252 -0.7035  0.2669 -0.5934
   68SAPC   H6X 5786   6.260   4.501   7.267 -0.1556  1.9691 -0.3927
   68SAPC   H6Y 5787   6.110   4.469   7.174  2.5078 -0.7175 -1.7996
   68SAPC   C37 5788   6.089   4.514   7.385  0.3723  0.1582 -0.3079
   68SAPC   H7X 5789   6.095   4.605   7.450 -0.6808 -0.3989  0.6015
   68SAPC   H7Y 5790   6.146   4.439   7.445 -4.5095 -2.4946  1.5499
   68SAPC   C38 5791   5.943   4.464   7.380 -1.1832  0.2386  0.1836
   68SAPC   H8X 5792   5.937   4.371   7.320 -0.6982  0.2163  0.1678
   68SAPC   H8Y 5793   5.882   4.546   7.336  0.6646  0.2970 -2.4592
   68SAPC   C39 5794   5.884   4.435   7.517 -0.2058  0.0121  0.0114
   68SAPC   H9X 5795   5.899   4.527   7.578 -0.0734 -2.1055  3.4384
   68SAPC   H9Y 5796   5.941   4.358   7.573 -2.2799 -1.8803 -0.3195
   68SAPC  C310 5797   5.738   4.399   7.512 -0.7989 -0.6960 -0.6882
   68SAPC  H10X 5798   5.734   4.312   7.442  0.6635 -2.0338  0.7841
   68SAPC  H10Y 5799   5.667   4.478   7.480 -2.7166 -2.3037 -0.5553
   68SAPC  C311 5800   5.695   4.348   7.650 -0.2470 -0.4452  0.0862
   68SAPC  H11X 5801   5.765   4.264   7.673  0.5061 -0.4277 -1.9082
   68SAPC  H11Y 5802   5.592   4.308   7.648 -0.9447  1.2751  0.2253
   68SAPC  C312 5803   5.707   4.444   7.768  0.1951 -0.0422  0.7861
   68SAPC  H12X 5804   5.619   4.510   7.753  0.4808  0.1494 -0.0702
   68SAPC  H12Y 5805   5.802   4.500   7.758  0.0861  0.0882  0.4996
   68SAPC  C313 5806   5.693   4.371   7.906  0.7142 -0.1089  0.1265
   68SAPC  H13X 5807   5.754   4.278   7.898  1.1099  0.1120  0.5134
   68SAPC  H13Y 5808   5.586   4.353   7.928  0.5130  0.2861 -0.4961
   68SAPC  C314 5809   5.739   4.457   8.025 -0.4539  0.8798  0.3214
   68SAPC  H14X 5810   5.702   4.561   8.016 -0.8350  0.6877 -0.4262
   68SAPC  H14Y 5811   5.849   4.469   8.033 -0.5209  2.1911 -0.4277
   68SAPC  C315 5812   5.688   4.400   8.164 -0.0805 -0.1144  0.0802
   68SAPC  H15X 5813   5.722   4.295   8.178 -2.2146 -0.9355 -0.5787
   68SAPC  H15Y 5814   5.579   4.381   8.154  0.0665  0.0397 -2.4532
   68SAPC  C316 5815   5.729   4.483   8.290 -0.8255  0.7903  0.7011
   68SAPC  H16X 5816   5.835   4.513   8.278 -1.0101  0.8459 -1.0874
   68SAPC  H16Y 5817   5.726   4.418   8.379  3.2414 -1.4799 -0.5579
   68SAPC  C317 5818   5.633   4.597   8.306 -0.9313  1.1629  0.1099
   68SAPC  H17X 5819   5.542   4.541   8.335  0.7020 -1.1881  0.9270
   68SAPC  H17Y 5820   5.609   4.655   8.214  0.7264 -0.7475 -1.6273
   68SAPC  C318 5821   5.662   4.687   8.422  0.2033 -0.8379  0.3377
   68SAPC  H18X 5822   5.699   4.633   8.512 -1.5016 -3.2697 -0.3132
   68SAPC  H18Y 5823   5.580   4.761   8.426 -0.6409 -1.7670  0.5715
   68SAPC  H18Z 5824   5.750   4.746   8.389 -0.4928 -0.5377 -1.0800
   69SLPC     N 5825   2.375   3.617  11.378 -0.3168  0.6647 -0.1556
   69SLPC   C13 5826   2.516   3.575  11.393  0.0009 -0.4209  0.1066
   69SLPC  H13A 5827   2.534   3.469  11.389 -0.6391 -0.5041 -1.0363
   69SLPC  H13B 5828   2.561   3.612  11.303  0.4455  0.3078  0.6186
   69SLPC  H13C 5829   2.554   3.627  11.480 -1.9968  3.3106 -1.0274
   69SLPC   C14 5830   2.375   3.756  11.433  0.2469  0.0352  0.0123
   69SLPC  H14A 5831   2.426   3.832  11.376 -2.9282  2.8359  0.5779
   69SLPC  H14B 5832   2.275   3.796  11.439  0.9366  1.9004 -0.2222
   69SLPC  H14C 5833   2.432   3.762  11.525  0.1497  0.6603  0.0380
   69SLPC   C15 5834   2.290   3.532  11.474  0.0225 -0.3913 -0.1788
   69SLPC  H15A 5835   2.335   3.511  11.570 -0.8294 -0.6148  0.1880
   69SLPC  H15B 5836   2.196   3.582  11.492  0.6922 -0.0817  3.1264
   69SLPC  H15C 5837   2.261   3.442  11.421 -2.3267  0.2036 -0.0408
   69SLPC   C12 5838   2.322   3.619  11.241 -0.7749  0.2677  0.4485
   69SLPC  H12A 5839   2.381   3.679  11.173 -3.0739  0.7681 -1.2382
   69SLPC  H12B 5840   2.223   3.662  11.246 -1.0705 -0.3630  0.1521
   69SLPC   C11 5841   2.300   3.478  11.169 -0.2947 -0.2241 -0.5389
   69SLPC  H11A 5842   2.380   3.403  11.188 -2.1263 -2.0464  0.3776
   69SLPC  H11B 5843   2.300   3.501  11.061  0.6438 -0.2987 -0.5593
   69SLPC     P 5844   2.035   3.479  11.186  0.0818  0.0405  0.4438
   69SLPC   O13 5845   1.933   3.398  11.253  0.0161 -0.2554  0.3792
   69SLPC   O14 5846   2.024   3.626  11.206 -0.1561  0.0857 -0.6976
   69SLPC   O12 5847   2.179   3.424  11.217 -0.6135  0.0481 -0.1539
   69SLPC   O11 5848   2.016   3.468  11.034 -0.2047  0.0279  0.9495
   69SLPC    C1 5849   2.057   3.339  10.971 -0.7756 -0.5668  0.0386
   69SLPC    HA 5850   2.115   3.359  10.879 -0.4571  0.3641  0.4351
   69SLPC    HB 5851   2.118   3.271  11.035  0.2549  1.0624  0.8615
   69SLPC    C2 5852   1.947   3.241  10.946  0.6318  0.5271  1.1165
   69SLPC    HS 5853   1.891   3.227  11.041  1.8583 -1.4457  1.6223
   69SLPC   O21 5854   2.000   3.111  10.894  0.3694 -0.1899  0.2013
   69SLPC   C21 5855   2.014   3.018  10.992 -0.0526 -1.1955 -0.2185
   69SLPC   O22 5856   1.985   3.038  11.108  0.3169 -0.7121  0.3027
   69SLPC   C22 5857   2.089   2.896  10.942 -0.3011  0.4027  0.8715
   69SLPC   H2R 5858   2.193   2.930  10.920  0.1019 -0.3415  1.5918
   69SLPC   H2S 5859   2.103   2.817  11.018  3.7146  0.5359  0.4727
   69SLPC    C3 5860   1.847   3.303  10.838  0.2926  0.6042 -0.5567
   69SLPC    HX 5861   1.810   3.392  10.892  0.4452  0.0779  0.4500
   69SLPC    HY 5862   1.769   3.224  10.823  0.0707  0.9568 -1.3056
   69SLPC   O31 5863   1.905   3.326  10.710  0.2612 -0.1356 -0.3843
   69SLPC   C31 5864   1.837   3.401  10.621 -0.3203  0.1396 -0.4220
   69SLPC   O32 5865   1.731   3.453  10.642 -0.1616  0.0979 -0.5378
   69SLPC   C32 5866   1.917   3.412  10.497  0.1309  0.5391  0.5657
   69SLPC   H2X 5867   2.014   3.452  10.534  0.1612  1.0800 -0.0775
   69SLPC   H2Y 5868   1.867   3.485  10.430 -3.5228 -2.6931 -0.6578
   69SLPC   C23 5869   2.022   2.849  10.817 -0.4126  0.7231  0.1074
   69SLPC   H3R 5870   2.008   2.926  10.737  1.2855  0.9728  0.0039
   69SLPC   H3S 5871   1.921   2.811  10.840  0.1943 -0.0384  1.6453
   69SLPC   C24 5872   2.117   2.738  10.763  0.2975  0.0305  0.5249
   69SLPC   H4R 5873   2.136   2.663  10.843  1.9745  0.2838  0.4077
   69SLPC   H4S 5874   2.216   2.766  10.720  0.1082 -0.6889 -0.4160
   69SLPC   C25 5875   2.060   2.665  10.635  0.4290 -0.1060  0.4648
   69SLPC   H5R 5876   1.962   2.625  10.668 -0.1825  0.6783 -0.3589
   69SLPC   H5S 5877   2.124   2.581  10.601  0.1643  0.1366 -0.6762
   69SLPC   C26 5878   2.041   2.772  10.519  0.5601  0.2717  0.6734
   69SLPC   H6R 5879   2.135   2.827  10.502  0.3145  0.0710 -1.6866
   69SLPC   H6S 5880   1.962   2.846  10.543 -2.0001 -1.9419 -0.3947
   69SLPC   C27 5881   1.995   2.710  10.382  0.1906  0.3366 -0.7221
   69SLPC   H7R 5882   1.952   2.790  10.318  1.6802 -0.3359 -2.6374
   69SLPC   H7S 5883   1.917   2.640  10.421  1.4259 -1.0606 -0.6629
   69SLPC   C28 5884   2.087   2.612  10.317  0.2671  0.3162  0.5306
   69SLPC   H8R 5885   2.027   2.531  10.271  0.7209  1.0632 -1.4904
   69SLPC   H8S 5886   2.140   2.557  10.398  4.2528  0.4900 -1.6613
   69SLPC   C29 5887   2.180   2.673  10.216 -0.3963  0.7994  0.7695
   69SLPC   H9R 5888   2.284   2.680  10.249  0.0550  0.8631 -0.5980
   69SLPC  C210 5889   2.163   2.697  10.082  0.6258  0.8859 -0.0425
   69SLPC  H10R 5890   2.249   2.746  10.035  0.3427  0.8848 -0.5612
   69SLPC  C211 5891   2.039   2.673   9.998 -0.2726 -0.0046  0.4172
   69SLPC  H11R 5892   1.950   2.635  10.053  0.6098 -0.4520  1.5744
   69SLPC  H11S 5893   2.060   2.595   9.921  0.6268 -1.1726  1.7856
   69SLPC  C212 5894   2.002   2.804   9.927  0.5841  0.2863  0.3803
   69SLPC  H12R 5895   1.962   2.878   9.998  0.4901 -1.0243  1.7425
   69SLPC  C213 5896   2.008   2.825   9.799 -0.1292 -0.0327 -0.0699
   69SLPC  H13R 5897   1.978   2.925   9.764  0.6828  0.3725  0.3686
   69SLPC  C214 5898   2.046   2.732   9.682 -0.1783  0.3843 -0.3549
   69SLPC  H14R 5899   1.959   2.696   9.623 -0.9184  0.8021  0.4588
   69SLPC  H14S 5900   2.109   2.642   9.701 -1.5829 -1.0313 -2.0278
   69SLPC  C215 5901   2.105   2.821   9.573  0.6342  0.6967  0.3513
   69SLPC  H15R 5902   2.194   2.881   9.603 -1.7706  4.8916 -0.0463
   69SLPC  H15S 5903   2.030   2.897   9.541  0.4055 -0.1219 -1.1380
   69SLPC  C216 5904   2.158   2.741   9.451 -0.7151 -0.3051 -0.5041
   69SLPC  H16R 5905   2.213   2.661   9.506  0.2600  0.3128 -0.5777
   69SLPC  H16S 5906   2.232   2.800   9.394 -1.0090  0.7017  0.1303
   69SLPC  C217 5907   2.042   2.681   9.356 -1.0646 -0.7915  0.0762
   69SLPC  H17R 5908   1.970   2.760   9.325 -0.7960  1.0847  3.6932
   69SLPC  H17S 5909   1.981   2.612   9.418  0.4152 -2.7686 -0.5651
   69SLPC  C218 5910   2.096   2.598   9.236  0.5207 -0.2477 -0.1331
   69SLPC  H18R 5911   2.026   2.589   9.151  1.1548 -2.0323 -0.5039
   69SLPC  H18S 5912   2.122   2.501   9.285 -0.7536  0.5271  2.2521
   69SLPC  H18T 5913   2.189   2.644   9.197 -0.3068 -0.2944 -2.2454
   69SLPC   C33 5914   1.907   3.283  10.405 -0.1083 -0.3349 -1.1052
   69SLPC   H3X 5915   1.800   3.253  10.401 -0.1087 -1.2830  2.5465
   69SLPC   H3Y 5916   1.956   3.190  10.442 -0.0007 -0.0757 -0.5940
   69SLPC   C34 5917   1.957   3.318  10.265 -1.0397 -0.0457 -0.3632
   69SLPC   H4X 5918   2.067   3.327  10.270 -0.8325 -2.4426  1.6195
   69SLPC   H4Y 5919   1.907   3.408  10.225 -0.1118  2.0303  2.7981
   69SLPC   C35 5920   1.924   3.209  10.168  0.1598  0.3784 -0.4265
   69SLPC   H5X 5921   1.816   3.186  10.170  0.4906 -1.4716  2.0301
   69SLPC   H5Y 5922   1.975   3.114  10.196 -3.7156 -2.9285 -3.3963
   69SLPC   C36 5923   1.957   3.246  10.015 -0.0173 -0.4415  0.0887
   69SLPC   H6X 5924   1.908   3.343   9.989  0.0223  0.3325  2.5968
   69SLPC   H6Y 5925   1.920   3.164   9.950  0.1854  1.6663 -2.8935
   69SLPC   C37 5926   2.114   3.255   9.999 -0.4494 -0.3125  0.3548
   69SLPC   H7X 5927   2.145   3.191  10.084 -1.0310  1.6820  2.1603
   69SLPC   H7Y 5928   2.146   3.361  10.015 -1.2741  0.3917 -2.1972
   69SLPC   C38 5929   2.172   3.206   9.868  0.0119  0.4673 -0.0032
   69SLPC   H8X 5930   2.146   3.098   9.858  0.2377  0.1914  1.8964
   69SLPC   H8Y 5931   2.283   3.203   9.873  0.0556 -2.0437 -0.9203
   69SLPC   C39 5932   2.140   3.272   9.737 -0.3407  0.4909  0.2111
   69SLPC   H9X 5933   2.189   3.370   9.719 -0.9884  0.4874 -1.9906
   69SLPC   H9Y 5934   2.030   3.291   9.735 -0.2923  0.7497 -0.9913
   69SLPC  C310 5935   2.169   3.184   9.615 -0.5918 -0.4589 -0.3184
   69SLPC  H10X 5936   2.092   3.105   9.599  0.1500 -1.0732 -0.9495
   69SLPC  H10Y 5937   2.266   3.136   9.639 -1.9546 -1.5794  3.8637
   69SLPC  C311 5938   2.175   3.279   9.491  0.8932 -0.6818  0.3439
   69SLPC  H11X 5939   2.242   3.365   9.510  0.7472  0.1379 -2.4602
   69SLPC  H11Y 5940   2.074   3.325   9.483  1.9444  1.3465 -2.9253
   69SLPC  C312 5941   2.229   3.206   9.362  0.4534 -0.6748  0.2301
   69SLPC  H12X 5942   2.171   3.117   9.332 -0.0652  0.3824 -2.1412
   69SLPC  H12Y 5943   2.334   3.180   9.389  0.6918 -0.0318 -0.0384
   69SLPC  C313 5944   2.212   3.311   9.254  0.0295  0.2542  0.0614
   69SLPC  H13X 5945   2.263   3.406   9.278  1.7235 -0.6540  0.2309
   69SLPC  H13Y 5946   2.103   3.327   9.239 -0.7864 -1.9372  2.8013
   69SLPC  C314 5947   2.278   3.267   9.117  0.1823 -0.3985 -0.6420
   69SLPC  H14X 5948   2.227   3.312   9.029  0.8469 -0.1326 -0.9041
   69SLPC  H14Y 5949   2.273   3.156   9.119 -0.6750 -0.3861  2.6132
   69SLPC  C315 5950   2.425   3.309   9.101  0.5636 -0.2830  0.9973
   69SLPC  H15X 5951   2.468   3.265   9.194  1.3875  0.4086  0.9520
   69SLPC  H15Y 5952   2.433   3.420   9.102  3.4683 -0.4160  1.2279
   69SLPC  C316 5953   2.492   3.261   8.971  0.0912 -0.3027  0.4689
   69SLPC  H16X 5954   2.454   3.310   8.878 -0.2384 -2.4661 -0.6143
   69SLPC  H16Y 5955   2.466   3.153   8.962 -0.5044 -0.0741 -0.7630
   69SLPC  C317 5956   2.647   3.282   8.966  0.0429 -0.1032  0.4148
   69SLPC  H17X 5957   2.680   3.238   9.063  0.9619 -0.7774 -0.1911
   69SLPC  H17Y 5958   2.670   3.390   8.960  1.1443 -0.3716 -0.3240
   69SLPC  C318 5959   2.704   3.205   8.847  0.4520 -0.3560  0.2843
   69SLPC  H18X 5960   2.656   3.245   8.755 -0.7398 -1.8361  0.2227
   69SLPC  H18Y 5961   2.670   3.100   8.850  0.4926 -0.3373  1.6890
   69SLPC  H18Z 5962   2.815   3.212   8.848  0.4932 -1.0350  0.8547
   70SLPC     N 5963   3.126   0.689  10.890 -0.2986  0.2910  0.1135
   70SLPC   C13 5964   3.127   0.577  10.784  0.0651  0.0287  0.2043
   70SLPC  H13A 5965   3.030   0.572  10.738 -0.0495 -0.8152  0.5212
   70SLPC  H13B 5966   3.206   0.608  10.718  1.0964  0.3674  1.5397
   70SLPC  H13C 5967   3.157   0.481  10.824  0.8889  1.2499  2.7442
   70SLPC   C14 5968   3.024   0.658  10.992  0.0675 -0.1140 -0.1090
   70SLPC  H14A 5969   3.017   0.740  11.061 -1.7197  1.0182 -1.5481
   70SLPC  H14B 5970   2.926   0.643  10.950  0.0323 -2.1272  0.5451
   70SLPC  H14C 5971   3.042   0.567  11.047 -2.1511 -0.2159  0.5654
   70SLPC   C15 5972   3.097   0.819  10.822  0.2453  0.0767  0.0785
   70SLPC  H15A 5973   2.991   0.834  10.807  0.5031  4.2295  1.3281
   70SLPC  H15B 5974   3.126   0.899  10.888 -1.3262  0.6332  0.1256
   70SLPC  H15C 5975   3.157   0.829  10.732  1.2194 -0.4293  0.6606
   70SLPC   C12 5976   3.262   0.686  10.956 -0.1137  0.2961 -0.4713
   70SLPC  H12A 5977   3.265   0.758  11.036 -0.1746  1.1207 -1.1849
   70SLPC  H12B 5978   3.344   0.710  10.890  1.3911 -1.4125  0.6704
   70SLPC   C11 5979   3.315   0.549  11.016 -0.3903  0.7369 -0.1447
   70SLPC  H11A 5980   3.248   0.503  11.091 -0.4804 -0.4851 -0.9403
   70SLPC  H11B 5981   3.408   0.580  11.067  0.6442 -0.2940 -1.3337
   70SLPC     P 5982   3.467   0.486  10.802  0.2510  0.1223 -0.1866
   70SLPC   O13 5983   3.481   0.632  10.784 -0.4221  0.2629 -0.1631
   70SLPC   O14 5984   3.590   0.416  10.835  0.3248 -0.6338 -0.4677
   70SLPC   O12 5985   3.348   0.456  10.912  0.1068  0.4067  0.1623
   70SLPC   O11 5986   3.404   0.430  10.675  0.1338  0.6027 -0.2221
   70SLPC    C1 5987   3.355   0.293  10.664 -0.3251  0.3946  0.2038
   70SLPC    HA 5988   3.408   0.222  10.731  1.0343 -0.0449 -1.2765
   70SLPC    HB 5989   3.245   0.293  10.676 -0.6171  0.0879 -2.0910
   70SLPC    C2 5990   3.383   0.251  10.518 -0.1822 -0.3634  0.1143
   70SLPC    HS 5991   3.351   0.147  10.496  1.2039 -0.5288 -1.2403
   70SLPC   O21 5992   3.525   0.251  10.505 -0.5042  0.4776  0.2855
   70SLPC   C21 5993   3.583   0.141  10.552 -0.5267  0.7098 -0.2961
   70SLPC   O22 5994   3.528   0.047  10.608 -0.2371  0.1269 -0.1111
   70SLPC   C22 5995   3.737   0.151  10.534 -0.5815 -0.7591 -0.1847
   70SLPC   H2R 5996   3.768   0.258  10.527 -0.8964 -0.6321  0.3023
   70SLPC   H2S 5997   3.786   0.103  10.622  1.4971  0.3932 -0.6474
   70SLPC    C3 5998   3.311   0.352  10.413 -0.3168  0.7293  0.1409
   70SLPC    HX 5999   3.384   0.435  10.409 -0.4413  0.8194 -0.3419
   70SLPC    HY 6000   3.210   0.389  10.441 -1.0308 -0.7712 -0.3117
   70SLPC   O31 6001   3.315   0.293  10.284  0.1635 -0.2419  0.2777
   70SLPC   C31 6002   3.236   0.191  10.260  0.3415  0.3705  0.3652
   70SLPC   O32 6003   3.141   0.152  10.329 -0.1525  0.2225  0.5835
   70SLPC   C32 6004   3.271   0.139  10.124  0.2315  0.4097  0.2555
   70SLPC   H2X 6005   3.227   0.037  10.121  0.6232  0.2377  0.2949
   70SLPC   H2Y 6006   3.379   0.113  10.125  0.2366  0.4232  1.2834
   70SLPC   C23 6007   3.784   0.078  10.401  0.7149  0.0459 -0.3303
   70SLPC   H3R 6008   3.742  -0.023  10.383  1.4071 -0.4609  0.7673
   70SLPC   H3S 6009   3.894   0.062  10.410  0.9421 -0.3146 -3.0821
   70SLPC   C24 6010   3.742   0.170  10.292  0.0240  0.0153  0.9293
   70SLPC   H4R 6011   3.793   0.268  10.299  0.8793 -0.1919 -1.4620
   70SLPC   H4S 6012   3.631   0.175  10.296 -0.1424 -2.0385  0.3789
   70SLPC   C25 6013   3.792   0.128  10.147  0.1284  0.8402  0.1440
   70SLPC   H5R 6014   3.760   0.025  10.123 -1.4859  0.6098  2.8542
   70SLPC   H5S 6015   3.901   0.149  10.138  0.3378 -0.5656 -0.8204
   70SLPC   C26 6016   3.729   0.213  10.032  0.3885  0.2521 -0.2726
   70SLPC   H6R 6017   3.732   0.322  10.054  1.2901  0.2476 -0.3344
   70SLPC   H6S 6018   3.625   0.179  10.012 -0.1182  1.3395  0.4482
   70SLPC   C27 6019   3.815   0.195   9.907  0.1153 -0.4834 -0.2661
   70SLPC   H7R 6020   3.813   0.089   9.876  1.7248 -0.4312 -0.6206
   70SLPC   H7S 6021   3.915   0.231   9.939 -1.1498  1.3764  1.9145
   70SLPC   C28 6022   3.766   0.285   9.795 -0.9829  0.8713 -0.3602
   70SLPC   H8R 6023   3.854   0.300   9.728 -1.7463 -1.2729 -1.9489
   70SLPC   H8S 6024   3.738   0.383   9.841 -1.1014  1.4911 -1.7194
   70SLPC   C29 6025   3.641   0.247   9.717 -0.5218  0.5745 -0.7663
   70SLPC   H9R 6026   3.562   0.199   9.775 -1.4880  2.9552  0.0356
   70SLPC  C210 6027   3.626   0.245   9.582  0.1028 -0.7864 -0.0159
   70SLPC  H10R 6028   3.524   0.218   9.550  0.0133 -0.0583 -0.3670
   70SLPC  C211 6029   3.721   0.284   9.477  0.0361 -0.3250  0.2866
   70SLPC  H11R 6030   3.694   0.234   9.381  1.1822  0.7676 -0.6387
   70SLPC  H11S 6031   3.820   0.245   9.510 -0.2025  1.3882  3.3542
   70SLPC  C212 6032   3.745   0.433   9.465  0.7511 -0.1242 -0.0033
   70SLPC  H12R 6033   3.739   0.490   9.559  0.4171  0.6760 -0.5002
   70SLPC  C213 6034   3.774   0.499   9.351 -0.6280 -0.2242 -0.1803
   70SLPC  H13R 6035   3.798   0.606   9.352 -2.3735  0.2082 -0.4252
   70SLPC  C214 6036   3.783   0.444   9.208  0.0138 -0.1767 -0.4413
   70SLPC  H14R 6037   3.695   0.479   9.152 -0.3642  2.1431  1.4559
   70SLPC  H14S 6038   3.778   0.333   9.210  1.6352 -0.2779 -0.1071
   70SLPC  C215 6039   3.914   0.488   9.125 -0.0722 -0.2681 -0.5331
   70SLPC  H15R 6040   3.909   0.447   9.022  2.0956 -2.4313  0.1180
   70SLPC  H15S 6041   4.000   0.440   9.176 -0.0935  0.3287  0.0859
   70SLPC  C216 6042   3.951   0.640   9.123 -0.2358 -0.0143  0.0478
   70SLPC  H16R 6043   3.951   0.682   9.226  3.8882  0.4574  0.0106
   70SLPC  H16S 6044   3.878   0.699   9.063  2.0635  1.4953 -1.4068
   70SLPC  C217 6045   4.093   0.657   9.072  0.1081  0.2654 -0.6328
   70SLPC  H17R 6046   4.156   0.574   9.111  1.3715  1.1915 -0.6523
   70SLPC  H17S 6047   4.148   0.745   9.110  0.7595  0.3390 -1.6991
   70SLPC  C218 6048   4.098   0.663   8.919 -0.1776  0.0627  0.3870
   70SLPC  H18R 6049   4.050   0.754   8.877  0.9753  0.0869 -0.9375
   70SLPC  H18S 6050   4.044   0.572   8.885  0.4256 -0.1976  0.0984
   70SLPC  H18T 6051   4.202   0.653   8.880  0.1728 -0.2969  1.3859
   70SLPC   C33 6052   3.267   0.236   9.992  0.0504  0.1953 -1.0217
   70SLPC   H3X 6053   3.369   0.278   9.984  0.5077 -0.8943 -1.1378
   70SLPC   H3Y 6054   3.197   0.322   9.999  1.7818  1.5201  1.8326
   70SLPC   C34 6055   3.215   0.151   9.874  0.7648  0.0206  0.3590
   70SLPC   H4X 6056   3.116   0.104   9.889  0.7687 -0.3826 -0.8041
   70SLPC   H4Y 6057   3.283   0.068   9.844  0.9877  0.2293  0.2875
   70SLPC   C35 6058   3.203   0.243   9.755 -0.4091  0.7061 -0.3205
   70SLPC   H5X 6059   3.295   0.304   9.747 -0.1983  0.3581 -0.6130
   70SLPC   H5Y 6060   3.114   0.306   9.773 -0.2005  0.6137  1.1517
   70SLPC   C36 6061   3.186   0.166   9.623 -0.3003 -0.0887  0.0389
   70SLPC   H6X 6062   3.095   0.103   9.630  1.6324 -3.0134  1.0711
   70SLPC   H6Y 6063   3.275   0.103   9.599  0.2936  0.7293  0.0660
   70SLPC   C37 6064   3.160   0.274   9.508  0.0800  0.8875  0.1738
   70SLPC   H7X 6065   3.258   0.318   9.479  0.2510  0.2151 -0.3181
   70SLPC   H7Y 6066   3.095   0.359   9.536 -0.3671  0.3455  0.8231
   70SLPC   C38 6067   3.092   0.201   9.389 -0.7646 -0.4108 -0.4940
   70SLPC   H8X 6068   2.999   0.167   9.440 -1.2054  1.3039 -0.1123
   70SLPC   H8Y 6069   3.153   0.111   9.366  1.3070  0.5214  1.0579
   70SLPC   C39 6070   3.065   0.288   9.270  0.2844  0.3873  0.4713
   70SLPC   H9X 6071   3.161   0.332   9.235  0.7254 -1.3374 -0.6271
   70SLPC   H9Y 6072   2.985   0.362   9.290 -0.5742 -0.4169  0.0824
   70SLPC  C310 6073   3.025   0.218   9.141  0.3142 -0.3835  0.2334
   70SLPC  H10X 6074   2.923   0.174   9.146  0.5971 -1.0885 -0.1337
   70SLPC  H10Y 6075   3.094   0.135   9.116 -0.9823 -1.2789 -0.5123
   70SLPC  C311 6076   3.016   0.329   9.035 -0.0514  0.0143  1.1165
   70SLPC  H11X 6077   3.114   0.379   9.014 -0.2954  0.4560  1.0144
   70SLPC  H11Y 6078   2.942   0.408   9.061 -0.9008 -0.4070  0.0709
   70SLPC  C312 6079   2.953   0.268   8.906 -0.4162 -0.1518  0.1625
   70SLPC  H12X 6080   2.847   0.257   8.935 -0.5199  0.1966 -0.0669
   70SLPC  H12Y 6081   2.982   0.165   8.875  1.1919  0.5827 -0.9530
   70SLPC  C313 6082   2.940   0.352   8.774 -0.8094  0.4207  0.1530
   70SLPC  H13X 6083   2.899   0.454   8.791  0.7909  1.7184 -2.8468
   70SLPC  H13Y 6084   2.880   0.295   8.701  1.4233 -3.0109  0.7718
   70SLPC  C314 6085   3.070   0.388   8.706 -0.3536  0.2650  0.3044
   70SLPC  H14X 6086   3.138   0.303   8.682  0.4762  1.1694 -0.6664
   70SLPC  H14Y 6087   3.136   0.444   8.776  0.3783  1.2509 -1.1249
   70SLPC  C315 6088   3.059   0.487   8.591  0.7181  0.1134 -0.4179
   70SLPC  H15X 6089   3.005   0.571   8.640 -0.0858 -1.0531  0.7341
   70SLPC  H15Y 6090   3.004   0.435   8.510 -0.4639  0.6000  0.0518
   70SLPC  C316 6091   3.185   0.548   8.531  0.0635 -0.2511  0.5562
   70SLPC  H16X 6092   3.226   0.473   8.460 -2.6963 -0.4542 -0.9698
   70SLPC  H16Y 6093   3.266   0.573   8.603 -1.2454  1.0013  1.6644
   70SLPC  C317 6094   3.156   0.680   8.453  0.0273  0.2718  0.2268
   70SLPC  H17X 6095   3.247   0.735   8.424  0.1492 -0.8923 -1.8382
   70SLPC  H17Y 6096   3.104   0.741   8.530 -2.1639 -1.6098  0.3587
   70SLPC  C318 6097   3.066   0.669   8.328 -0.3484 -0.5581  0.5463
   70SLPC  H18X 6098   2.969   0.622   8.354 -1.5162  0.3372 -1.9308
   70SLPC  H18Y 6099   3.108   0.618   8.239  0.3544 -0.2110  0.6695
   70SLPC  H18Z 6100   3.042   0.773   8.297 -0.2726 -0.4685  0.7839
   71SLPC     N 6101   2.803   5.245  10.827 -0.6804 -0.4395 -0.1553
   71SLPC   C13 6102   2.834   5.137  10.727  0.7967  0.9108 -0.4888
   71SLPC  H13A 6103   2.847   5.044  10.779 -1.4207 -1.4708 -3.7909
   71SLPC  H13B 6104   2.746   5.106  10.672  0.3101 -0.8616  1.1852
   71SLPC  H13C 6105   2.932   5.152  10.683  2.3037  0.2121  2.4160
   71SLPC   C14 6106   2.934   5.290  10.892 -0.2145 -0.0261  0.0007
   71SLPC  H14A 6107   2.928   5.366  10.968  3.1790 -0.4392  0.8450
   71SLPC  H14B 6108   2.994   5.215  10.941  3.0311  1.2521 -1.7050
   71SLPC  H14C 6109   3.006   5.320  10.818  1.2341 -0.7748  1.0664
   71SLPC   C15 6110   2.705   5.214  10.934  0.0149 -0.6018  0.3580
   71SLPC  H15A 6111   2.731   5.116  10.972 -0.4338 -0.2921  1.5029
   71SLPC  H15B 6112   2.695   5.296  11.004 -1.1050  0.1337 -0.6324
   71SLPC  H15C 6113   2.605   5.204  10.894  0.4327 -1.5864 -0.4878
   71SLPC   C12 6114   2.750   5.359  10.749  0.1074 -0.2868 -0.4349
   71SLPC  H12A 6115   2.818   5.395  10.672 -0.1343 -0.2374 -0.6268
   71SLPC  H12B 6116   2.738   5.448  10.810 -1.2273 -0.8369  0.1412
   71SLPC   C11 6117   2.600   5.351  10.698  0.4946  0.1121 -0.3700
   71SLPC  H11A 6118   2.590   5.252  10.647 -0.6144 -0.0724  0.1810
   71SLPC  H11B 6119   2.596   5.433  10.623 -0.3651  1.3059  0.9544
   71SLPC     P 6120   2.461   5.504  10.855 -0.1774  0.0784 -0.3518
   71SLPC   O13 6121   2.378   5.469  10.970  0.5207  0.1611 -0.1774
   71SLPC   O14 6122   2.587   5.585  10.883  0.0119 -0.1959 -0.6475
   71SLPC   O12 6123   2.508   5.364  10.804  0.2524 -0.0414  0.3201
   71SLPC   O11 6124   2.387   5.578  10.737 -0.0144 -0.4243 -0.1058
   71SLPC    C1 6125   2.283   5.522  10.659 -0.6508  0.2112 -0.1903
   71SLPC    HA 6126   2.257   5.417  10.682 -0.4464  0.8916  3.9295
   71SLPC    HB 6127   2.192   5.583  10.679 -2.3339 -1.8548 -1.2008
   71SLPC    C2 6128   2.318   5.542  10.506  0.4771  0.3920 -0.4452
   71SLPC    HS 6129   2.385   5.458  10.476  0.2330  1.2498 -3.7150
   71SLPC   O21 6130   2.372   5.672  10.480 -0.1503 -0.0645  0.4188
   71SLPC   C21 6131   2.484   5.669  10.398 -0.0318  0.2316 -0.6213
   71SLPC   O22 6132   2.541   5.570  10.358  0.3559 -0.2207 -0.2480
   71SLPC   C22 6133   2.521   5.818  10.365  0.2293  0.3557  0.3089
   71SLPC   H2R 6134   2.435   5.877  10.327 -0.0237 -0.6043 -0.6413
   71SLPC   H2S 6135   2.538   5.863  10.466 -0.3591 -2.6588  1.8702
   71SLPC    C3 6136   2.192   5.518  10.415 -0.2452  0.0979 -0.3512
   71SLPC    HX 6137   2.117   5.595  10.441  0.0590  0.2218  0.1800
   71SLPC    HY 6138   2.152   5.415  10.430  1.5091 -0.9541 -2.2928
   71SLPC   O31 6139   2.226   5.509  10.284 -0.4694  0.2172  0.3360
   71SLPC   C31 6140   2.189   5.616  10.208 -0.4137  0.2756 -0.2328
   71SLPC   O32 6141   2.125   5.714  10.242  0.1584 -0.0066  0.1474
   71SLPC   C32 6142   2.241   5.600  10.067 -1.2243 -0.4700  0.3662
   71SLPC   H2X 6143   2.232   5.495  10.033  1.8217 -0.4612 -0.8029
   71SLPC   H2Y 6144   2.347   5.630  10.049 -0.9803 -1.9745 -0.8822
   71SLPC   C23 6145   2.644   5.825  10.276 -0.3475 -0.2277  0.6448
   71SLPC   H3R 6146   2.710   5.736  10.279 -1.9939 -1.4732  1.3088
   71SLPC   H3S 6147   2.696   5.922  10.289 -0.8696  0.4172 -1.6823
   71SLPC   C24 6148   2.600   5.838  10.121  0.2010  0.0391 -0.1828
   71SLPC   H4R 6149   2.515   5.909  10.115 -0.4105 -0.7999 -2.6520
   71SLPC   H4S 6150   2.558   5.736  10.107 -0.1663  0.1527  0.0732
   71SLPC   C25 6151   2.701   5.876  10.021  0.1050  0.0998  0.8072
   71SLPC   H5R 6152   2.790   5.808  10.019  2.0865  2.5621 -1.1532
   71SLPC   H5S 6153   2.735   5.981  10.036  1.7692 -0.3730  0.6346
   71SLPC   C26 6154   2.642   5.857   9.880 -0.1298 -0.4192 -0.2004
   71SLPC   H6R 6155   2.541   5.901   9.890  0.9384  2.7149 -1.9328
   71SLPC   H6S 6156   2.633   5.747   9.864 -1.4879 -0.1682 -1.3683
   71SLPC   C27 6157   2.724   5.924   9.771  0.1711 -0.4918  0.1069
   71SLPC   H7R 6158   2.826   5.886   9.747  0.4694 -0.7996  1.7434
   71SLPC   H7S 6159   2.724   6.031   9.801  1.7084 -0.5917  0.5339
   71SLPC   C28 6160   2.642   5.925   9.634 -0.2280 -0.6290 -0.7985
   71SLPC   H8R 6161   2.692   5.995   9.564 -0.7574  1.5031  0.8538
   71SLPC   H8S 6162   2.539   5.963   9.648  0.3545  0.3172  1.4019
   71SLPC   C29 6163   2.630   5.783   9.574 -0.9312 -0.3429 -0.4584
   71SLPC   H9R 6164   2.584   5.703   9.633 -0.2166  0.2460  0.9500
   71SLPC  C210 6165   2.663   5.752   9.442 -0.1568 -0.1094 -0.9844
   71SLPC  H10R 6166   2.665   5.648   9.408  1.2169  0.5397 -3.0956
   71SLPC  C211 6167   2.738   5.842   9.341 -0.4389  0.2860 -0.3920
   71SLPC  H11R 6168   2.818   5.783   9.291  0.2561  0.0387  0.9623
   71SLPC  H11S 6169   2.802   5.914   9.397 -1.4958  1.0169 -0.0804
   71SLPC  C212 6170   2.646   5.897   9.240  0.5145  0.1674  0.6345
   71SLPC  H12R 6171   2.546   5.856   9.222  0.6076  0.2792 -0.1545
   71SLPC  C213 6172   2.685   5.989   9.150  0.1751  0.6657  0.6155
   71SLPC  H13R 6173   2.615   6.010   9.068  1.6033  1.4548 -0.4550
   71SLPC  C214 6174   2.822   6.050   9.140 -0.5120  0.0786 -0.9125
   71SLPC  H14R 6175   2.864   6.056   9.243 -0.5376 -1.4783 -0.8005
   71SLPC  H14S 6176   2.804   6.156   9.109  0.0907  0.1611 -0.9981
   71SLPC  C215 6177   2.906   5.970   9.040 -0.1971  0.3076 -0.3010
   71SLPC  H15R 6178   2.872   5.864   9.041 -2.0366  0.8563 -0.7157
   71SLPC  H15S 6179   3.011   5.973   9.076 -0.8085  0.0743  1.6121
   71SLPC  C216 6180   2.896   6.013   8.896 -0.4556 -0.4312 -0.0329
   71SLPC  H16R 6181   2.792   6.009   8.857 -0.6941 -1.7071  0.6963
   71SLPC  H16S 6182   2.951   5.942   8.831  4.0294  0.6175  2.2238
   71SLPC  C217 6183   2.957   6.148   8.856  0.1798 -0.7280 -0.4506
   71SLPC  H17R 6184   3.066   6.162   8.876 -0.0924  3.2519 -0.8041
   71SLPC  H17S 6185   2.909   6.215   8.931  0.8773 -1.5242  0.7509
   71SLPC  C218 6186   2.924   6.199   8.712 -0.2331  0.5774 -0.3719
   71SLPC  H18R 6187   3.008   6.179   8.642  2.4364 -0.4687  2.8710
   71SLPC  H18S 6188   2.928   6.309   8.726  1.3502  0.7134 -1.6307
   71SLPC  H18T 6189   2.822   6.168   8.682 -1.1375 -0.8755  3.6739
   71SLPC   C33 6190   2.166   5.684   9.970  0.0219 -0.2595  0.0705
   71SLPC   H3X 6191   2.181   5.789  10.003 -3.0914  0.4124 -0.2902
   71SLPC   H3Y 6192   2.055   5.675   9.966 -0.1855  1.9891 -0.4153
   71SLPC   C34 6193   2.231   5.670   9.830 -0.3388  0.4503  0.1504
   71SLPC   H4X 6194   2.211   5.572   9.783  0.0181  1.2893 -1.8431
   71SLPC   H4Y 6195   2.340   5.671   9.851 -0.3037  2.3782  0.0376
   71SLPC   C35 6196   2.176   5.776   9.738  0.0958  0.3527  0.0408
   71SLPC   H5X 6197   2.181   5.880   9.776  1.9060 -0.2738  1.6864
   71SLPC   H5Y 6198   2.068   5.750   9.731 -0.0914  1.1689 -0.2034
   71SLPC   C36 6199   2.239   5.783   9.591  0.3449  0.1043  0.7745
   71SLPC   H6X 6200   2.227   5.682   9.548  1.6817 -0.6558  2.0691
   71SLPC   H6Y 6201   2.348   5.804   9.595  0.2227  1.7778 -1.9873
   71SLPC   C37 6202   2.180   5.898   9.509 -0.1537  0.2003  0.1695
   71SLPC   H7X 6203   2.170   5.995   9.562  2.1817  1.1834 -1.0394
   71SLPC   H7Y 6204   2.079   5.853   9.501  1.0647 -2.6950  0.0062
   71SLPC   C38 6205   2.253   5.923   9.370  0.9382  0.0604 -0.1691
   71SLPC   H8X 6206   2.280   5.827   9.321  0.6210 -0.3003  0.3529
   71SLPC   H8Y 6207   2.342   5.986   9.389 -1.9376  3.8920  2.0031
   71SLPC   C39 6208   2.159   6.005   9.276 -0.2052 -0.4072 -0.4202
   71SLPC   H9X 6209   2.112   6.088   9.333 -0.9713 -1.6347  0.8153
   71SLPC   H9Y 6210   2.086   5.926   9.247  0.3735 -1.3140  0.4913
   71SLPC  C310 6211   2.233   6.073   9.153 -0.1484  0.9249  0.4167
   71SLPC  H10X 6212   2.232   6.016   9.057 -1.6339 -0.8990  1.4474
   71SLPC  H10Y 6213   2.337   6.070   9.192 -0.9415 -0.6227  2.6165
   71SLPC  C311 6214   2.176   6.213   9.117 -0.2231  0.4649  0.1195
   71SLPC  H11X 6215   2.197   6.269   9.211 -1.3069  0.8595  0.1459
   71SLPC  H11Y 6216   2.067   6.205   9.098  0.0648 -0.0481 -1.4670
   71SLPC  C312 6217   2.249   6.277   9.000  0.1451 -0.7709  0.4439
   71SLPC  H12X 6218   2.356   6.250   8.987  1.0390  2.9936 -1.3035
   71SLPC  H12Y 6219   2.261   6.384   9.028  2.1729 -0.6948 -0.5604
   71SLPC  C313 6220   2.180   6.262   8.864 -0.4346  0.0903 -0.2209
   71SLPC  H13X 6221   2.108   6.347   8.859  1.8866  2.2667  1.0107
   71SLPC  H13Y 6222   2.132   6.163   8.876  0.1008  0.0891  2.6746
   71SLPC  C314 6223   2.280   6.266   8.741 -0.0768  0.1417 -0.3813
   71SLPC  H14X 6224   2.245   6.207   8.654  0.9029 -0.8755 -0.1071
   71SLPC  H14Y 6225   2.374   6.212   8.763 -0.2222  0.1799  0.3457
   71SLPC  C315 6226   2.312   6.415   8.705 -0.4875  0.5590  0.5958
   71SLPC  H15X 6227   2.378   6.412   8.616  0.0801  0.9411  0.9937
   71SLPC  H15Y 6228   2.375   6.455   8.787 -1.0970 -0.5406  1.6470
   71SLPC  C316 6229   2.193   6.505   8.670 -0.6538  1.0830  0.0383
   71SLPC  H16X 6230   2.163   6.551   8.767  2.0892  1.1312  0.9288
   71SLPC  H16Y 6231   2.106   6.447   8.632  0.9161  0.8547 -3.6736
   71SLPC  C317 6232   2.228   6.612   8.564  0.3374  0.3300  0.2162
   71SLPC  H17X 6233   2.134   6.668   8.544 -0.9589 -1.9701 -0.4610
   71SLPC  H17Y 6234   2.244   6.568   8.464  3.3967  0.0011  0.7550
   71SLPC  C318 6235   2.355   6.697   8.583 -0.2077  0.4549 -0.3104
   71SLPC  H18X 6236   2.367   6.776   8.506  2.4470  0.7081  0.2454
   71SLPC  H18Y 6237   2.445   6.633   8.574 -1.3100 -0.9876 -1.5344
   71SLPC  H18Z 6238   2.345   6.750   8.680 -0.6441  1.2981 -0.8000
   72SLPC     N 6239   3.045   4.505  11.195 -0.1537  0.3911 -0.0532
   72SLPC   C13 6240   3.014   4.648  11.204  0.4746  0.3578 -0.3297
   72SLPC  H13A 6241   3.086   4.696  11.139  1.2774 -1.3987 -0.7956
   72SLPC  H13B 6242   2.912   4.668  11.172  0.0509 -1.4917 -0.2534
   72SLPC  H13C 6243   3.023   4.691  11.302  0.5645  1.1738 -0.6821
   72SLPC   C14 6244   3.000   4.455  11.055 -0.1395  0.5961 -0.2824
   72SLPC  H14A 6245   3.020   4.528  10.979  0.6501 -1.0530 -1.7263
   72SLPC  H14B 6246   3.046   4.361  11.026 -1.0335  0.0396  0.0477
   72SLPC  H14C 6247   2.892   4.450  11.059 -0.0752 -0.8894  0.6896
   72SLPC   C15 6248   2.973   4.429  11.304 -0.6164 -0.8583 -0.9643
   72SLPC  H15A 6249   2.866   4.448  11.303 -0.5623 -0.2536  0.9968
   72SLPC  H15B 6250   3.008   4.328  11.297  1.0894 -0.5278  1.6107
   72SLPC  H15C 6251   3.013   4.465  11.398 -0.0649 -0.9552 -1.1596
   72SLPC   C12 6252   3.198   4.482  11.209  0.5140 -0.5079 -0.0028
   72SLPC  H12A 6253   3.213   4.375  11.209  1.1158 -0.4674 -2.2268
   72SLPC  H12B 6254   3.223   4.528  11.303  0.2445  1.2945 -0.7836
   72SLPC   C11 6255   3.286   4.548  11.100  0.2445  0.0439  1.0318
   72SLPC  H11A 6256   3.389   4.556  11.139  0.7543  0.1442 -0.2733
   72SLPC  H11B 6257   3.255   4.652  11.075  2.6670  0.2542 -1.6165
   72SLPC     P 6258   3.363   4.338  10.973 -0.0830 -0.0825 -0.5942
   72SLPC   O13 6259   3.495   4.361  11.033  0.5285 -0.2008  0.0602
   72SLPC   O14 6260   3.290   4.218  11.012  0.3388  0.5146 -0.1079
   72SLPC   O12 6261   3.277   4.472  10.979  0.1297 -0.0563 -0.5063
   72SLPC   O11 6262   3.398   4.319  10.817  0.6685  0.1689 -0.4009
   72SLPC    C1 6263   3.303   4.353  10.720 -0.2068 -0.6757 -0.2379
   72SLPC    HA 6264   3.199   4.357  10.757 -0.8815 -1.7505 -1.8948
   72SLPC    HB 6265   3.333   4.451  10.678  1.4833 -0.3592  1.5741
   72SLPC    C2 6266   3.311   4.243  10.613 -0.0642 -0.4830 -0.3993
   72SLPC    HS 6267   3.317   4.145  10.666  3.4182 -0.1839  0.0129
   72SLPC   O21 6268   3.428   4.262  10.541 -0.0152  0.1888  0.3400
   72SLPC   C21 6269   3.486   4.155  10.503 -0.5370  0.0364  0.5133
   72SLPC   O22 6270   3.452   4.042  10.529  0.0988  0.6310  0.9806
   72SLPC   C22 6271   3.606   4.178  10.417 -0.4679 -0.1911  0.1618
   72SLPC   H2R 6272   3.681   4.237  10.474 -0.2395 -1.3352  1.0862
   72SLPC   H2S 6273   3.648   4.085  10.373 -0.6885  1.8482 -5.0869
   72SLPC    C3 6274   3.186   4.239  10.525 -0.4016 -0.4471 -0.3679
   72SLPC    HX 6275   3.099   4.229  10.594 -0.3576  0.9422 -0.0920
   72SLPC    HY 6276   3.200   4.154  10.454  0.7111  2.0323 -3.3703
   72SLPC   O31 6277   3.177   4.366  10.453  0.1829  0.5471 -0.1483
   72SLPC   C31 6278   3.063   4.366  10.372 -0.2083 -0.3178  0.0049
   72SLPC   O32 6279   2.975   4.284  10.383  0.0805  0.4704 -0.5495
   72SLPC   C32 6280   3.068   4.485  10.279 -0.1059  0.4590 -0.6228
   72SLPC   H2X 6281   3.169   4.531  10.291 -0.7683  1.7638  0.1322
   72SLPC   H2Y 6282   2.991   4.562  10.298 -0.9294 -0.0559 -1.7509
   72SLPC   C23 6283   3.576   4.263  10.293  0.0940 -0.7043  0.0384
   72SLPC   H3R 6284   3.667   4.310  10.251 -1.2780  1.2256 -0.9536
   72SLPC   H3S 6285   3.513   4.349  10.324  0.5218  0.0662 -1.1736
   72SLPC   C24 6286   3.493   4.196  10.180 -0.2168  0.1144 -0.0628
   72SLPC   H4R 6287   3.437   4.269  10.119  0.0335 -0.3800 -0.8905
   72SLPC   H4S 6288   3.409   4.137  10.224 -1.7502  2.7493  0.7738
   72SLPC   C25 6289   3.585   4.107  10.094 -0.5193  0.8537 -0.1711
   72SLPC   H5R 6290   3.646   4.042  10.162  0.8298  0.5654 -1.6068
   72SLPC   H5S 6291   3.657   4.177  10.048 -0.9155  3.0777  2.3419
   72SLPC   C26 6292   3.513   4.013   9.996  0.6620  0.3635  0.9054
   72SLPC   H6R 6293   3.440   3.954  10.054  2.5181 -2.4280  0.5998
   72SLPC   H6S 6294   3.583   3.939   9.950  0.4652  1.1265 -0.7114
   72SLPC   C27 6295   3.427   4.097   9.891 -0.4422  0.3971  0.1230
   72SLPC   H7R 6296   3.366   4.169   9.951 -0.8504 -0.1011  0.3115
   72SLPC   H7S 6297   3.355   4.028   9.841 -0.8847  2.4369 -2.2531
   72SLPC   C28 6298   3.514   4.166   9.784  0.0615 -0.4370  0.1956
   72SLPC   H8R 6299   3.578   4.093   9.728  1.3755 -0.9671  2.2869
   72SLPC   H8S 6300   3.591   4.220   9.842  0.8430  1.2293 -2.2227
   72SLPC   C29 6301   3.430   4.262   9.697  0.5481 -0.0871 -0.1106
   72SLPC   H9R 6302   3.353   4.319   9.750  0.5840 -0.5618  0.4549
   72SLPC  C210 6303   3.431   4.271   9.563  0.5034  0.2379 -0.1539
   72SLPC  H10R 6304   3.358   4.332   9.508  1.1635  0.2281 -1.0630
   72SLPC  C211 6305   3.508   4.193   9.460 -0.4932  0.2832 -0.0495
   72SLPC  H11R 6306   3.428   4.129   9.415 -0.7624 -0.8113  1.8634
   72SLPC  H11S 6307   3.576   4.126   9.518  0.3337  1.5746  0.5031
   72SLPC  C212 6308   3.600   4.263   9.359 -0.3135  0.5486 -0.1642
   72SLPC  H12R 6309   3.705   4.231   9.369 -0.1890  0.7165 -0.9188
   72SLPC  C213 6310   3.572   4.361   9.265 -0.3119 -0.4658  0.0831
   72SLPC  H13R 6311   3.654   4.416   9.216  0.0289  2.7232  3.7175
   72SLPC  C214 6312   3.439   4.431   9.237  0.1512  0.9637  0.9364
   72SLPC  H14R 6313   3.365   4.404   9.316  0.5139 -0.3473  0.8377
   72SLPC  H14S 6314   3.411   4.401   9.134  0.6295  0.1537  1.0375
   72SLPC  C215 6315   3.455   4.583   9.236  0.7325 -0.2484 -0.2620
   72SLPC  H15R 6316   3.529   4.611   9.315 -0.1520 -0.4062  0.6293
   72SLPC  H15S 6317   3.355   4.629   9.244  1.1705  0.7003 -0.0766
   72SLPC  C216 6318   3.503   4.623   9.096  0.4682  0.9428 -0.6395
   72SLPC  H16R 6319   3.432   4.570   9.029 -1.5499 -0.1990  2.2127
   72SLPC  H16S 6320   3.602   4.580   9.069  0.5530  0.2803  0.6647
   72SLPC  C217 6321   3.503   4.774   9.055  0.0365 -0.0031 -0.1725
   72SLPC  H17R 6322   3.578   4.833   9.111  0.3865 -1.0546  0.5081
   72SLPC  H17S 6323   3.396   4.804   9.067 -0.1426  0.1657 -1.9842
   72SLPC  C218 6324   3.537   4.791   8.905  0.4799 -0.3440  0.1510
   72SLPC  H18R 6325   3.633   4.743   8.878  1.3039  0.3436  1.6757
   72SLPC  H18S 6326   3.536   4.898   8.876 -0.0673  0.1893  1.9648
   72SLPC  H18T 6327   3.452   4.761   8.841  1.6166 -0.3867 -1.3864
   72SLPC   C33 6328   3.058   4.445  10.128 -0.0368  0.8774 -0.0814
   72SLPC   H3X 6329   2.963   4.388  10.119 -0.5801  1.8084 -0.3466
   72SLPC   H3Y 6330   3.147   4.394  10.085  0.7208  3.7790 -2.2245
   72SLPC   C34 6331   3.050   4.572  10.037 -0.4159  0.6147 -0.0389
   72SLPC   H4X 6332   3.139   4.639  10.038  1.2182 -1.3284 -2.4225
   72SLPC   H4Y 6333   2.966   4.632  10.079  0.4572  1.3627  0.6949
   72SLPC   C35 6334   3.032   4.532   9.890 -0.0700  0.3017 -0.6914
   72SLPC   H5X 6335   2.943   4.466   9.883  0.8402 -1.1798  1.1642
   72SLPC   H5Y 6336   3.122   4.478   9.855  1.5644  1.8405  0.9097
   72SLPC   C36 6337   3.004   4.647   9.788  0.3208 -0.3852 -0.3751
   72SLPC   H6X 6338   3.096   4.707   9.773 -0.9887  1.5608 -0.9284
   72SLPC   H6Y 6339   2.921   4.715   9.819  1.7512  2.7760 -2.9012
   72SLPC   C37 6340   2.980   4.588   9.649  0.1043 -0.0922  0.1874
   72SLPC   H7X 6341   2.884   4.532   9.648 -0.2745  0.4657  1.5817
   72SLPC   H7Y 6342   3.058   4.513   9.624  1.9625  1.6652  0.4573
   72SLPC   C38 6343   2.960   4.707   9.558  0.3254  0.2433 -0.4668
   72SLPC   H8X 6344   3.046   4.777   9.568 -1.2449  1.9936  2.8128
   72SLPC   H8Y 6345   2.870   4.757   9.601  0.5374  0.2771 -0.0599
   72SLPC   C39 6346   2.948   4.666   9.405 -0.3409 -0.3862  0.1333
   72SLPC   H9X 6347   2.845   4.627   9.390 -0.7406  0.0800  1.5855
   72SLPC   H9Y 6348   3.015   4.579   9.384 -0.4357 -0.4731  0.1925
   72SLPC  C310 6349   2.983   4.774   9.304  0.3477 -0.4816  0.9493
   72SLPC  H10X 6350   3.091   4.801   9.307  0.6252 -1.4498  0.2620
   72SLPC  H10Y 6351   2.925   4.865   9.327 -0.9913 -1.1952  0.4799
   72SLPC  C311 6352   2.946   4.750   9.159 -0.0171 -0.2409  0.5335
   72SLPC  H11X 6353   2.836   4.759   9.170 -0.1293 -1.1784  0.2933
   72SLPC  H11Y 6354   2.963   4.651   9.111  1.3458  1.1933 -2.1388
   72SLPC  C312 6355   2.992   4.859   9.068  0.0359 -0.0283  0.6881
   72SLPC  H12X 6356   3.100   4.850   9.048  0.0667  1.7722 -0.1047
   72SLPC  H12Y 6357   2.987   4.960   9.115  0.4256  0.2955  0.0479
   72SLPC  C313 6358   2.919   4.862   8.934 -0.4896 -0.5002 -0.3008
   72SLPC  H13X 6359   2.810   4.870   8.957 -0.7246  0.0940 -1.5407
   72SLPC  H13Y 6360   2.932   4.761   8.890 -0.5577 -1.1607  1.1185
   72SLPC  C314 6361   2.965   4.975   8.835  0.3671 -0.1610 -0.3534
   72SLPC  H14X 6362   2.957   5.071   8.892 -1.6305  0.2357 -1.2075
   72SLPC  H14Y 6363   2.912   4.979   8.737  0.3104 -2.8334 -0.5000
   72SLPC  C315 6364   3.110   4.965   8.808 -0.7567 -0.1153 -0.5828
   72SLPC  H15X 6365   3.140   4.863   8.775  0.0931  0.6835 -2.4249
   72SLPC  H15Y 6366   3.174   4.985   8.896  1.0553 -0.4736 -1.7677
   72SLPC  C316 6367   3.160   5.065   8.703  0.1809  0.0174 -0.4241
   72SLPC  H16X 6368   3.121   5.164   8.736  2.2780  0.9465 -0.5916
   72SLPC  H16Y 6369   3.114   5.039   8.605 -2.1800 -1.2697  0.9430
   72SLPC  C317 6370   3.314   5.075   8.694  0.4854  0.3899 -0.0611
   72SLPC  H17X 6371   3.366   5.034   8.783  0.2827  1.3604  0.5206
   72SLPC  H17Y 6372   3.346   5.179   8.669  0.2492  0.6440  0.6823
   72SLPC  C318 6373   3.360   4.994   8.571  0.0573 -0.2686  0.0296
   72SLPC  H18X 6374   3.471   5.005   8.562  0.0898 -0.1314  0.5811
   72SLPC  H18Y 6375   3.316   5.032   8.476 -0.6372 -1.5755 -0.1914
   72SLPC  H18Z 6376   3.328   4.890   8.588 -0.5574 -0.2502 -0.9481
   73SLPC     N 6377   4.061   1.597  11.352 -0.1617 -0.0927 -0.3017
   73SLPC   C13 6378   4.125   1.637  11.484  0.1646 -0.2674  0.1695
   73SLPC  H13A 6379   4.087   1.579  11.567  1.8453  0.1642  1.2870
   73SLPC  H13B 6380   4.233   1.635  11.479  0.1532 -2.6686 -0.0924
   73SLPC  H13C 6381   4.088   1.736  11.509 -1.9004 -0.4058 -1.9767
   73SLPC   C14 6382   3.913   1.623  11.364 -0.6948  0.1237 -0.4200
   73SLPC  H14A 6383   3.898   1.729  11.353  2.9192  0.9442  1.0796
   73SLPC  H14B 6384   3.861   1.580  11.279  1.3125  0.6986 -2.0408
   73SLPC  H14C 6385   3.874   1.587  11.458  1.1024  0.2137  0.3875
   73SLPC   C15 6386   4.070   1.443  11.338  0.3441 -0.6510  0.0471
   73SLPC  H15A 6387   4.173   1.413  11.345  1.2289  2.0874  0.1795
   73SLPC  H15B 6388   4.008   1.398  11.414 -0.1966 -4.4415 -2.3929
   73SLPC  H15C 6389   4.019   1.409  11.248 -0.8247  0.0084  0.4350
   73SLPC   C12 6390   4.115   1.664  11.233  0.0215 -0.5228 -0.0318
   73SLPC  H12A 6391   4.069   1.632  11.140  3.0349 -0.5007 -1.6496
   73SLPC  H12B 6392   4.214   1.627  11.211  1.4140  1.5294  2.2243
   73SLPC   C11 6393   4.124   1.825  11.230 -0.5573  0.3321  0.2732
   73SLPC  H11A 6394   4.190   1.864  11.149 -0.3961  0.5027  0.4870
   73SLPC  H11B 6395   4.161   1.850  11.331 -0.1769 -0.9012  0.4529
   73SLPC     P 6396   3.923   1.917  11.102 -0.2486  0.2547  0.2516
   73SLPC   O13 6397   3.784   1.866  11.096  0.2553 -0.2209 -0.0502
   73SLPC   O14 6398   3.929   2.066  11.094  0.2848 -0.0520  0.4553
   73SLPC   O12 6399   3.993   1.879  11.237  0.6423  0.9212 -0.0738
   73SLPC   O11 6400   4.002   1.859  10.985  0.3614  0.9595 -0.0445
   73SLPC    C1 6401   4.000   1.923  10.856 -0.3768 -0.4300  0.1969
   73SLPC    HA 6402   4.041   2.026  10.861  0.2197 -0.6902  0.7666
   73SLPC    HB 6403   4.063   1.854  10.795  0.4846 -2.8438  3.5106
   73SLPC    C2 6404   3.860   1.932  10.775 -0.7182  0.5350 -0.1157
   73SLPC    HS 6405   3.798   2.009  10.827 -1.8720 -1.5658  1.8054
   73SLPC   O21 6406   3.794   1.800  10.779  0.6426  0.0642 -0.3848
   73SLPC   C21 6407   3.662   1.809  10.751  0.0729 -0.1469 -0.3683
   73SLPC   O22 6408   3.595   1.911  10.735 -0.5832  0.3521  0.6278
   73SLPC   C22 6409   3.605   1.675  10.757  0.0428  0.5263 -1.1270
   73SLPC   H2R 6410   3.695   1.610  10.759  0.3370  0.9258 -1.1936
   73SLPC   H2S 6411   3.564   1.659  10.858  0.6778  0.8583 -0.8081
   73SLPC    C3 6412   3.889   1.986  10.635  0.0776  0.4030 -0.9944
   73SLPC    HX 6413   3.907   1.900  10.567  1.0035 -2.6399  2.7054
   73SLPC    HY 6414   3.987   2.037  10.646 -0.0315  0.7420 -1.6018
   73SLPC   O31 6415   3.792   2.081  10.590  0.2647 -0.8112  0.2102
   73SLPC   C31 6416   3.758   2.063  10.462  0.0467  0.2816 -0.4830
   73SLPC   O32 6417   3.802   1.979  10.384  0.7380  0.0261  0.7128
   73SLPC   C32 6418   3.644   2.146  10.419 -0.2330 -0.6125  0.1715
   73SLPC   H2X 6419   3.688   2.219  10.348 -0.0547 -1.2733 -0.4145
   73SLPC   H2Y 6420   3.615   2.197  10.513 -0.3178  1.3163 -0.8477
   73SLPC   C23 6421   3.491   1.653  10.651 -0.4917 -0.5531  0.4772
   73SLPC   H3R 6422   3.408   1.724  10.666  0.0669 -0.0737  1.3951
   73SLPC   H3S 6423   3.459   1.547  10.666 -0.7189 -1.1381 -3.3071
   73SLPC   C24 6424   3.543   1.661  10.503 -1.1778  0.0202 -0.1349
   73SLPC   H4R 6425   3.614   1.577  10.489 -0.6258  0.4273  0.1916
   73SLPC   H4S 6426   3.580   1.758  10.466 -2.0140  0.0553 -0.9117
   73SLPC   C25 6427   3.445   1.613  10.393 -0.2979 -0.5379 -0.4944
   73SLPC   H5R 6428   3.369   1.691  10.371 -0.1135 -0.8150 -2.2834
   73SLPC   H5S 6429   3.380   1.536  10.439 -1.0264 -1.0980 -2.3757
   73SLPC   C26 6430   3.510   1.571  10.258  0.5110 -0.6431  0.1100
   73SLPC   H6R 6431   3.614   1.540  10.281  0.2180 -1.1387  0.7942
   73SLPC   H6S 6432   3.524   1.662  10.197 -1.8563 -0.1545  0.1899
   73SLPC   C27 6433   3.417   1.485  10.165 -0.0065 -0.1040 -0.3474
   73SLPC   H7R 6434   3.407   1.389  10.220 -1.8336 -0.2476 -0.8412
   73SLPC   H7S 6435   3.477   1.466  10.074  0.2274 -1.5818  0.0809
   73SLPC   C28 6436   3.291   1.563  10.128 -0.7814 -0.5609 -0.3677
   73SLPC   H8R 6437   3.229   1.587  10.217 -0.7560  0.3164 -0.5818
   73SLPC   H8S 6438   3.226   1.485  10.081 -0.0083 -1.6510  0.3328
   73SLPC   C29 6439   3.315   1.682  10.040  0.3956 -0.2779  0.4008
   73SLPC   H9R 6440   3.357   1.771  10.090 -0.1683 -1.3568  2.9215
   73SLPC  C210 6441   3.260   1.704   9.914  1.0493  0.5028  0.0616
   73SLPC  H10R 6442   3.287   1.803   9.875  1.9070  0.4458  0.4779
   73SLPC  C211 6443   3.167   1.618   9.841 -0.2030  0.0876  0.1570
   73SLPC  H11R 6444   3.112   1.673   9.761  3.2848  0.4346 -2.2219
   73SLPC  H11S 6445   3.079   1.583   9.899  0.1325 -1.3024 -0.1240
   73SLPC  C212 6446   3.225   1.493   9.787 -0.4952  0.1528  0.0330
   73SLPC  H12R 6447   3.236   1.409   9.856 -0.2188  1.3816  1.5358
   73SLPC  C213 6448   3.261   1.474   9.657  0.1388  0.0104 -0.0021
   73SLPC  H13R 6449   3.310   1.379   9.632 -1.1546 -0.5518 -0.4822
   73SLPC  C214 6450   3.244   1.580   9.548  0.2425 -0.1972 -0.1691
   73SLPC  H14R 6451   3.275   1.676   9.594  0.6996  1.0986 -2.9763
   73SLPC  H14S 6452   3.137   1.586   9.518  0.7149  2.6625 -1.6188
   73SLPC  C215 6453   3.334   1.554   9.424 -0.7906 -0.0084  0.4381
   73SLPC  H15R 6454   3.344   1.445   9.403 -1.0093 -0.1723  1.1440
   73SLPC  H15S 6455   3.437   1.591   9.444 -0.6686 -0.3140  0.3752
   73SLPC  C216 6456   3.293   1.628   9.295 -0.1539 -0.6248 -0.1951
   73SLPC  H16R 6457   3.372   1.591   9.226  3.0729  1.3696  2.1004
   73SLPC  H16S 6458   3.319   1.736   9.302  2.3528 -1.1569 -0.3816
   73SLPC  C217 6459   3.144   1.615   9.253  0.1204 -0.1597 -0.7023
   73SLPC  H17R 6460   3.137   1.663   9.153 -1.2371  0.2763 -0.4062
   73SLPC  H17S 6461   3.075   1.671   9.319  0.8508 -1.4970  1.2980
   73SLPC  C218 6462   3.104   1.466   9.254  0.9781  0.1356 -0.1221
   73SLPC  H18R 6463   3.164   1.410   9.179  0.3244  0.0200 -0.5604
   73SLPC  H18S 6464   3.005   1.467   9.205  0.5866 -0.0982  0.6462
   73SLPC  H18T 6465   3.118   1.423   9.356  0.2506  0.3648  0.0802
   73SLPC   C33 6466   3.520   2.068  10.360  0.3935  0.3672  0.3384
   73SLPC   H3X 6467   3.436   2.141  10.350  1.5275  1.8549  1.2512
   73SLPC   H3Y 6468   3.491   1.988  10.430  0.7949  1.6323  2.0073
   73SLPC   C34 6469   3.537   2.003  10.217 -0.2084 -0.4935  0.6744
   73SLPC   H4X 6470   3.473   1.912  10.211  0.8118 -1.1306 -2.1117
   73SLPC   H4Y 6471   3.645   1.977  10.210  0.4244  2.0940 -0.3506
   73SLPC   C35 6472   3.487   2.096  10.109 -0.3630 -0.3728  0.0375
   73SLPC   H5X 6473   3.527   2.194  10.142 -1.0115  0.2706 -1.0018
   73SLPC   H5Y 6474   3.376   2.107  10.102 -0.4891 -1.4535  0.1900
   73SLPC   C36 6475   3.552   2.067   9.975  0.2169  0.7620  0.1739
   73SLPC   H6X 6476   3.555   1.961   9.941 -0.8814  0.8131 -0.1045
   73SLPC   H6Y 6477   3.660   2.093   9.990  0.4480 -0.4269  0.6782
   73SLPC   C37 6478   3.502   2.161   9.868  0.2398  0.0151  0.0673
   73SLPC   H7X 6479   3.514   2.262   9.912 -0.6832  0.8301 -1.4780
   73SLPC   H7Y 6480   3.391   2.154   9.860  0.2097 -0.4168  0.7308
   73SLPC   C38 6481   3.579   2.152   9.731 -0.1690 -0.0432  0.4225
   73SLPC   H8X 6482   3.688   2.138   9.752  0.3333  3.0564  0.2655
   73SLPC   H8Y 6483   3.571   2.251   9.683 -0.4360 -0.1647  0.2148
   73SLPC   C39 6484   3.528   2.044   9.634 -0.6091 -0.1855  0.7490
   73SLPC   H9X 6485   3.436   2.088   9.588  0.1061  0.4250 -0.1291
   73SLPC   H9Y 6486   3.512   1.944   9.678 -3.1526 -1.7059 -3.0354
   73SLPC  C310 6487   3.628   2.031   9.521 -0.5881 -0.4765  0.7513
   73SLPC  H10X 6488   3.725   2.001   9.566 -0.8955 -2.7253 -0.0016
   73SLPC  H10Y 6489   3.643   2.135   9.484 -2.2204 -0.7719 -0.8806
   73SLPC  C311 6490   3.612   1.934   9.405  0.1373  0.0407 -0.2948
   73SLPC  H11X 6491   3.530   1.861   9.423 -0.8280  0.9113 -0.9961
   73SLPC  H11Y 6492   3.708   1.879   9.395  1.1462  1.7901 -0.5762
   73SLPC  C312 6493   3.601   2.003   9.266 -0.1410 -0.1715  0.1401
   73SLPC  H12X 6494   3.667   1.946   9.198 -1.7430  0.6159 -2.1899
   73SLPC  H12Y 6495   3.638   2.107   9.260 -0.2258 -0.0913  0.9104
   73SLPC  C313 6496   3.452   1.993   9.210  0.4997 -0.4976 -0.1313
   73SLPC  H13X 6497   3.401   2.038   9.298 -1.9426 -0.0104 -1.7094
   73SLPC  H13Y 6498   3.416   1.893   9.179 -0.5524  0.0144 -0.5986
   73SLPC  C314 6499   3.427   2.093   9.089 -0.2897 -0.3054 -0.1673
   73SLPC  H14X 6500   3.483   2.188   9.105 -2.1546  1.3130 -2.4240
   73SLPC  H14Y 6501   3.322   2.125   9.107 -0.6693 -1.5664 -0.0695
   73SLPC  C315 6502   3.455   2.028   8.954 -0.1365  0.8425  0.0197
   73SLPC  H15X 6503   3.379   1.946   8.947  0.9512 -0.3265  1.2869
   73SLPC  H15Y 6504   3.554   1.978   8.958 -0.5671  0.0050  3.0756
   73SLPC  C316 6505   3.410   2.114   8.829 -0.2986 -0.2567 -0.3302
   73SLPC  H16X 6506   3.478   2.202   8.830  3.3297 -2.8332 -0.8710
   73SLPC  H16Y 6507   3.308   2.156   8.843  0.1832  3.4409 -5.0061
   73SLPC  C317 6508   3.414   2.043   8.691 -0.5362 -0.1176 -0.2178
   73SLPC  H17X 6509   3.327   1.974   8.682  0.0685 -1.5722  3.2368
   73SLPC  H17Y 6510   3.509   1.991   8.670 -0.9041 -1.0855  0.4473
   73SLPC  C318 6511   3.388   2.154   8.595  0.0254 -0.1812 -0.6595
   73SLPC  H18X 6512   3.372   2.113   8.493 -2.1288 -0.8637 -0.1009
   73SLPC  H18Y 6513   3.464   2.235   8.600  0.0867 -0.3019  0.4812
   73SLPC  H18Z 6514   3.291   2.196   8.629 -0.4893 -0.2453 -1.9647
   74SLPC     N 6515   4.834   3.941  10.939 -0.1668 -0.1619  0.3616
   74SLPC   C13 6516   4.737   3.847  10.999  0.0479  0.5733  0.2868
   74SLPC  H13A 6517   4.653   3.899  11.042 -1.0302  1.3196 -2.5383
   74SLPC  H13B 6518   4.693   3.783  10.924  0.3849 -0.3780  0.8704
   74SLPC  H13C 6519   4.785   3.793  11.080 -0.6522  0.3060  0.5305
   74SLPC   C14 6520   4.946   3.861  10.880 -0.2402  0.3540 -0.2777
   74SLPC  H14A 6521   5.004   3.927  10.817  0.7213  0.6114  0.8429
   74SLPC  H14B 6522   5.013   3.816  10.952  0.4378 -0.0883 -1.1698
   74SLPC  H14C 6523   4.926   3.782  10.810  0.0977 -1.1209  1.2306
   74SLPC   C15 6524   4.888   4.028  11.044  0.4712  0.1981 -0.2085
   74SLPC  H15A 6525   4.952   3.978  11.116  1.0587 -0.7475 -1.3490
   74SLPC  H15B 6526   4.949   4.108  11.006  2.5918  0.2108  2.8760
   74SLPC  H15C 6527   4.806   4.083  11.087 -0.4499  0.4998 -2.2415
   74SLPC   C12 6528   4.764   4.022  10.831 -0.3955 -0.2005  0.1684
   74SLPC  H12A 6529   4.721   3.951  10.762 -2.8421  1.3559 -0.0267
   74SLPC  H12B 6530   4.841   4.078  10.780 -0.4455  0.4285  0.7678
   74SLPC   C11 6531   4.650   4.111  10.878 -0.2279  0.2828 -0.0196
   74SLPC  H11A 6532   4.627   4.174  10.789 -2.0945 -2.7792 -1.9051
   74SLPC  H11B 6533   4.688   4.184  10.953  1.8010 -1.2175  0.4792
   74SLPC     P 6534   4.431   3.961  10.826 -0.4090 -0.3688  0.0876
   74SLPC   O13 6535   4.496   3.837  10.781  0.2322 -0.3546 -0.0624
   74SLPC   O14 6536   4.302   3.944  10.897  0.3270 -0.0690 -0.6453
   74SLPC   O12 6537   4.536   4.035  10.923  0.4219  0.6250 -0.5890
   74SLPC   O11 6538   4.403   4.058  10.706  0.0535 -0.0599 -0.2800
   74SLPC    C1 6539   4.365   4.198  10.744  0.4202  0.5208  0.1806
   74SLPC    HA 6540   4.353   4.209  10.854  4.9765 -1.4851  1.1176
   74SLPC    HB 6541   4.449   4.264  10.715  2.4039 -2.5841 -1.7112
   74SLPC    C2 6542   4.241   4.252  10.675  0.0139 -0.4734 -0.9674
   74SLPC    HS 6543   4.158   4.190  10.713  1.7223 -3.0816 -1.2293
   74SLPC   O21 6544   4.251   4.234  10.536 -0.0019 -0.0672  0.2292
   74SLPC   C21 6545   4.150   4.256  10.460  0.2576 -1.1843  0.0345
   74SLPC   O22 6546   4.034   4.276  10.493 -0.1157  0.3061  0.2100
   74SLPC   C22 6547   4.209   4.255  10.317 -0.8551 -0.5458  0.6229
   74SLPC   H2R 6548   4.242   4.359  10.297  4.3993 -1.9345  0.7043
   74SLPC   H2S 6549   4.294   4.183  10.315  0.0359  0.4780  0.9888
   74SLPC    C3 6550   4.216   4.402  10.713  0.0342 -0.1373 -0.4780
   74SLPC    HX 6551   4.222   4.413  10.824 -1.0950  0.2480 -0.4341
   74SLPC    HY 6552   4.109   4.419  10.687 -0.6588 -0.8367  1.7086
   74SLPC   O31 6553   4.302   4.502  10.654 -0.2020 -0.4166 -0.0027
   74SLPC   C31 6554   4.251   4.569  10.549 -0.6568  0.6909 -0.5176
   74SLPC   O32 6555   4.143   4.550  10.497  0.0932  0.6176  0.2958
   74SLPC   C32 6556   4.354   4.669  10.497  0.0740 -0.4410 -0.0996
   74SLPC   H2X 6557   4.430   4.599  10.454 -0.6819 -2.0418  1.0596
   74SLPC   H2Y 6558   4.394   4.720  10.587  1.8311 -2.5071  0.3827
   74SLPC   C23 6559   4.105   4.214  10.209 -0.4956  0.2277 -0.2015
   74SLPC   H3R 6560   4.065   4.122  10.256  1.2816  0.6105  2.2636
   74SLPC   H3S 6561   4.148   4.194  10.109 -2.7672 -0.7559 -1.0613
   74SLPC   C24 6562   3.994   4.312  10.187  0.5126 -0.0196  0.1454
   74SLPC   H4R 6563   4.052   4.405  10.169  0.0306  0.2663  0.0432
   74SLPC   H4S 6564   3.929   4.341  10.272 -0.1092 -0.3945 -0.1878
   74SLPC   C25 6565   3.907   4.280  10.064 -0.1420  0.5157 -0.1895
   74SLPC   H5R 6566   3.814   4.334  10.092 -0.0585  0.5936 -0.0621
   74SLPC   H5S 6567   3.888   4.170  10.060  1.2912  0.2884 -2.0153
   74SLPC   C26 6568   3.965   4.325   9.930  0.0738  0.3867 -0.3790
   74SLPC   H6R 6569   3.902   4.276   9.853 -2.6185  0.8004  1.4418
   74SLPC   H6S 6570   4.070   4.290   9.918  0.4069  0.8986  0.8725
   74SLPC   C27 6571   3.959   4.479   9.896 -0.0564 -0.1774 -0.3157
   74SLPC   H7R 6572   4.034   4.530   9.961 -0.8760 -0.4404  0.8748
   74SLPC   H7S 6573   3.854   4.510   9.913  0.2000 -0.2347  1.6443
   74SLPC   C28 6574   3.992   4.493   9.745 -0.2105  0.6469  0.5087
   74SLPC   H8R 6575   4.071   4.420   9.716 -0.4681  0.7534 -0.4602
   74SLPC   H8S 6576   4.038   4.590   9.718  1.3309 -0.2294 -0.1493
   74SLPC   C29 6577   3.874   4.463   9.661  1.0324 -0.3311  0.5090
   74SLPC   H9R 6578   3.779   4.441   9.711  0.6628 -0.8832 -0.4039
   74SLPC  C210 6579   3.877   4.469   9.531  0.1080 -0.2255 -0.0081
   74SLPC  H10R 6580   3.791   4.416   9.485  1.7163 -1.9207 -1.2162
   74SLPC  C211 6581   4.001   4.494   9.445 -0.2593 -0.7524  0.2122
   74SLPC  H11R 6582   4.031   4.393   9.409 -0.1528 -0.6323 -0.0362
   74SLPC  H11S 6583   4.084   4.535   9.507 -0.7659 -0.2277  0.5501
   74SLPC  C212 6584   3.956   4.586   9.332  0.0402  0.4065 -0.4033
   74SLPC  H12R 6585   3.929   4.689   9.362 -1.1075  0.3428 -1.1310
   74SLPC  C213 6586   3.944   4.542   9.208  0.0465  0.3772  0.1808
   74SLPC  H13R 6587   3.912   4.613   9.130 -1.7077 -0.3671  0.1646
   74SLPC  C214 6588   3.984   4.405   9.156  0.6342  1.0072 -0.7683
   74SLPC  H14R 6589   3.915   4.329   9.200 -0.3703  1.7847 -0.9414
   74SLPC  H14S 6590   4.082   4.381   9.201  1.5086  1.7784 -2.1930
   74SLPC  C215 6591   3.995   4.375   9.004 -0.2162  0.0066 -0.4229
   74SLPC  H15R 6592   4.054   4.283   8.985 -2.4073 -1.4258 -0.5558
   74SLPC  H15S 6593   4.058   4.460   8.968 -0.2266 -0.1106 -0.7232
   74SLPC  C216 6594   3.860   4.378   8.931 -0.1726  0.3750 -0.7609
   74SLPC  H16R 6595   3.810   4.470   8.970  1.5076  0.6832  0.7753
   74SLPC  H16S 6596   3.807   4.282   8.949  0.8939 -0.0276  0.3824
   74SLPC  C217 6597   3.876   4.399   8.786 -1.4779 -0.6524  0.4354
   74SLPC  H17R 6598   3.776   4.388   8.740 -1.1633 -0.1238 -0.3854
   74SLPC  H17S 6599   3.936   4.313   8.749 -0.7005 -0.7374  1.8278
   74SLPC  C218 6600   3.936   4.536   8.739 -0.3441 -0.0021 -0.7247
   74SLPC  H18R 6601   4.046   4.541   8.754 -0.2838 -3.4795  1.0225
   74SLPC  H18S 6602   3.878   4.620   8.782 -0.3987 -1.1205  1.5377
   74SLPC  H18T 6603   3.931   4.524   8.629  2.1321  0.9716 -1.0286
   74SLPC   C33 6604   4.297   4.774  10.402  0.5758 -0.4762  0.1025
   74SLPC   H3X 6605   4.361   4.865  10.401  1.7027 -1.2324  0.9326
   74SLPC   H3Y 6606   4.207   4.829  10.438  0.8708  1.3761 -1.7792
   74SLPC   C34 6607   4.270   4.725  10.252 -0.2956  0.1128  0.0775
   74SLPC   H4X 6608   4.197   4.642  10.260 -1.8102  1.4282  0.3470
   74SLPC   H4Y 6609   4.370   4.691  10.218 -0.3595  0.2491 -0.2456
   74SLPC   C35 6610   4.200   4.839  10.173 -0.1906 -0.0369 -1.0725
   74SLPC   H5X 6611   4.203   4.813  10.065  0.6284 -2.9098 -0.4544
   74SLPC   H5Y 6612   4.261   4.932  10.178 -1.2837  0.6496  0.4219
   74SLPC   C36 6613   4.050   4.857  10.212  0.4400  0.8381 -0.0819
   74SLPC   H6X 6614   4.040   4.891  10.318  0.9441 -0.5363  0.4316
   74SLPC   H6Y 6615   4.011   4.753  10.215 -2.0069  1.7027  0.5087
   74SLPC   C37 6616   3.979   4.947  10.112  0.5776  0.3948 -0.9997
   74SLPC   H7X 6617   4.028   5.046  10.102  0.8852  0.6074  1.8778
   74SLPC   H7Y 6618   3.878   4.954  10.158  0.7258 -0.8057 -0.4455
   74SLPC   C38 6619   3.950   4.885   9.973  0.2129 -0.5097 -0.4451
   74SLPC   H8X 6620   3.889   4.791   9.977 -0.3411 -0.2531 -2.1136
   74SLPC   H8Y 6621   4.045   4.864   9.920 -1.8912 -2.9802 -3.5708
   74SLPC   C39 6622   3.881   4.989   9.872 -0.2883  1.0077 -0.0701
   74SLPC   H9X 6623   3.937   5.084   9.861 -0.3103  1.0221 -0.0558
   74SLPC   H9Y 6624   3.776   5.005   9.904 -0.7721 -0.2277 -0.9498
   74SLPC  C310 6625   3.885   4.927   9.728  0.0465  0.0409 -0.7418
   74SLPC  H10X 6626   3.798   4.857   9.726 -1.7735  2.1749 -0.4380
   74SLPC  H10Y 6627   3.981   4.879   9.700  0.1887  1.3158 -2.5735
   74SLPC  C311 6628   3.868   5.044   9.633 -0.4400  0.2336  0.4823
   74SLPC  H11X 6629   3.957   5.110   9.635 -1.6927  2.0050  0.2625
   74SLPC  H11Y 6630   3.784   5.103   9.675  0.0108  0.8695  0.5090
   74SLPC  C312 6631   3.860   4.990   9.493  0.1905 -1.0971 -0.0193
   74SLPC  H12X 6632   3.775   4.920   9.481 -1.5014  1.1584 -2.3468
   74SLPC  H12Y 6633   3.955   4.934   9.481  0.0750 -1.4307  0.5852
   74SLPC  C313 6634   3.848   5.105   9.396 -0.6765  0.0025  1.1665
   74SLPC  H13X 6635   3.934   5.174   9.405  0.2790 -0.8426 -0.8395
   74SLPC  H13Y 6636   3.753   5.150   9.433 -1.0691 -2.0872  2.9554
   74SLPC  C314 6637   3.846   5.046   9.252  0.1453 -0.2814  0.3413
   74SLPC  H14X 6638   3.814   5.135   9.193  0.5409  1.4412  2.5712
   74SLPC  H14Y 6639   3.782   4.956   9.246  0.3531 -0.5148  1.4368
   74SLPC  C315 6640   3.993   5.016   9.209  0.3622 -0.3644  0.0878
   74SLPC  H15X 6641   4.015   4.924   9.266  0.5020 -0.8580 -0.7502
   74SLPC  H15Y 6642   4.060   5.100   9.240  2.6732 -1.6199 -1.2237
   74SLPC  C316 6643   4.015   5.003   9.054 -0.0480  0.6791 -0.0332
   74SLPC  H16X 6644   4.123   4.980   9.039 -0.1235  0.5470 -0.3800
   74SLPC  H16Y 6645   3.992   5.104   9.013 -1.3367  0.2293 -0.4868
   74SLPC  C317 6646   3.934   4.893   8.992 -0.1016  0.7475 -0.2912
   74SLPC  H17X 6647   3.836   4.888   9.045  0.7644 -1.3823  1.2399
   74SLPC  H17Y 6648   3.996   4.807   9.023 -2.0603 -0.5667  0.1484
   74SLPC  C318 6649   3.924   4.913   8.844 -0.7700 -0.9223 -0.4405
   74SLPC  H18X 6650   3.893   5.014   8.810  0.8391 -0.2521 -0.0531
   74SLPC  H18Y 6651   3.863   4.837   8.791 -2.0133 -0.3157  0.0832
   74SLPC  H18Z 6652   4.029   4.911   8.806 -0.3573  2.5822  0.1772
   75SLPC     N 6653   3.629   0.968   6.359 -0.0969 -0.4083  0.5936
   75SLPC   C13 6654   3.553   1.095   6.354 -0.4742  0.2750  0.1421
   75SLPC  H13A 6655   3.610   1.184   6.374  0.4739 -0.5313  1.1825
   75SLPC  H13B 6656   3.506   1.109   6.258 -2.7388  2.2727  1.4300
   75SLPC  H13C 6657   3.473   1.087   6.426 -0.9528 -1.1976 -0.5089
   75SLPC   C14 6658   3.762   0.988   6.290 -0.7892 -0.1197  0.3857
   75SLPC  H14A 6659   3.802   0.889   6.276 -0.5068 -0.0315  0.5725
   75SLPC  H14B 6660   3.740   1.044   6.201  0.8631 -1.7688 -1.1478
   75SLPC  H14C 6661   3.833   1.051   6.341 -0.7197  2.2061 -2.3749
   75SLPC   C15 6662   3.560   0.863   6.281  0.3639 -0.4150 -0.0439
   75SLPC  H15A 6663   3.558   0.884   6.175 -0.8933  1.2638  0.2757
   75SLPC  H15B 6664   3.606   0.765   6.280  2.1203  0.3739 -0.9680
   75SLPC  H15C 6665   3.459   0.849   6.317  0.7851  0.2242  1.4396
   75SLPC   C12 6666   3.646   0.923   6.508  0.9005  0.0521  0.4021
   75SLPC  H12A 6667   3.685   1.012   6.554  0.4066 -0.0324  0.9909
   75SLPC  H12B 6668   3.723   0.848   6.511 -1.3023 -2.4902 -1.3084
   75SLPC   C11 6669   3.529   0.861   6.577 -0.3820  0.2174 -0.8874
   75SLPC  H11A 6670   3.566   0.828   6.677 -2.0466 -0.3019 -0.4099
   75SLPC  H11B 6671   3.505   0.764   6.528 -1.3349  0.0405 -0.1162
   75SLPC     P 6672   3.277   0.917   6.648 -0.1994  0.0597 -0.5596
   75SLPC   O13 6673   3.168   0.988   6.582 -0.0830  0.2667  0.5208
   75SLPC   O14 6674   3.265   0.770   6.669 -0.0565 -0.1427  0.2741
   75SLPC   O12 6675   3.417   0.950   6.582 -0.1083 -0.1095  0.2758
   75SLPC   O11 6676   3.297   0.973   6.794  0.2124  0.0305  0.6262
   75SLPC    C1 6677   3.421   1.029   6.836 -0.0223  0.5972 -0.0168
   75SLPC    HA 6678   3.472   0.939   6.879  0.5251  0.1611 -1.5088
   75SLPC    HB 6679   3.482   1.074   6.754  1.3024 -0.3529  0.3985
   75SLPC    C2 6680   3.391   1.142   6.942  0.2868 -0.4154  0.1913
   75SLPC    HS 6681   3.484   1.203   6.939  0.3016 -0.4142  0.6046
   75SLPC   O21 6682   3.362   1.092   7.074  0.2351 -0.4353  0.1757
   75SLPC   C21 6683   3.388   1.182   7.171 -0.2608 -0.0067 -0.1272
   75SLPC   O22 6684   3.445   1.288   7.157  0.1985  0.9665  0.1690
   75SLPC   C22 6685   3.351   1.118   7.298  0.1883  0.3787  0.2097
   75SLPC   H2R 6686   3.259   1.059   7.284  0.7666 -0.7803  1.1511
   75SLPC   H2S 6687   3.431   1.045   7.323 -2.0005 -2.5680 -0.9574
   75SLPC    C3 6688   3.274   1.222   6.880  0.3946 -0.1927 -0.3965
   75SLPC    HX 6689   3.180   1.164   6.892 -2.0144  3.4983  0.3987
   75SLPC    HY 6690   3.283   1.240   6.771  0.6934 -1.1165 -0.5333
   75SLPC   O31 6691   3.243   1.343   6.961  0.4279  0.1108 -0.0527
   75SLPC   C31 6692   3.286   1.459   6.907  0.6220  0.2284  0.0320
   75SLPC   O32 6693   3.358   1.464   6.807  0.2042  0.6515  0.0038
   75SLPC   C32 6694   3.227   1.580   6.992  0.4039  0.0945  0.3570
   75SLPC   H2X 6695   3.134   1.610   6.939 -0.2892 -3.1866 -0.5233
   75SLPC   H2Y 6696   3.300   1.660   6.967 -0.4464 -0.3785 -4.9871
   75SLPC   C23 6697   3.357   1.211   7.418 -1.0931  0.1686 -0.5483
   75SLPC   H3R 6698   3.259   1.262   7.425 -0.9976  0.3119 -0.1945
   75SLPC   H3S 6699   3.432   1.292   7.404  0.2173 -0.8837  0.1085
   75SLPC   C24 6700   3.393   1.141   7.547  0.4965  0.3062 -0.1814
   75SLPC   H4R 6701   3.473   1.063   7.551  0.5516  0.3709  0.0095
   75SLPC   H4S 6702   3.304   1.095   7.594  0.4841  1.2834  0.7852
   75SLPC   C25 6703   3.445   1.244   7.662  0.0128 -0.1989  0.6986
   75SLPC   H5R 6704   3.373   1.329   7.657 -0.2134 -0.4231 -3.0298
   75SLPC   H5S 6705   3.546   1.280   7.632 -0.6715  1.5204  0.3159
   75SLPC   C26 6706   3.454   1.170   7.799  0.2645 -0.1937 -0.2950
   75SLPC   H6R 6707   3.504   1.073   7.777 -0.7683 -1.1287  1.2433
   75SLPC   H6S 6708   3.352   1.142   7.835 -0.0373  1.2316  0.0135
   75SLPC   C27 6709   3.533   1.239   7.915 -0.3352  0.2940  0.5531
   75SLPC   H7R 6710   3.610   1.305   7.871 -0.9840  1.4332  1.1063
   75SLPC   H7S 6711   3.590   1.169   7.980  0.1438 -0.4049 -0.5982
   75SLPC   C28 6712   3.447   1.328   8.012  0.7227  0.6113 -0.4508
   75SLPC   H8R 6713   3.516   1.354   8.095  1.0203  3.4673 -1.4730
   75SLPC   H8S 6714   3.373   1.254   8.051  0.1098  0.4960 -1.7799
   75SLPC   C29 6715   3.377   1.455   7.973 -0.3878  1.8815  0.5739
   75SLPC   H9R 6716   3.404   1.470   7.867 -1.9693 -2.8970 -0.7361
   75SLPC  C210 6717   3.306   1.543   8.043 -0.0830  0.4378  0.0704
   75SLPC  H10R 6718   3.275   1.640   8.003 -2.7150 -0.8949 -1.4124
   75SLPC  C211 6719   3.271   1.531   8.188  0.2406 -0.3595  0.0061
   75SLPC  H11R 6720   3.248   1.426   8.217  0.1332  0.3587  2.7070
   75SLPC  H11S 6721   3.183   1.594   8.212  1.2180  1.1565 -0.2366
   75SLPC  C212 6722   3.381   1.592   8.276  0.6224 -0.4162  0.9111
   75SLPC  H12R 6723   3.484   1.555   8.266  0.7772 -0.3224  2.0072
   75SLPC  C213 6724   3.373   1.693   8.365 -0.0650  0.4330  0.2991
   75SLPC  H13R 6725   3.465   1.717   8.421  0.2997 -3.2197  1.4803
   75SLPC  C214 6726   3.252   1.766   8.400  1.3942 -0.3535  0.3418
   75SLPC  H14R 6727   3.174   1.758   8.322 -0.4543  1.7089  1.8732
   75SLPC  H14S 6728   3.268   1.876   8.405  1.0541 -0.3686  3.0391
   75SLPC  C215 6729   3.201   1.731   8.538  0.1252 -0.7260  0.3984
   75SLPC  H15R 6730   3.105   1.786   8.535 -0.0689 -1.0772  0.0003
   75SLPC  H15S 6731   3.262   1.777   8.619 -1.2263  2.5100 -0.2556
   75SLPC  C216 6732   3.161   1.585   8.561 -0.1138  0.5546 -0.7103
   75SLPC  H16R 6733   3.251   1.521   8.578  0.6895  1.2145 -2.2131
   75SLPC  H16S 6734   3.111   1.554   8.467 -0.3674  4.1424 -1.9092
   75SLPC  C217 6735   3.068   1.576   8.679 -0.1212  0.6189 -0.1952
   75SLPC  H17R 6736   3.036   1.471   8.700 -1.5307  0.6169 -2.0846
   75SLPC  H17S 6737   2.964   1.607   8.652  0.2682  2.6297  0.4499
   75SLPC  C218 6738   3.117   1.633   8.814  0.2331 -0.1455 -0.6522
   75SLPC  H18R 6739   3.160   1.735   8.805  2.0503 -0.8840 -0.9341
   75SLPC  H18S 6740   3.198   1.562   8.843 -0.2188 -1.3319 -2.1180
   75SLPC  H18T 6741   3.035   1.633   8.888  0.0643 -0.1038 -0.8399
   75SLPC   C33 6742   3.204   1.547   7.137 -0.3224  0.1575  0.6317
   75SLPC   H3X 6743   3.113   1.484   7.143  1.1596 -2.6802 -3.0530
   75SLPC   H3Y 6744   3.291   1.495   7.184 -0.8881 -0.4131  1.0630
   75SLPC   C34 6745   3.190   1.675   7.218 -0.2796  0.1946  0.7795
   75SLPC   H4X 6746   3.125   1.737   7.154  2.3332  0.6739 -1.6029
   75SLPC   H4Y 6747   3.291   1.720   7.225  0.1737 -0.3606 -1.5063
   75SLPC   C35 6748   3.140   1.645   7.362  0.6315  0.2609  0.1993
   75SLPC   H5X 6749   3.200   1.561   7.403  0.2143  0.6055  1.5656
   75SLPC   H5Y 6750   3.033   1.614   7.358  0.1884  1.5501  1.3347
   75SLPC   C36 6751   3.159   1.755   7.460  0.0402  0.5207  0.3828
   75SLPC   H6X 6752   3.117   1.853   7.430  0.0632 -0.1368 -2.0329
   75SLPC   H6Y 6753   3.268   1.770   7.477 -0.1241  2.6406 -0.1753
   75SLPC   C37 6754   3.106   1.729   7.604  0.0343  0.3185 -0.0494
   75SLPC   H7X 6755   3.137   1.627   7.635  1.1474  1.3602  2.5473
   75SLPC   H7Y 6756   2.997   1.711   7.593  0.0773 -0.0375  0.0854
   75SLPC   C38 6757   3.113   1.845   7.704 -0.4724 -0.1500  1.1566
   75SLPC   H8X 6758   3.071   1.940   7.665 -1.2812 -1.8110 -2.4778
   75SLPC   H8Y 6759   3.220   1.862   7.729 -0.4503  0.5372  0.6015
   75SLPC   C39 6760   3.041   1.818   7.831  0.0321  0.3603 -0.2063
   75SLPC   H9X 6761   3.072   1.726   7.884 -0.0281 -0.3348 -1.3409
   75SLPC   H9Y 6762   2.933   1.806   7.808 -0.5262  2.2054  1.2003
   75SLPC  C310 6763   3.055   1.936   7.932  0.7182 -0.0815 -0.1726
   75SLPC  H10X 6764   3.027   2.032   7.882 -0.4532  0.2355  1.0502
   75SLPC  H10Y 6765   3.164   1.941   7.951  0.8994  0.0250 -1.1951
   75SLPC  C311 6766   2.982   1.916   8.061  0.1530  0.0170  0.3620
   75SLPC  H11X 6767   3.039   1.850   8.129 -1.1093 -0.3528  1.0892
   75SLPC  H11Y 6768   2.880   1.879   8.033  1.0290 -1.9126 -0.4355
   75SLPC  C312 6769   2.968   2.052   8.136 -0.0452 -0.1174 -0.2516
   75SLPC  H12X 6770   2.954   2.138   8.067  1.2717  2.5734  2.5806
   75SLPC  H12Y 6771   3.071   2.071   8.175 -0.3380 -1.7791  1.5171
   75SLPC  C313 6772   2.859   2.067   8.243 -0.5915 -0.6031 -0.0104
   75SLPC  H13X 6773   2.762   2.023   8.210 -0.9173 -0.1272  0.3148
   75SLPC  H13Y 6774   2.841   2.175   8.260 -2.1601 -0.8921  0.2641
   75SLPC  C314 6775   2.890   1.993   8.371 -0.0335 -0.0328  0.3702
   75SLPC  H14X 6776   2.998   1.987   8.395  1.0327 -2.2446 -3.9199
   75SLPC  H14Y 6777   2.862   1.891   8.337  1.1439 -0.0578 -0.5987
   75SLPC  C315 6778   2.819   2.039   8.487 -0.6059  0.0046 -0.2250
   75SLPC  H15X 6779   2.832   1.958   8.562  1.4241 -0.0116 -0.5540
   75SLPC  H15Y 6780   2.710   2.048   8.468 -0.9219 -3.1428 -0.3637
   75SLPC  C316 6781   2.884   2.163   8.561  0.1809  0.2006 -0.4220
   75SLPC  H16X 6782   2.938   2.214   8.479 -0.3544 -1.2341 -1.7106
   75SLPC  H16Y 6783   2.947   2.137   8.648 -1.3866  0.0196  0.7160
   75SLPC  C317 6784   2.773   2.253   8.604 -0.0300  0.0773  0.8540
   75SLPC  H17X 6785   2.723   2.218   8.697 -3.8830  1.1418 -0.6305
   75SLPC  H17Y 6786   2.700   2.253   8.520 -0.0765 -2.8348  0.7800
   75SLPC  C318 6787   2.819   2.393   8.635 -0.4413 -0.1730 -0.0646
   75SLPC  H18X 6788   2.881   2.438   8.554 -0.5724  2.9591  1.4178
   75SLPC  H18Y 6789   2.891   2.404   8.719 -0.3758 -2.4491  0.2404
   75SLPC  H18Z 6790   2.725   2.453   8.645 -0.8724 -0.8690  0.1002
   76SLPC     N 6791   5.325   5.439   6.490 -0.6185 -0.1162  0.0156
   76SLPC   C13 6792   5.197   5.507   6.489 -0.5297 -0.3733 -0.5400
   76SLPC  H13A 6793   5.116   5.441   6.461 -0.2849 -1.2635  0.7409
   76SLPC  H13B 6794   5.167   5.538   6.588 -0.9733 -2.1613 -0.0783
   76SLPC  H13C 6795   5.193   5.594   6.425  0.0934 -0.8202 -1.1967
   76SLPC   C14 6796   5.431   5.533   6.530  0.2851 -0.1178 -0.0240
   76SLPC  H14A 6797   5.428   5.574   6.630  1.8297 -0.5729  0.2467
   76SLPC  H14B 6798   5.527   5.487   6.549  0.0349  0.0227  1.6982
   76SLPC  H14C 6799   5.461   5.598   6.449  3.6707 -2.5201 -0.9430
   76SLPC   C15 6800   5.344   5.389   6.351 -0.1902  0.6004 -0.2061
   76SLPC  H15A 6801   5.343   5.468   6.277  1.2255 -2.1299 -3.3694
   76SLPC  H15B 6802   5.432   5.327   6.349 -0.5585  0.0875 -0.7282
   76SLPC  H15C 6803   5.266   5.319   6.324 -0.1366  1.1173 -1.7901
   76SLPC   C12 6804   5.329   5.327   6.591 -0.6396 -0.1071 -0.1886
   76SLPC  H12A 6805   5.348   5.380   6.683  1.9200 -0.7094 -0.2793
   76SLPC  H12B 6806   5.412   5.260   6.577 -1.6263 -1.0563 -1.7683
   76SLPC   C11 6807   5.204   5.238   6.599 -0.4558 -0.2633  0.0505
   76SLPC  H11A 6808   5.118   5.300   6.632 -0.2675 -0.7936  1.5796
   76SLPC  H11B 6809   5.215   5.166   6.682 -0.3805 -0.2753  0.0306
   76SLPC     P 6810   5.019   5.156   6.432  0.4914  0.1181  0.1895
   76SLPC   O13 6811   4.955   5.289   6.430  0.3060  0.3935 -0.0144
   76SLPC   O14 6812   5.019   5.090   6.296  0.7570 -1.3006 -0.0459
   76SLPC   O12 6813   5.170   5.172   6.478 -0.4540  0.0896 -0.0352
   76SLPC   O11 6814   4.959   5.052   6.533 -0.8141  0.6967  0.0351
   76SLPC    C1 6815   4.834   5.075   6.593  0.0985 -0.2741  0.7035
   76SLPC    HA 6816   4.761   5.133   6.534 -0.2743 -1.7261 -0.3199
   76SLPC    HB 6817   4.774   4.981   6.597 -0.7926  0.1882 -1.0231
   76SLPC    C2 6818   4.845   5.136   6.736  0.5821 -0.1356  0.2482
   76SLPC    HS 6819   4.888   5.238   6.722 -1.3865  0.7346  0.2252
   76SLPC   O21 6820   4.942   5.060   6.807 -0.9168 -0.1746  0.0320
   76SLPC   C21 6821   4.984   5.101   6.934  0.6401 -0.0036  0.5073
   76SLPC   O22 6822   4.969   5.212   6.976  0.1569 -0.5389 -0.0435
   76SLPC   C22 6823   5.040   4.984   7.006 -1.1055  0.3769 -0.8065
   76SLPC   H2R 6824   4.959   4.948   7.073 -0.6670  1.5510  0.4104
   76SLPC   H2S 6825   5.072   4.904   6.936  2.3663  0.1883  0.7810
   76SLPC    C3 6826   4.713   5.150   6.814 -0.4713 -0.0054  0.1948
   76SLPC    HX 6827   4.643   5.203   6.746  1.2719 -0.0495 -1.7541
   76SLPC    HY 6828   4.725   5.218   6.900 -3.5915  0.2919  0.5037
   76SLPC   O31 6829   4.665   5.018   6.855 -0.1006  0.2684  0.2972
   76SLPC   C31 6830   4.558   4.966   6.804 -0.4619  0.0230  0.7501
   76SLPC   O32 6831   4.474   5.030   6.741  0.1124 -0.4239  0.5514
   76SLPC   C32 6832   4.546   4.820   6.835 -0.0166 -0.2213 -0.1671
   76SLPC   H2X 6833   4.645   4.788   6.873 -0.1107  0.6448  0.8275
   76SLPC   H2Y 6834   4.526   4.776   6.735  0.6700  0.6547 -0.7063
   76SLPC   C23 6835   5.150   5.036   7.102 -0.5654  0.1424  0.1610
   76SLPC   H3R 6836   5.132   5.140   7.135 -0.4628  0.5013 -0.8680
   76SLPC   H3S 6837   5.248   5.032   7.049 -1.1745 -0.8735 -0.9242
   76SLPC   C24 6838   5.165   4.962   7.238  0.3673  0.6386 -0.5541
   76SLPC   H4R 6839   5.226   4.870   7.225 -1.6983 -0.5429 -2.9284
   76SLPC   H4S 6840   5.064   4.927   7.268  1.1072 -0.5076  0.7074
   76SLPC   C25 6841   5.232   5.043   7.353 -0.0284  0.2942  0.3587
   76SLPC   H5R 6842   5.179   5.138   7.376 -0.1606  0.2843  0.0955
   76SLPC   H5S 6843   5.335   5.071   7.320  0.7169  1.3053  3.2404
   76SLPC   C26 6844   5.226   4.960   7.480  0.4962 -0.3553  0.4095
   76SLPC   H6R 6845   5.308   4.885   7.473  0.1738 -0.6540 -0.2674
   76SLPC   H6S 6846   5.130   4.906   7.497  0.9856 -1.6845 -0.7827
   76SLPC   C27 6847   5.239   5.050   7.605 -0.2120 -0.1701 -0.2002
   76SLPC   H7R 6848   5.175   5.140   7.600 -1.1266 -0.6081  2.1030
   76SLPC   H7S 6849   5.346   5.081   7.612  0.1654 -1.7162  2.4518
   76SLPC   C28 6850   5.203   4.979   7.731  0.8578 -0.8989 -1.0839
   76SLPC   H8R 6851   5.093   4.964   7.722  0.8838 -2.7922  0.9171
   76SLPC   H8S 6852   5.252   4.879   7.729 -0.2131 -1.5195  0.9073
   76SLPC   C29 6853   5.238   5.066   7.852  0.1990 -0.0830  0.3081
   76SLPC   H9R 6854   5.342   5.066   7.888  0.8081  0.5930 -1.3370
   76SLPC  C210 6855   5.154   5.143   7.919  0.5311 -0.3055  0.0779
   76SLPC  H10R 6856   5.192   5.199   8.006  0.2049  3.2017 -1.8511
   76SLPC  C211 6857   5.004   5.155   7.898 -0.0409  0.3255 -0.4675
   76SLPC  H11R 6858   4.981   5.203   7.801 -0.4324  1.3679  0.1118
   76SLPC  H11S 6859   4.976   5.233   7.973  0.6904 -0.0826  0.2442
   76SLPC  C212 6860   4.918   5.036   7.928  0.1326  0.3599  0.0161
   76SLPC  H12R 6861   4.946   4.981   8.019  0.2034  1.1840  0.4926
   76SLPC  C213 6862   4.810   5.000   7.851  0.3629 -0.2298 -0.8039
   76SLPC  H13R 6863   4.758   4.908   7.881 -0.4821  0.0771 -1.2903
   76SLPC  C214 6864   4.749   5.072   7.732 -0.2411 -1.0512  0.0019
   76SLPC  H14R 6865   4.767   5.182   7.729 -3.9756 -0.2936 -0.0462
   76SLPC  H14S 6866   4.638   5.064   7.728 -0.7235  0.5854  4.4468
   76SLPC  C215 6867   4.810   5.025   7.602 -0.4467 -0.4350 -0.0339
   76SLPC  H15R 6868   4.800   4.915   7.594  0.7215 -0.5936  0.4750
   76SLPC  H15S 6869   4.918   5.053   7.597 -0.4421  0.3262  2.6894
   76SLPC  C216 6870   4.742   5.083   7.479  0.0454  0.0863  0.6430
   76SLPC  H16R 6871   4.727   5.193   7.479 -0.6432  0.0389 -1.4744
   76SLPC  H16S 6872   4.637   5.047   7.469  0.2026  0.3293 -3.4283
   76SLPC  C217 6873   4.803   5.035   7.348  0.2920 -0.0409 -1.0943
   76SLPC  H17R 6874   4.813   4.925   7.357 -2.3174 -0.4210 -1.9044
   76SLPC  H17S 6875   4.902   5.077   7.319 -0.4835  1.3006 -1.8903
   76SLPC  C218 6876   4.713   5.046   7.226  0.4370 -0.2892  0.1596
   76SLPC  H18R 6877   4.770   5.001   7.142  0.3321  0.7389 -0.4725
   76SLPC  H18S 6878   4.705   5.152   7.194 -2.5255 -0.6466 -0.5759
   76SLPC  H18T 6879   4.615   4.995   7.236  0.2533 -0.2164 -1.1474
   76SLPC   C33 6880   4.426   4.774   6.918  0.5224  0.4753  0.1596
   76SLPC   H3X 6881   4.410   4.666   6.902  0.0210  0.9671 -3.5181
   76SLPC   H3Y 6882   4.333   4.827   6.887  0.2234  1.7764  2.9280
   76SLPC   C34 6883   4.449   4.794   7.073 -0.8184  0.0567 -0.1945
   76SLPC   H4X 6884   4.482   4.900   7.080 -1.7009  0.3218 -0.0253
   76SLPC   H4Y 6885   4.528   4.724   7.109  0.6882  0.7244 -2.0509
   76SLPC   C35 6886   4.329   4.770   7.168  0.2603  0.1850  0.8982
   76SLPC   H5X 6887   4.290   4.667   7.152 -0.5556  0.6937 -0.6456
   76SLPC   H5Y 6888   4.251   4.842   7.135 -0.7892 -1.3565 -0.1286
   76SLPC   C36 6889   4.366   4.794   7.307 -0.1310 -0.1745 -0.1781
   76SLPC   H6X 6890   4.417   4.890   7.329 -1.4231  0.5444 -0.2334
   76SLPC   H6Y 6891   4.423   4.705   7.342 -0.4564 -1.0840 -1.8443
   76SLPC   C37 6892   4.246   4.791   7.399  0.9469 -0.0105 -0.4184
   76SLPC   H7X 6893   4.164   4.725   7.364 -0.7083  2.0047 -0.5541
   76SLPC   H7Y 6894   4.198   4.891   7.393 -0.5414 -0.6704  0.0472
   76SLPC   C38 6895   4.278   4.742   7.539 -0.8438 -0.4390  0.0793
   76SLPC   H8X 6896   4.324   4.641   7.534 -2.0190 -0.9858  0.0334
   76SLPC   H8Y 6897   4.182   4.742   7.595 -0.1013  4.3548  1.8509
   76SLPC   C39 6898   4.360   4.840   7.623  0.3755 -0.3797  0.5401
   76SLPC   H9X 6899   4.338   4.946   7.597  0.9198 -0.6836 -1.3156
   76SLPC   H9Y 6900   4.467   4.846   7.594 -0.1528 -0.2854 -1.5000
   76SLPC  C310 6901   4.333   4.819   7.774 -0.4122 -0.4123 -0.7316
   76SLPC  H10X 6902   4.342   4.711   7.798  3.0500  0.5192  3.2869
   76SLPC  H10Y 6903   4.229   4.840   7.807  0.2768 -0.6497  1.8194
   76SLPC  C311 6904   4.441   4.889   7.867 -0.0805  1.2814 -0.4577
   76SLPC  H11X 6905   4.436   5.000   7.857 -0.0788  1.2262 -1.1047
   76SLPC  H11Y 6906   4.538   4.857   7.822  0.0206  0.9494 -0.0061
   76SLPC  C312 6907   4.431   4.859   8.018  0.0495 -0.0016  0.3932
   76SLPC  H12X 6908   4.419   4.753   8.047 -0.1181 -0.1155 -0.0872
   76SLPC  H12Y 6909   4.334   4.906   8.048 -0.0573 -0.8682  1.4820
   76SLPC  C313 6910   4.548   4.914   8.103  0.2203  0.3112  0.0370
   76SLPC  H13X 6911   4.556   5.025   8.111 -0.5249  0.2357  3.9859
   76SLPC  H13Y 6912   4.645   4.877   8.064 -0.7185 -0.3460 -1.8110
   76SLPC  C314 6913   4.522   4.864   8.246  0.3202  0.6409 -0.0499
   76SLPC  H14X 6914   4.545   4.756   8.257 -0.6982  0.3633 -0.5069
   76SLPC  H14Y 6915   4.417   4.873   8.281 -0.2524  3.0648 -2.1272
   76SLPC  C315 6916   4.616   4.921   8.351 -0.3126 -0.3540  0.7587
   76SLPC  H15X 6917   4.639   5.029   8.361  1.4682 -0.7207  0.8750
   76SLPC  H15Y 6918   4.716   4.878   8.329  1.0796  2.3936  1.2881
   76SLPC  C316 6919   4.579   4.874   8.492  0.3011  0.2854 -0.6773
   76SLPC  H16X 6920   4.558   4.765   8.491  2.2778 -0.1586  0.5243
   76SLPC  H16Y 6921   4.489   4.926   8.532 -0.7031 -1.6333 -0.3029
   76SLPC  C317 6922   4.703   4.899   8.577  0.4915 -0.1785  0.1244
   76SLPC  H17X 6923   4.736   5.005   8.579  0.4449 -0.1645  0.1641
   76SLPC  H17Y 6924   4.790   4.844   8.537  1.6295  2.6028 -1.5127
   76SLPC  C318 6925   4.677   4.847   8.719 -1.1755 -0.2583  0.1001
   76SLPC  H18X 6926   4.692   4.738   8.729  0.7323 -0.0227  0.2083
   76SLPC  H18Y 6927   4.578   4.877   8.758 -0.1637  0.5003  2.2744
   76SLPC  H18Z 6928   4.747   4.894   8.792 -2.1819 -1.1740  1.7073
   77SLPC     N 6929   6.637   5.673   6.196 -0.7171  0.1270 -0.3806
   77SLPC   C13 6930   6.584   5.737   6.315 -0.0459  0.4622  0.0006
   77SLPC  H13A 6931   6.482   5.769   6.304 -0.1218 -0.0162 -0.7709
   77SLPC  H13B 6932   6.587   5.656   6.386  0.0146 -0.7938 -1.3905
   77SLPC  H13C 6933   6.642   5.824   6.343  0.5213  0.2534 -0.5089
   77SLPC   C14 6934   6.619   5.757   6.071  0.3439 -0.9210  0.4577
   77SLPC  H14A 6935   6.659   5.856   6.088 -0.7595 -0.8676  3.4612
   77SLPC  H14B 6936   6.686   5.724   5.993 -0.3137 -2.1966  0.4116
   77SLPC  H14C 6937   6.519   5.764   6.032  1.8436 -1.3321 -4.0500
   77SLPC   C15 6938   6.561   5.545   6.182  0.0081 -0.3466 -0.1265
   77SLPC  H15A 6939   6.578   5.476   6.263  0.4437 -0.2870 -0.1682
   77SLPC  H15B 6940   6.460   5.571   6.152  0.6981  2.2004 -0.4051
   77SLPC  H15C 6941   6.600   5.477   6.108 -1.1245 -1.4839  0.2779
   77SLPC   C12 6942   6.784   5.654   6.212 -0.2637 -0.4297 -0.4005
   77SLPC  H12A 6943   6.831   5.609   6.126 -0.2727  0.8805 -1.1243
   77SLPC  H12B 6944   6.799   5.588   6.297 -0.0878  0.9368  0.6723
   77SLPC   C11 6945   6.884   5.775   6.230  0.5633 -0.1355 -0.4285
   77SLPC  H11A 6946   6.908   5.802   6.124  2.4646 -1.3062 -0.3524
   77SLPC  H11B 6947   6.976   5.742   6.283 -0.5546 -0.1875  1.5691
   77SLPC     P 6948   6.857   5.930   6.444  0.6689 -0.0725 -0.6234
   77SLPC   O13 6949   7.001   5.972   6.448  0.5116 -0.6012 -0.1227
   77SLPC   O14 6950   6.753   6.020   6.495 -0.8610 -0.6963 -0.1793
   77SLPC   O12 6951   6.825   5.891   6.294 -0.0374 -0.1848 -0.4497
   77SLPC   O11 6952   6.847   5.790   6.521  0.0697 -0.0813  0.3984
   77SLPC    C1 6953   6.800   5.765   6.646 -0.0124  0.3367 -0.4061
   77SLPC    HA 6954   6.891   5.740   6.704  1.2366  0.2602 -2.3213
   77SLPC    HB 6955   6.751   5.856   6.688  0.3982  0.9642 -1.2717
   77SLPC    C2 6956   6.696   5.649   6.656 -0.1772 -0.5366  0.0526
   77SLPC    HS 6957   6.604   5.672   6.600  0.6883  0.0594 -1.1556
   77SLPC   O21 6958   6.679   5.627   6.797 -0.2780 -0.7420 -0.7002
   77SLPC   C21 6959   6.573   5.555   6.830  0.3555  0.6908  0.3714
   77SLPC   O22 6960   6.480   5.536   6.759 -0.3666  0.1149 -0.4357
   77SLPC   C22 6961   6.582   5.514   6.981 -0.3139  0.1429 -0.1795
   77SLPC   H2R 6962   6.677   5.462   7.002 -0.5589  0.4372  1.9218
   77SLPC   H2S 6963   6.577   5.613   7.032 -0.3861  0.0360  0.0217
   77SLPC    C3 6964   6.775   5.521   6.604  0.3578  0.1820 -0.4541
   77SLPC    HX 6965   6.874   5.518   6.655  0.4450 -1.1663 -0.6668
   77SLPC    HY 6966   6.805   5.528   6.497 -0.4868  0.9428 -0.6463
   77SLPC   O31 6967   6.711   5.398   6.639 -0.0663 -0.2497  0.2473
   77SLPC   C31 6968   6.630   5.343   6.546 -0.0220 -0.0023 -0.3222
   77SLPC   O32 6969   6.597   5.400   6.445  0.0334 -0.8319 -0.0816
   77SLPC   C32 6970   6.577   5.198   6.575  0.1742 -0.0938 -0.6260
   77SLPC   H2X 6971   6.665   5.130   6.581 -0.0453 -0.3507 -0.3306
   77SLPC   H2Y 6972   6.518   5.171   6.485 -0.4622 -1.1828  0.0959
   77SLPC   C23 6973   6.470   5.421   7.031  0.2093 -1.1836  0.2542
   77SLPC   H3R 6974   6.471   5.331   6.966 -1.3382 -1.3710  0.4554
   77SLPC   H3S 6975   6.369   5.467   7.025  0.4769 -0.7392 -1.3105
   77SLPC   C24 6976   6.495   5.371   7.175 -0.8739  0.2791  0.7665
   77SLPC   H4R 6977   6.594   5.322   7.188 -0.4496  0.1073 -2.3088
   77SLPC   H4S 6978   6.422   5.287   7.178 -0.9036  0.0014 -3.0695
   77SLPC   C25 6979   6.464   5.459   7.296  0.8846  0.0959 -0.0829
   77SLPC   H5R 6980   6.358   5.492   7.285  0.7868 -0.4868 -1.0698
   77SLPC   H5S 6981   6.513   5.557   7.278  1.0680 -0.1947 -1.2349
   77SLPC   C26 6982   6.481   5.387   7.426 -0.1599 -0.2976 -0.4142
   77SLPC   H6R 6983   6.587   5.362   7.449  0.1264 -0.3842 -1.7435
   77SLPC   H6S 6984   6.428   5.291   7.438 -0.5376 -0.2564 -1.6692
   77SLPC   C27 6985   6.422   5.470   7.544 -0.0080  0.1732  0.1327
   77SLPC   H7R 6986   6.313   5.473   7.521  0.1256 -4.1309 -2.1205
   77SLPC   H7S 6987   6.474   5.568   7.539  0.5128  0.2905  4.2823
   77SLPC   C28 6988   6.455   5.424   7.687  0.0255  0.1422  0.0659
   77SLPC   H8R 6989   6.565   5.426   7.699 -0.0374 -0.5165  0.8163
   77SLPC   H8S 6990   6.414   5.321   7.696  0.3354 -0.2279 -2.1969
   77SLPC   C29 6991   6.412   5.513   7.802 -0.0238 -0.7366 -0.3052
   77SLPC   H9R 6992   6.462   5.610   7.794 -0.6939 -0.4158 -0.7232
   77SLPC  C210 6993   6.328   5.479   7.906 -0.3583 -0.1027  0.6799
   77SLPC  H10R 6994   6.293   5.555   7.977  0.3537 -0.0856  1.0254
   77SLPC  C211 6995   6.258   5.349   7.911 -0.5146 -0.4231 -0.3137
   77SLPC  H11R 6996   6.279   5.326   8.018  2.5385  0.9925 -0.4880
   77SLPC  H11S 6997   6.306   5.269   7.850 -1.6139 -3.0685  2.0906
   77SLPC  C212 6998   6.112   5.357   7.884 -0.0547 -0.1269  0.1194
   77SLPC  H12R 6999   6.067   5.451   7.849 -2.9277 -0.7917  1.7186
   77SLPC  C213 7000   6.027   5.254   7.905  1.2262  0.5527  1.8700
   77SLPC  H13R 7001   5.920   5.274   7.891  1.0850 -1.9779 -2.9404
   77SLPC  C214 7002   6.060   5.112   7.949 -0.2378  0.6365 -0.3873
   77SLPC  H14R 7003   6.165   5.093   7.917  0.3824  1.1362  1.2495
   77SLPC  H14S 7004   5.995   5.031   7.908 -0.2042  0.2206  0.3790
   77SLPC  C215 7005   6.058   5.105   8.105 -0.1874  0.2295  0.3217
   77SLPC  H15R 7006   5.951   5.110   8.132 -0.4772 -0.7566 -0.6108
   77SLPC  H15S 7007   6.116   5.189   8.149  0.4789 -0.9637  1.8257
   77SLPC  C216 7008   6.109   4.974   8.160 -0.0030  0.0214  0.5813
   77SLPC  H16R 7009   6.121   5.000   8.267 -0.2591  1.1694  0.3407
   77SLPC  H16S 7010   6.199   4.938   8.106 -1.1505  0.1070 -1.5080
   77SLPC  C217 7011   6.000   4.864   8.158  0.3800 -0.0050  0.1324
   77SLPC  H17R 7012   5.989   4.828   8.054  1.2356 -1.0017  0.3707
   77SLPC  H17S 7013   5.898   4.894   8.192  0.4256  1.1022 -0.6553
   77SLPC  C218 7014   6.040   4.746   8.237  0.2846  0.2265 -0.6492
   77SLPC  H18R 7015   5.947   4.687   8.255  0.5073  0.1242  0.2474
   77SLPC  H18S 7016   6.086   4.763   8.337 -1.2959  0.8158  0.0067
   77SLPC  H18T 7017   6.102   4.664   8.193 -0.8044 -0.8289 -0.2727
   77SLPC   C33 7018   6.486   5.201   6.701 -0.0229  0.5047  0.7884
   77SLPC   H3X 7019   6.395   5.256   6.670 -1.6934 -2.7024 -0.5224
   77SLPC   H3Y 7020   6.548   5.255   6.776  1.7293  1.0885 -1.0232
   77SLPC   C34 7021   6.436   5.060   6.752 -0.6944  0.2527  0.4030
   77SLPC   H4X 7022   6.384   5.000   6.674  0.1403  0.1958 -0.1254
   77SLPC   H4Y 7023   6.363   5.066   6.836  1.5247  1.8519  2.3604
   77SLPC   C35 7024   6.545   4.970   6.798 -0.0594 -0.2069  0.0714
   77SLPC   H5X 7025   6.613   4.945   6.714  1.0167  0.4727  0.7113
   77SLPC   H5Y 7026   6.506   4.867   6.812  2.3385 -1.4451 -1.7378
   77SLPC   C36 7027   6.626   5.004   6.928  0.1805  0.4774  0.5855
   77SLPC   H6X 7028   6.675   5.104   6.925 -0.8656  1.0227  1.1804
   77SLPC   H6Y 7029   6.712   4.934   6.936  0.2607  0.6663  1.5477
   77SLPC   C37 7030   6.538   4.982   7.054 -0.2209 -0.0036  0.1994
   77SLPC   H7X 7031   6.494   4.881   7.063 -1.2346  0.2507 -1.4309
   77SLPC   H7Y 7032   6.456   5.057   7.046 -1.1861 -1.0797 -0.2773
   77SLPC   C38 7033   6.631   5.013   7.173 -0.1814 -0.6777 -0.1574
   77SLPC   H8X 7034   6.664   5.119   7.166  2.9193 -1.4314  1.2518
   77SLPC   H8Y 7035   6.718   4.944   7.177  0.3681  0.0061 -0.0074
   77SLPC   C39 7036   6.548   5.001   7.305  0.8093 -0.6675  0.2730
   77SLPC   H9X 7037   6.494   4.904   7.311 -1.5913  0.5547 -0.2167
   77SLPC   H9Y 7038   6.464   5.074   7.297  0.7182 -0.7251  0.7066
   77SLPC  C310 7039   6.635   5.032   7.429 -0.6350 -0.1825  0.6874
   77SLPC  H10X 7040   6.674   5.136   7.423 -0.2458 -0.3513  0.1288
   77SLPC  H10Y 7041   6.720   4.960   7.429  0.4382  1.0432  1.7080
   77SLPC  C311 7042   6.561   5.023   7.567 -0.1250  0.3401 -0.3290
   77SLPC  H11X 7043   6.516   4.921   7.567  1.4446 -0.3780  0.2544
   77SLPC  H11Y 7044   6.478   5.097   7.570  0.6727  1.3145 -1.4389
   77SLPC  C312 7045   6.643   5.048   7.691  0.0632  0.0205  1.1165
   77SLPC  H12X 7046   6.686   5.150   7.689 -0.5405  0.3169  2.4585
   77SLPC  H12Y 7047   6.735   4.985   7.691  0.8337  1.0321 -1.0002
   77SLPC  C313 7048   6.561   5.022   7.823 -0.7375 -0.5614 -0.4434
   77SLPC  H13X 7049   6.556   4.912   7.834  0.6396 -0.5437  0.4957
   77SLPC  H13Y 7050   6.461   5.065   7.802 -1.6959 -0.4161  3.6355
   77SLPC  C314 7051   6.629   5.090   7.948  0.4012 -0.0842  0.6986
   77SLPC  H14X 7052   6.666   5.189   7.914  1.3507 -0.9502 -0.9097
   77SLPC  H14Y 7053   6.711   5.021   7.980  0.1108 -0.6541  0.2314
   77SLPC  C315 7054   6.533   5.121   8.063  0.3658  0.7287 -0.6573
   77SLPC  H15X 7055   6.461   5.198   8.028 -1.1922  1.4578  3.5411
   77SLPC  H15Y 7056   6.595   5.182   8.133  0.3574  0.6246 -0.5590
   77SLPC  C316 7057   6.473   4.993   8.131  0.0337 -0.1858 -0.8766
   77SLPC  H16X 7058   6.401   4.946   8.060  0.3098 -1.3929 -0.3807
   77SLPC  H16Y 7059   6.417   5.036   8.217 -0.1237  1.8449 -1.9279
   77SLPC  C317 7060   6.586   4.892   8.171 -0.3589  0.3026  0.2868
   77SLPC  H17X 7061   6.683   4.947   8.182 -0.1724 -0.0521  0.4235
   77SLPC  H17Y 7062   6.593   4.823   8.085 -0.9453  0.6203 -0.0230
   77SLPC  C318 7063   6.552   4.804   8.291 -0.6247  0.4837 -0.3371
   77SLPC  H18X 7064   6.564   4.856   8.388  3.0201  0.7276 -0.7737
   77SLPC  H18Y 7065   6.624   4.719   8.296  1.7279  2.4273  0.8739
   77SLPC  H18Z 7066   6.452   4.762   8.267 -0.8927  0.8977  0.0567
   78SLPC     N 7067   1.954   5.848   6.203 -1.2851 -0.1664  0.3061
   78SLPC   C13 7068   2.069   5.924   6.150 -0.7491 -0.2014  0.4999
   78SLPC  H13A 7069   2.046   5.967   6.053 -0.7008 -1.2161  0.0271
   78SLPC  H13B 7070   2.095   6.006   6.215 -0.5946 -0.1167  0.3345
   78SLPC  H13C 7071   2.155   5.862   6.131 -1.1383 -0.8573  0.8577
   78SLPC   C14 7072   1.919   5.740   6.109 -1.0578 -0.0382 -0.1000
   78SLPC  H14A 7073   1.826   5.701   6.147 -1.0914  0.8681  0.7857
   78SLPC  H14B 7074   1.906   5.771   6.006 -0.5120 -0.4681 -0.3011
   78SLPC  H14C 7075   1.982   5.653   6.116  0.6510  1.1526  0.0636
   78SLPC   C15 7076   1.836   5.940   6.215 -0.1438 -0.0417 -0.6045
   78SLPC  H15A 7077   1.757   5.884   6.263 -1.2925  1.3130 -0.8406
   78SLPC  H15B 7078   1.861   6.032   6.268  2.0231 -1.1863  0.5073
   78SLPC  H15C 7079   1.809   5.975   6.117 -0.1851  0.2564 -0.4901
   78SLPC   C12 7080   1.988   5.787   6.339 -0.1120  0.3248 -0.3073
   78SLPC  H12A 7081   1.900   5.731   6.367 -1.0694  1.8337 -0.2179
   78SLPC  H12B 7082   2.013   5.871   6.402 -1.9534 -0.3138  1.3875
   78SLPC   C11 7083   2.097   5.687   6.356 -0.4201 -0.4198  0.5616
   78SLPC  H11A 7084   2.128   5.666   6.461 -0.6356 -2.8177  0.1937
   78SLPC  H11B 7085   2.192   5.731   6.318 -0.7536  0.2787  0.5279
   78SLPC     P 7086   1.965   5.458   6.359  0.8680  0.0060 -0.4039
   78SLPC   O13 7087   1.823   5.497   6.329 -0.4278 -0.3176 -0.0396
   78SLPC   O14 7088   2.012   5.325   6.319 -0.2174 -0.3687  1.0192
   78SLPC   O12 7089   2.069   5.561   6.297  0.5583 -0.0526  0.0311
   78SLPC   O11 7090   1.980   5.473   6.516  0.5752  0.3880 -0.5322
   78SLPC    C1 7091   2.105   5.433   6.587  0.8215  0.0422  0.0365
   78SLPC    HA 7092   2.187   5.445   6.513 -0.7406 -0.1292 -1.8029
   78SLPC    HB 7093   2.120   5.499   6.676 -0.8899 -1.0353  1.1864
   78SLPC    C2 7094   2.103   5.287   6.656 -0.6166  0.4508  0.3776
   78SLPC    HS 7095   2.106   5.216   6.571 -2.2460  1.1779 -0.3202
   78SLPC   O21 7096   1.977   5.272   6.725 -0.0674 -0.1742  0.0877
   78SLPC   C21 7097   1.934   5.157   6.762  0.2484 -0.2944  0.5340
   78SLPC   O22 7098   1.987   5.048   6.737  0.3860  0.0858  0.1316
   78SLPC   C22 7099   1.807   5.169   6.842  0.3508 -0.3694 -0.8296
   78SLPC   H2R 7100   1.768   5.258   6.788  0.5563  0.8893  0.9936
   78SLPC   H2S 7101   1.746   5.077   6.844  0.5124 -0.4773 -0.7517
   78SLPC    C3 7102   2.222   5.264   6.756 -0.0902  0.0992  0.5966
   78SLPC    HX 7103   2.322   5.265   6.708 -0.2354 -2.3317  0.1187
   78SLPC    HY 7104   2.215   5.161   6.797 -0.6245  0.4508  1.4101
   78SLPC   O31 7105   2.211   5.356   6.874 -0.0466 -0.4871  0.0228
   78SLPC   C31 7106   2.299   5.452   6.887 -0.1705  0.2987 -0.1874
   78SLPC   O32 7107   2.369   5.497   6.800 -0.2260 -0.0677  0.0230
   78SLPC   C32 7108   2.288   5.509   7.028  0.2338 -0.1038  0.4065
   78SLPC   H2X 7109   2.327   5.613   7.023  1.5414 -0.4903  1.8066
   78SLPC   H2Y 7110   2.344   5.450   7.104 -0.5030 -0.3892  0.7298
   78SLPC   C23 7111   1.827   5.216   6.989  0.0169 -1.0793 -0.2633
   78SLPC   H3R 7112   1.896   5.303   6.993 -1.4607  0.0879  1.9418
   78SLPC   H3S 7113   1.878   5.137   7.048  2.0934  0.1403 -0.3084
   78SLPC   C24 7114   1.693   5.254   7.068  0.0645 -0.9216 -0.0344
   78SLPC   H4R 7115   1.613   5.185   7.035 -1.6961  1.4894 -1.1058
   78SLPC   H4S 7116   1.680   5.361   7.042  0.1157 -0.3491  2.0797
   78SLPC   C25 7117   1.713   5.260   7.221  0.0656 -0.2833  0.1292
   78SLPC   H5R 7118   1.806   5.317   7.238 -1.0525  2.0932 -1.1680
   78SLPC   H5S 7119   1.728   5.155   7.253  0.7979 -0.6066 -1.1667
   78SLPC   C26 7120   1.604   5.334   7.297  0.2560  0.0463 -0.1943
   78SLPC   H6R 7121   1.505   5.298   7.263  1.0724 -0.4747 -2.1657
   78SLPC   H6S 7122   1.616   5.441   7.269  0.5875  0.0326 -0.1077
   78SLPC   C27 7123   1.625   5.308   7.451  0.0184  0.8543 -0.0723
   78SLPC   H7R 7124   1.731   5.315   7.483  0.6096 -6.1130  1.0405
   78SLPC   H7S 7125   1.593   5.206   7.482 -0.0678  1.3469  1.5708
   78SLPC   C28 7126   1.531   5.389   7.545 -0.2839  0.1749  0.1091
   78SLPC   H8R 7127   1.527   5.351   7.649 -0.7479  0.3547  0.1596
   78SLPC   H8S 7128   1.427   5.371   7.511 -1.0293  1.8340  1.4150
   78SLPC   C29 7129   1.567   5.531   7.542  0.9465 -0.9111 -0.3907
   78SLPC   H9R 7130   1.551   5.568   7.440 -1.8111 -2.0752 -0.4716
   78SLPC  C210 7131   1.603   5.598   7.653 -0.1600  0.5516 -0.2691
   78SLPC  H10R 7132   1.616   5.706   7.640  3.7282  0.2319 -0.2580
   78SLPC  C211 7133   1.629   5.543   7.793 -0.3207  0.4634  0.4380
   78SLPC  H11R 7134   1.703   5.605   7.848  0.1700  0.3689 -0.0994
   78SLPC  H11S 7135   1.686   5.449   7.778  1.0119  1.3640 -0.4089
   78SLPC  C212 7136   1.501   5.513   7.872 -0.4181  0.3430 -0.1138
   78SLPC  H12R 7137   1.410   5.541   7.817 -0.7869  0.8288  0.7188
   78SLPC  C213 7138   1.495   5.472   8.005 -0.5606 -0.1295 -0.0252
   78SLPC  H13R 7139   1.396   5.441   8.043 -0.1291 -1.8149 -0.1724
   78SLPC  C214 7140   1.612   5.419   8.080 -0.7777 -0.6399  0.7337
   78SLPC  H14R 7141   1.704   5.408   8.019 -0.4129  0.5914  1.0269
   78SLPC  H14S 7142   1.597   5.322   8.132  1.2425  0.0338  2.7375
   78SLPC  C215 7143   1.638   5.523   8.193  0.0497 -0.3067  0.1606
   78SLPC  H15R 7144   1.545   5.530   8.253  0.4581  2.6347  0.5990
   78SLPC  H15S 7145   1.647   5.629   8.161  0.8209 -0.5565 -0.4979
   78SLPC  C216 7146   1.760   5.481   8.273 -0.0320 -0.8000 -0.1635
   78SLPC  H16R 7147   1.836   5.501   8.194  0.4416  0.0420  0.4879
   78SLPC  H16S 7148   1.760   5.373   8.296  3.4736 -2.0223 -4.6019
   78SLPC  C217 7149   1.798   5.576   8.388  0.2359  0.5541 -0.4172
   78SLPC  H17R 7150   1.711   5.609   8.449  1.2207  0.6207  1.0186
   78SLPC  H17S 7151   1.834   5.672   8.347  1.4794 -0.3127 -1.4258
   78SLPC  C218 7152   1.901   5.515   8.489  0.3168  0.3827 -0.0145
   78SLPC  H18R 7153   1.997   5.545   8.443  1.8602  0.2486  2.8900
   78SLPC  H18S 7154   1.897   5.407   8.516 -0.5640  0.1279 -1.0587
   78SLPC  H18T 7155   1.898   5.580   8.579 -1.5933  0.5446 -0.1476
   78SLPC   C33 7156   2.145   5.524   7.068 -0.1909  0.5598 -0.0913
   78SLPC   H3X 7157   2.086   5.429   7.073 -0.1924  0.6267  1.9604
   78SLPC   H3Y 7158   2.094   5.573   6.982 -1.2289 -1.3560 -0.6300
   78SLPC   C34 7159   2.116   5.587   7.202  0.5923  0.2648 -0.4747
   78SLPC   H4X 7160   2.008   5.585   7.230  0.5408 -0.9203 -0.6867
   78SLPC   H4Y 7161   2.152   5.691   7.193  2.0901 -0.3081 -1.3556
   78SLPC   C35 7162   2.188   5.511   7.316  1.0056  0.6425 -0.0666
   78SLPC   H5X 7163   2.201   5.404   7.287  1.2197  0.6554 -0.0267
   78SLPC   H5Y 7164   2.120   5.496   7.403 -0.5117 -3.6382 -1.7299
   78SLPC   C36 7165   2.309   5.584   7.369 -0.1144 -0.5044  0.0281
   78SLPC   H6X 7166   2.279   5.686   7.400 -0.0891 -0.4191 -0.2255
   78SLPC   H6Y 7167   2.381   5.597   7.286 -2.6930  0.8895 -2.1527
   78SLPC   C37 7168   2.367   5.510   7.483  0.7425  0.5922 -0.1857
   78SLPC   H7X 7169   2.434   5.427   7.451  0.4433  0.2833 -0.0221
   78SLPC   H7Y 7170   2.286   5.467   7.546 -1.4305  3.8363 -0.4855
   78SLPC   C38 7171   2.435   5.610   7.581 -0.5487  0.0736 -0.2656
   78SLPC   H8X 7172   2.379   5.705   7.596 -0.6770  0.2265 -1.5995
   78SLPC   H8Y 7173   2.532   5.651   7.544 -1.6244  0.9476 -2.2958
   78SLPC   C39 7174   2.448   5.535   7.713  0.1054 -0.2755 -0.4886
   78SLPC   H9X 7175   2.522   5.452   7.712 -1.2698 -1.5302 -0.5445
   78SLPC   H9Y 7176   2.353   5.500   7.758  1.5514 -0.5408  2.6056
   78SLPC  C310 7177   2.501   5.640   7.816 -0.3482  0.6601 -0.3499
   78SLPC  H10X 7178   2.423   5.714   7.842  0.0436  0.8028  0.4361
   78SLPC  H10Y 7179   2.588   5.698   7.780  0.4402  0.3083  0.9184
   78SLPC  C311 7180   2.542   5.581   7.951  0.0527 -0.1118  0.3712
   78SLPC  H11X 7181   2.631   5.515   7.940 -0.4920 -0.9983  1.1303
   78SLPC  H11Y 7182   2.457   5.513   7.973  0.5628 -0.8242  0.1769
   78SLPC  C312 7183   2.566   5.673   8.074 -0.9653 -0.0773 -0.2353
   78SLPC  H12X 7184   2.481   5.739   8.102  1.1078  2.0940  1.3801
   78SLPC  H12Y 7185   2.653   5.736   8.042  0.6704 -0.9489  2.2289
   78SLPC  C313 7186   2.606   5.600   8.196  0.0534 -0.1854  0.0637
   78SLPC  H13X 7187   2.690   5.538   8.161 -0.0007  0.4214 -1.1759
   78SLPC  H13Y 7188   2.522   5.530   8.215  0.7083 -1.2355 -0.8040
   78SLPC  C314 7189   2.654   5.694   8.316  0.0253  0.6608 -0.2159
   78SLPC  H14X 7190   2.571   5.735   8.377  0.0636  0.1410  0.1970
   78SLPC  H14Y 7191   2.706   5.779   8.267 -0.8834  1.3039 -0.0896
   78SLPC  C315 7192   2.747   5.623   8.411 -0.5501 -0.0728 -0.2187
   78SLPC  H15X 7193   2.846   5.590   8.373 -0.5142 -0.6589  0.3644
   78SLPC  H15Y 7194   2.701   5.527   8.441  1.5078 -0.3137  2.5397
   78SLPC  C316 7195   2.769   5.700   8.540 -0.6317  0.0548 -0.0773
   78SLPC  H16X 7196   2.816   5.633   8.615  0.0084  2.3277  1.6969
   78SLPC  H16Y 7197   2.675   5.727   8.593  0.7070  2.8766  1.0635
   78SLPC  C317 7198   2.863   5.822   8.532 -0.4384 -0.4495 -0.1592
   78SLPC  H17X 7199   2.892   5.884   8.620  2.2302  0.7961 -1.7787
   78SLPC  H17Y 7200   2.817   5.901   8.469  0.8237  1.2783  0.9922
   78SLPC  C318 7201   3.002   5.795   8.488 -0.2347  0.4928 -0.0999
   78SLPC  H18X 7202   3.004   5.714   8.411 -0.1941  1.4195 -1.1009
   78SLPC  H18Y 7203   3.059   5.746   8.570 -0.7488  0.2860  0.1389
   78SLPC  H18Z 7204   3.049   5.885   8.443 -1.1265 -0.1956 -2.5939
   79SLPC     N 7205   0.950   1.271   6.196  0.1341  0.6826 -0.0691
   79SLPC   C13 7206   0.967   1.215   6.061  0.5851  0.8555  0.2714
   79SLPC  H13A 7207   0.986   1.109   6.070 -1.0719  0.5132  0.0415
   79SLPC  H13B 7208   0.879   1.219   5.999  1.6694 -0.2630 -1.4093
   79SLPC  H13C 7209   1.055   1.258   6.015  0.5349 -0.3049 -0.9875
   79SLPC   C14 7210   0.835   1.223   6.270  0.4112 -0.3783 -0.0948
   79SLPC  H14A 7211   0.822   1.289   6.354  0.7405 -0.8404  0.3235
   79SLPC  H14B 7212   0.743   1.211   6.215 -0.2853 -1.4151  1.2331
   79SLPC  H14C 7213   0.857   1.127   6.313 -0.3353 -0.7694 -0.5615
   79SLPC   C15 7214   0.914   1.416   6.173 -0.3753 -0.1573 -0.0928
   79SLPC  H15A 7215   0.976   1.454   6.094 -0.3167  0.1555  0.0977
   79SLPC  H15B 7216   0.811   1.417   6.141 -0.2111 -0.5104 -0.6271
   79SLPC  H15C 7217   0.931   1.469   6.266 -1.4028 -1.0798  0.6486
   79SLPC   C12 7218   1.080   1.259   6.279 -0.3806  0.0803  0.3253
   79SLPC  H12A 7219   1.165   1.293   6.221 -0.5925  0.1095  0.0287
   79SLPC  H12B 7220   1.103   1.154   6.287  0.3106  0.2129  0.1723
   79SLPC   C11 7221   1.079   1.328   6.415 -0.5414  0.1791  0.0509
   79SLPC  H11A 7222   1.161   1.291   6.480 -0.7968  0.8577  0.7652
   79SLPC  H11B 7223   0.987   1.306   6.473  0.3892  1.5629  2.1518
   79SLPC     P 7224   1.181   1.563   6.445  0.1590 -0.2747  0.0625
   79SLPC   O13 7225   1.318   1.507   6.431  0.7441  0.1257  0.8089
   79SLPC   O14 7226   1.154   1.696   6.388  0.4591 -0.0618 -0.1761
   79SLPC   O12 7227   1.075   1.466   6.390 -0.2952 -0.2065  0.0181
   79SLPC   O11 7228   1.148   1.576   6.598  0.3761  0.3244 -0.0513
   79SLPC    C1 7229   1.022   1.593   6.669  1.1470  0.1856  0.2064
   79SLPC    HA 7230   0.938   1.557   6.607  2.3293 -0.1781 -1.2376
   79SLPC    HB 7231   1.028   1.529   6.760 -0.3410  1.2980  1.1259
   79SLPC    C2 7232   1.010   1.743   6.713 -0.5500  1.1169  0.3116
   79SLPC    HS 7233   0.981   1.792   6.617 -1.6102  0.2265  0.1562
   79SLPC   O21 7234   1.137   1.775   6.769 -0.1799  0.0005  0.1508
   79SLPC   C21 7235   1.206   1.878   6.711  0.3790 -0.4826 -0.3902
   79SLPC   O22 7236   1.168   1.931   6.606 -0.3440 -0.4072 -0.4140
   79SLPC   C22 7237   1.343   1.888   6.782 -0.1048 -0.1333  0.1102
   79SLPC   H2R 7238   1.358   1.803   6.853 -0.1004  1.5231  2.1968
   79SLPC   H2S 7239   1.427   1.885   6.710 -0.2511 -1.1029 -0.0337
   79SLPC    C3 7240   0.903   1.769   6.822 -1.0688  0.8880  0.8902
   79SLPC    HX 7241   0.926   1.700   6.907 -0.0322 -0.0334 -0.1006
   79SLPC    HY 7242   0.807   1.748   6.770  0.8375 -0.0330 -2.5998
   79SLPC   O31 7243   0.906   1.902   6.874 -0.3336 -0.2005 -0.7055
   79SLPC   C31 7244   0.885   2.003   6.798 -0.3033  0.3380  0.1740
   79SLPC   O32 7245   0.859   1.999   6.679  0.3572  0.1759  0.1060
   79SLPC   C32 7246   0.912   2.135   6.873  0.0140  1.0058 -0.0109
   79SLPC   H2X 7247   0.978   2.204   6.817  0.6035 -0.7486 -1.5783
   79SLPC   H2Y 7248   0.959   2.109   6.970  2.8053 -0.7837 -1.6971
   79SLPC   C23 7249   1.360   2.030   6.845  0.0395  0.2171  0.2829
   79SLPC   H3R 7250   1.324   2.107   6.774  0.2211  0.3266  0.3099
   79SLPC   H3S 7251   1.468   2.049   6.863  0.1839 -1.2437  1.0969
   79SLPC   C24 7252   1.283   2.052   6.977 -0.5359 -0.0969 -0.1695
   79SLPC   H4R 7253   1.310   1.987   7.063  1.2581  2.2321  1.1616
   79SLPC   H4S 7254   1.175   2.032   6.959 -0.5655  0.3480 -0.5050
   79SLPC   C25 7255   1.305   2.185   7.047 -0.3992 -0.9884  0.0330
   79SLPC   H5R 7256   1.257   2.268   6.992  1.1322  0.7604  1.2131
   79SLPC   H5S 7257   1.413   2.199   7.026 -0.0877 -2.0188  0.8517
   79SLPC   C26 7258   1.283   2.187   7.200  0.3658 -0.3168  0.0471
   79SLPC   H6R 7259   1.178   2.161   7.223  0.1041 -0.6961 -1.5138
   79SLPC   H6S 7260   1.303   2.293   7.230  2.4928 -0.5572 -0.3526
   79SLPC   C27 7261   1.384   2.113   7.292  1.4057 -0.3224  0.2749
   79SLPC   H7R 7262   1.486   2.157   7.282  0.7912  0.7903 -1.9191
   79SLPC   H7S 7263   1.377   2.005   7.268 -0.2583 -0.4196  1.0946
   79SLPC   C28 7264   1.334   2.122   7.440 -0.1862  0.3058 -0.4194
   79SLPC   H8R 7265   1.224   2.108   7.440 -0.0290 -1.2294 -2.1880
   79SLPC   H8S 7266   1.363   2.222   7.481  0.7402  1.6412 -3.9418
   79SLPC   C29 7267   1.394   2.003   7.520 -0.0402 -0.3285  0.1173
   79SLPC   H9R 7268   1.377   1.902   7.481 -0.1396 -0.5644  0.7611
   79SLPC  C210 7269   1.486   2.004   7.618  0.2925  0.8511  0.1680
   79SLPC  H10R 7270   1.519   1.903   7.646 -2.4777  0.3220  1.9133
   79SLPC  C211 7271   1.556   2.127   7.680 -0.7765  1.2234  0.4778
   79SLPC  H11R 7272   1.579   2.202   7.601  0.4028 -0.0574 -0.4352
   79SLPC  H11S 7273   1.655   2.088   7.710 -1.6568 -2.2761 -0.7026
   79SLPC  C212 7274   1.489   2.203   7.782  0.1468  0.3834  0.3015
   79SLPC  H12R 7275   1.484   2.312   7.768  1.5150  0.5504  0.8805
   79SLPC  C213 7276   1.446   2.155   7.904  0.5465  0.7752 -0.0370
   79SLPC  H13R 7277   1.409   2.234   7.971 -2.6478  0.8428 -1.6798
   79SLPC  C214 7278   1.458   2.013   7.956  0.2460  0.0164 -0.2480
   79SLPC  H14R 7279   1.492   2.011   8.062  1.1505 -0.4410 -0.5419
   79SLPC  H14S 7280   1.538   1.957   7.904 -0.9704 -2.4126  0.3023
   79SLPC  C215 7281   1.323   1.935   7.952 -0.2352 -0.0156  0.3528
   79SLPC  H15R 7282   1.348   1.827   7.950 -1.3196 -0.2651 -0.8882
   79SLPC  H15S 7283   1.288   1.949   7.847  0.9046  1.5131  0.1376
   79SLPC  C216 7284   1.210   1.983   8.050  0.0161 -0.0035  0.2755
   79SLPC  H16R 7285   1.201   2.093   8.044  1.7805  0.2763  1.8806
   79SLPC  H16S 7286   1.240   1.973   8.156 -2.6249  0.1737  1.1011
   79SLPC  C217 7287   1.078   1.911   8.015 -0.1170 -0.6826 -0.2961
   79SLPC  H17R 7288   1.091   1.803   8.040 -0.8935 -0.4886  1.0443
   79SLPC  H17S 7289   1.076   1.915   7.904 -0.4517 -1.7228 -0.3364
   79SLPC  C218 7290   0.949   1.982   8.064  0.0070 -0.4608 -0.2961
   79SLPC  H18R 7291   0.946   2.082   8.016  0.1238 -0.6078 -0.6121
   79SLPC  H18S 7292   0.939   1.984   8.175  0.7465 -1.9427 -0.1727
   79SLPC  H18T 7293   0.861   1.924   8.029 -0.6156  0.1130  0.2855
   79SLPC   C33 7294   0.786   2.221   6.898 -0.4358  0.0018 -0.3910
   79SLPC   H3X 7295   0.739   2.243   6.800  0.6842 -0.9973 -1.1824
   79SLPC   H3Y 7296   0.822   2.319   6.934  0.1074 -0.9934  1.9932
   79SLPC   C34 7297   0.682   2.155   6.988 -0.4314 -0.4316 -0.1310
   79SLPC   H4X 7298   0.643   2.057   6.952  2.6476 -1.3261 -1.3400
   79SLPC   H4Y 7299   0.599   2.229   6.993 -1.2921 -1.2740 -1.2149
   79SLPC   C35 7300   0.734   2.112   7.126  0.0918 -0.0696 -0.3259
   79SLPC   H5X 7301   0.819   2.040   7.118 -0.4461 -1.1328  2.3463
   79SLPC   H5Y 7302   0.658   2.056   7.186 -0.7301  2.1437  0.7991
   79SLPC   C36 7303   0.792   2.230   7.210 -0.4964  0.4908  0.0901
   79SLPC   H6X 7304   0.702   2.295   7.217  1.2718  3.0877  0.0985
   79SLPC   H6Y 7305   0.869   2.282   7.149 -2.1452 -1.4709 -4.0502
   79SLPC   C37 7306   0.851   2.190   7.347 -0.8175 -0.1882  0.6172
   79SLPC   H7X 7307   0.960   2.172   7.340 -1.1595 -1.7281 -1.8749
   79SLPC   H7Y 7308   0.802   2.094   7.375  0.1230 -0.3435  1.8059
   79SLPC   C38 7309   0.831   2.292   7.459 -0.2088  0.1733 -0.1828
   79SLPC   H8X 7310   0.724   2.320   7.466 -0.0390  0.3423  4.4503
   79SLPC   H8Y 7311   0.883   2.385   7.427  0.5969 -0.1529  0.1479
   79SLPC   C39 7312   0.869   2.252   7.598  0.2270 -0.5570  0.2647
   79SLPC   H9X 7313   0.964   2.196   7.597  0.1314 -0.7748  1.8334
   79SLPC   H9Y 7314   0.791   2.181   7.632  0.8843 -1.3957  0.0556
   79SLPC  C310 7315   0.883   2.372   7.700  0.8409  0.7825 -0.3134
   79SLPC  H10X 7316   0.785   2.418   7.723  0.5287  1.3331 -2.4950
   79SLPC  H10Y 7317   0.948   2.449   7.653  1.9424 -1.0635 -1.9579
   79SLPC  C311 7318   0.946   2.325   7.827 -0.8052  0.5019 -1.2317
   79SLPC  H11X 7319   1.042   2.273   7.812 -0.9336  0.0205 -0.4380
   79SLPC  H11Y 7320   0.876   2.251   7.870  0.0821  0.2170 -0.2670
   79SLPC  C312 7321   0.958   2.438   7.937  0.0909  0.0960 -0.0692
   79SLPC  H12X 7322   0.857   2.483   7.944 -0.5499 -1.3008  0.0082
   79SLPC  H12Y 7323   1.014   2.522   7.890 -0.2225  0.6154  0.4767
   79SLPC  C313 7324   1.020   2.389   8.069  0.7926  0.3164 -0.2403
   79SLPC  H13X 7325   1.120   2.347   8.048  0.5978  0.9636 -2.8044
   79SLPC  H13Y 7326   0.953   2.305   8.099  1.0243  0.8867  2.1533
   79SLPC  C314 7327   1.033   2.498   8.176  0.0633 -0.4355 -0.2200
   79SLPC  H14X 7328   0.944   2.564   8.183  0.6398  0.8379 -3.0982
   79SLPC  H14Y 7329   1.110   2.571   8.143 -0.7769 -0.4612 -2.4494
   79SLPC  C315 7330   1.051   2.443   8.310 -0.5166  0.0003  0.0778
   79SLPC  H15X 7331   1.101   2.525   8.366  2.4077 -0.2780 -1.9659
   79SLPC  H15Y 7332   1.104   2.345   8.317 -2.6594 -1.1147  2.8615
   79SLPC  C316 7333   0.923   2.428   8.389 -0.3687  0.4756 -0.1904
   79SLPC  H16X 7334   0.849   2.374   8.327 -1.5178 -0.3900  1.8095
   79SLPC  H16Y 7335   0.880   2.529   8.407 -0.8330  0.1570  0.5520
   79SLPC  C317 7336   0.923   2.349   8.524  0.3872 -0.5377  0.4105
   79SLPC  H17X 7337   0.820   2.365   8.562 -0.0190 -0.2653 -0.7543
   79SLPC  H17Y 7338   0.993   2.402   8.592 -0.4265 -0.3726  1.1346
   79SLPC  C318 7339   0.958   2.199   8.516  0.5048  0.0903  0.1504
   79SLPC  H18X 7340   1.062   2.174   8.484  1.1157  2.3551  0.1612
   79SLPC  H18Y 7341   0.908   2.167   8.422  0.0727  1.6617 -0.1900
   79SLPC  H18Z 7342   0.914   2.144   8.602 -0.7156  0.3102 -0.3253
   80SLPC     N 7343   2.691   0.119   6.531  0.3744 -0.2163  0.3372
   80SLPC   C13 7344   2.598   0.228   6.524 -0.4898 -0.1327 -0.1331
   80SLPC  H13A 7345   2.578   0.280   6.616  2.7391  0.3398  0.4215
   80SLPC  H13B 7346   2.625   0.295   6.443 -1.9378 -1.9003 -2.1996
   80SLPC  H13C 7347   2.510   0.187   6.477 -0.3005 -1.0622  0.2980
   80SLPC   C14 7348   2.674   0.043   6.656  0.2369  0.7477 -0.2883
   80SLPC  H14A 7349   2.572   0.012   6.672  0.6901 -1.3796 -1.2657
   80SLPC  H14B 7350   2.738  -0.044   6.650 -0.7285  0.1121 -2.9120
   80SLPC  H14C 7351   2.698   0.110   6.737  0.2020  1.5433 -0.9154
   80SLPC   C15 7352   2.826   0.179   6.528 -0.5128 -0.5000  0.9436
   80SLPC  H15A 7353   2.910   0.112   6.537  0.9395  0.7084 -2.0941
   80SLPC  H15B 7354   2.851   0.217   6.430  2.4878 -0.9515  1.4633
   80SLPC  H15C 7355   2.841   0.270   6.585  1.0003  0.5004 -0.9445
   80SLPC   C12 7356   2.669   0.023   6.415 -0.6380 -0.1508  0.1799
   80SLPC  H12A 7357   2.744  -0.054   6.409  1.3452  1.7347 -0.2085
   80SLPC  H12B 7358   2.667   0.080   6.323 -2.4040  1.2108  0.9875
   80SLPC   C11 7359   2.530  -0.046   6.420  0.3424  0.1044  0.4031
   80SLPC  H11A 7360   2.507  -0.068   6.314  2.8113  0.3377 -0.2337
   80SLPC  H11B 7361   2.439   0.003   6.462 -0.3348 -0.5971 -0.2326
   80SLPC     P 7362   2.615  -0.295   6.450 -0.2558 -0.0184 -0.2747
   80SLPC   O13 7363   2.652  -0.286   6.309 -0.0445 -0.4643 -0.2711
   80SLPC   O14 7364   2.718  -0.349   6.545 -0.1590  0.2471 -0.2009
   80SLPC   O12 7365   2.550  -0.163   6.502  0.0748  0.6829  0.1167
   80SLPC   O11 7366   2.506  -0.404   6.445  0.4627  0.5854 -0.2738
   80SLPC    C1 7367   2.372  -0.381   6.417  0.0777  1.2128  0.0082
   80SLPC    HA 7368   2.352  -0.272   6.414 -0.4395  1.1469 -3.1646
   80SLPC    HB 7369   2.349  -0.418   6.314  0.2810  1.5929 -0.1780
   80SLPC    C2 7370   2.276  -0.460   6.510 -0.2566  0.0651 -0.3388
   80SLPC    HS 7371   2.172  -0.427   6.487  0.0811 -0.4045 -2.7998
   80SLPC   O21 7372   2.310  -0.438   6.648  0.4814 -0.3390 -0.0702
   80SLPC   C21 7373   2.304  -0.314   6.691  0.1426  0.2742 -0.1564
   80SLPC   O22 7374   2.243  -0.222   6.641 -0.1718  0.3433 -0.2647
   80SLPC   C22 7375   2.404  -0.308   6.804 -0.1194  0.5155 -0.1232
   80SLPC   H2R 7376   2.371  -0.377   6.885 -1.0312  1.0223 -0.0547
   80SLPC   H2S 7377   2.499  -0.353   6.768 -0.5517 -1.3767  0.9851
   80SLPC    C3 7378   2.278  -0.613   6.482 -0.7318 -0.0467 -0.4525
   80SLPC    HX 7379   2.385  -0.643   6.474 -1.2141 -1.7703 -0.7396
   80SLPC    HY 7380   2.224  -0.613   6.385 -1.5141 -2.8412 -0.0950
   80SLPC   O31 7381   2.194  -0.690   6.578 -0.6732  0.2002 -0.3845
   80SLPC   C31 7382   2.260  -0.792   6.635 -0.2527  0.2401  0.5560
   80SLPC   O32 7383   2.369  -0.828   6.603 -0.1569  0.5967  0.5210
   80SLPC   C32 7384   2.173  -0.845   6.752 -0.5896  1.2613 -0.4390
   80SLPC   H2X 7385   2.098  -0.919   6.716 -0.3577 -0.0210  1.5064
   80SLPC   H2Y 7386   2.122  -0.766   6.811 -1.2502  0.4202  0.1497
   80SLPC   C23 7387   2.419  -0.169   6.867 -0.5471 -0.5468  0.3768
   80SLPC   H3R 7388   2.321  -0.123   6.889 -0.8523 -0.8338 -0.3719
   80SLPC   H3S 7389   2.479  -0.104   6.800  1.6174 -0.5131  2.2309
   80SLPC   C24 7390   2.506  -0.173   6.990 -0.3262  0.5848  0.0814
   80SLPC   H4R 7391   2.524  -0.065   7.010  3.3800  0.4145 -1.5258
   80SLPC   H4S 7392   2.609  -0.214   6.989 -0.0268  1.2968  0.6507
   80SLPC   C25 7393   2.442  -0.238   7.113  0.1246 -0.1395 -0.1233
   80SLPC   H5R 7394   2.454  -0.348   7.114  0.5034 -0.2027  4.2607
   80SLPC   H5S 7395   2.336  -0.204   7.117  0.0153 -0.6138  2.4852
   80SLPC   C26 7396   2.506  -0.187   7.242  0.3277  0.1556 -0.0933
   80SLPC   H6R 7397   2.524  -0.077   7.241  0.4889  0.1350  0.3976
   80SLPC   H6S 7398   2.606  -0.234   7.239 -0.2650 -1.0721 -1.6378
   80SLPC   C27 7399   2.443  -0.232   7.380  0.1958  0.1551  0.6999
   80SLPC   H7R 7400   2.451  -0.341   7.399 -1.1163  0.1293  1.1775
   80SLPC   H7S 7401   2.334  -0.212   7.386  0.0636 -0.6471  1.1284
   80SLPC   C28 7402   2.499  -0.160   7.503  0.5597  0.0728  0.2141
   80SLPC   H8R 7403   2.440  -0.196   7.590 -0.5701 -0.7591 -0.8583
   80SLPC   H8S 7404   2.467  -0.055   7.493 -2.0538 -0.3805  2.5492
   80SLPC   C29 7405   2.655  -0.175   7.516  0.3288  0.4078  0.4871
   80SLPC   H9R 7406   2.715  -0.135   7.432  0.4316 -1.7859 -0.5562
   80SLPC  C210 7407   2.718  -0.230   7.618 -0.6705 -0.3445 -1.2149
   80SLPC  H10R 7408   2.828  -0.231   7.619 -0.6255  1.2532 -1.6822
   80SLPC  C211 7409   2.657  -0.263   7.748  0.8633 -0.2006 -0.1657
   80SLPC  H11R 7410   2.684  -0.371   7.755  1.9282 -0.0488 -1.4169
   80SLPC  H11S 7411   2.547  -0.260   7.738  1.0198  0.8841 -2.2611
   80SLPC  C212 7412   2.710  -0.178   7.858 -0.1806  0.5429  0.6377
   80SLPC  H12R 7413   2.785  -0.101   7.834 -0.5039  0.1759 -1.7697
   80SLPC  C213 7414   2.647  -0.165   7.979 -0.7491  0.1455  1.1505
   80SLPC  H13R 7415   2.688  -0.087   8.046  1.6032 -0.1914  0.1993
   80SLPC  C214 7416   2.518  -0.228   8.019  0.1241 -0.0615 -0.1229
   80SLPC  H14R 7417   2.526  -0.251   8.127 -1.0376 -0.2219 -0.0594
   80SLPC  H14S 7418   2.508  -0.324   7.964  0.0778  0.6252 -1.3507
   80SLPC  C215 7419   2.386  -0.151   7.992 -0.3581  0.2283  0.1108
   80SLPC  H15R 7420   2.303  -0.221   8.015  0.8324 -1.4967 -0.6341
   80SLPC  H15S 7421   2.376  -0.135   7.883 -1.4455  0.1963  0.1966
   80SLPC  C216 7422   2.367  -0.022   8.076 -0.9396 -0.1658 -0.0361
   80SLPC  H16R 7423   2.447   0.051   8.051 -0.6696 -0.1503  0.8526
   80SLPC  H16S 7424   2.372  -0.052   8.182 -0.8752 -4.9050 -1.1550
   80SLPC  C217 7425   2.235   0.057   8.051 -0.1293 -0.2560  0.1294
   80SLPC  H17R 7426   2.228   0.075   7.941 -0.5710  0.6445  0.2921
   80SLPC  H17S 7427   2.221   0.157   8.097 -2.9940 -1.0257  1.1288
   80SLPC  C218 7428   2.106  -0.009   8.110  0.1508 -0.3808 -0.1612
   80SLPC  H18R 7429   2.103  -0.006   8.221  0.6161  1.6958 -0.1685
   80SLPC  H18S 7430   2.100  -0.114   8.072  2.5139 -0.5550 -0.1845
   80SLPC  H18T 7431   2.012   0.034   8.069 -0.5255 -0.0736  1.6134
   80SLPC   C33 7432   2.249  -0.921   6.862 -1.0221 -0.1418 -0.2036
   80SLPC   H3X 7433   2.279  -1.023   6.830 -2.6997 -0.3668 -1.2078
   80SLPC   H3Y 7434   2.182  -0.929   6.951  1.7453  1.6618  2.2210
   80SLPC   C34 7435   2.367  -0.846   6.920 -0.1360  0.3658  0.4565
   80SLPC   H4X 7436   2.460  -0.857   6.860  0.8691 -1.8410  2.2684
   80SLPC   H4Y 7437   2.401  -0.893   7.014  2.1286  1.0189  0.0318
   80SLPC   C35 7438   2.351  -0.691   6.964 -0.3613  0.3153 -0.1254
   80SLPC   H5X 7439   2.341  -0.622   6.878 -3.5441 -0.3840 -0.4319
   80SLPC   H5Y 7440   2.446  -0.672   7.020 -1.4659  2.0460  1.2689
   80SLPC   C36 7441   2.233  -0.653   7.054  0.2948 -0.8630 -1.3684
   80SLPC   H6X 7442   2.145  -0.668   6.987  2.9110 -0.3347 -5.2390
   80SLPC   H6Y 7443   2.239  -0.544   7.075 -3.1006 -1.0240  1.4374
   80SLPC   C37 7444   2.235  -0.743   7.177  0.9309  0.1340  0.0095
   80SLPC   H7X 7445   2.340  -0.734   7.211  1.5115  0.3746 -1.7765
   80SLPC   H7Y 7446   2.206  -0.846   7.148 -1.6589  1.5269 -2.8879
   80SLPC   C38 7447   2.144  -0.702   7.290  0.1891  0.4531  0.4748
   80SLPC   H8X 7448   2.144  -0.776   7.373 -2.3658 -2.2347 -1.6899
   80SLPC   H8Y 7449   2.039  -0.713   7.255  0.7421 -0.5195 -0.9928
   80SLPC   C39 7450   2.162  -0.560   7.347 -0.3641  0.3031  0.0207
   80SLPC   H9X 7451   2.113  -0.488   7.277 -0.6037 -1.7797 -2.0800
   80SLPC   H9Y 7452   2.271  -0.543   7.350 -0.5181  1.3466  0.0564
   80SLPC  C310 7453   2.098  -0.547   7.486 -0.4940  0.3600  0.2069
   80SLPC  H10X 7454   2.163  -0.616   7.544 -1.5538 -0.8668 -0.0166
   80SLPC  H10Y 7455   1.992  -0.579   7.480 -0.1786 -0.5052 -1.1979
   80SLPC  C311 7456   2.092  -0.405   7.533  0.2565 -0.2029 -0.3742
   80SLPC  H11X 7457   2.020  -0.343   7.475  0.5287  1.4699  0.9994
   80SLPC  H11Y 7458   2.186  -0.347   7.519 -1.7229  2.8831 -1.9477
   80SLPC  C312 7459   2.038  -0.388   7.680 -0.1489  0.3419 -0.0748
   80SLPC  H12X 7460   1.957  -0.463   7.670 -0.2694  0.6613 -2.0266
   80SLPC  H12Y 7461   1.989  -0.292   7.705 -1.0737 -0.2496  0.4212
   80SLPC  C313 7462   2.135  -0.426   7.788 -0.3990  0.0870  0.0341
   80SLPC  H13X 7463   2.218  -0.352   7.793  1.2457 -1.6770 -0.0798
   80SLPC  H13Y 7464   2.195  -0.515   7.760 -0.1327 -1.1110  3.8153
   80SLPC  C314 7465   2.076  -0.436   7.933 -0.5043  0.2956  0.5776
   80SLPC  H14X 7466   1.991  -0.508   7.925  0.0426 -0.2241 -0.9574
   80SLPC  H14Y 7467   2.039  -0.332   7.945  1.1730  1.2844 -2.1127
   80SLPC  C315 7468   2.174  -0.473   8.045 -0.2898  0.7425  0.4761
   80SLPC  H15X 7469   2.281  -0.450   8.027  0.3728  1.1377  4.1643
   80SLPC  H15Y 7470   2.179  -0.583   8.061  2.0431  0.5347 -1.2239
   80SLPC  C316 7471   2.128  -0.418   8.172  0.3612 -0.5535 -0.4982
   80SLPC  H16X 7472   2.041  -0.475   8.211  2.8742 -4.3441  0.0108
   80SLPC  H16Y 7473   2.105  -0.309   8.169  1.0228 -0.4143 -0.7244
   80SLPC  C317 7474   2.242  -0.417   8.282  0.8247 -0.6104 -1.0334
   80SLPC  H17X 7475   2.204  -0.368   8.375 -0.8721 -1.6563 -1.1314
   80SLPC  H17Y 7476   2.326  -0.361   8.237 -0.7756  1.1063 -2.0230
   80SLPC  C318 7477   2.288  -0.559   8.321  0.2701  0.2562 -0.0981
   80SLPC  H18X 7478   2.350  -0.545   8.412 -0.4012  1.5894  0.1745
   80SLPC  H18Y 7479   2.356  -0.601   8.244 -1.0556  2.2475 -2.4838
   80SLPC  H18Z 7480   2.199  -0.623   8.342 -0.7098  0.9018 -2.0066
   81SAPS     N 7481   2.933   0.789  11.519 -0.2881  0.0330 -0.5943
   81SAPS   HN1 7482   2.902   0.724  11.594  2.4130 -1.7115 -0.8189
   81SAPS   HN2 7483   3.016   0.843  11.552  0.6911 -1.2178 -0.9091
   81SAPS   HN3 7484   2.853   0.850  11.494  0.7413  0.8636 -1.9615
   81SAPS   C12 7485   2.961   0.713  11.386  0.0678 -0.0576  0.0860
   81SAPS  H12A 7486   3.043   0.756  11.331  0.5527 -0.8312  0.1995
   81SAPS   C13 7487   3.010   0.574  11.418 -0.3337 -0.3903  0.1413
   81SAPS  O13A 7488   3.001   0.531  11.539  0.4282  0.4659  0.4355
   81SAPS  O13B 7489   3.062   0.499  11.332  0.4667  0.0589  0.4390
   81SAPS   C11 7490   2.833   0.702  11.296  0.0441  0.1753 -0.5272
   81SAPS  H11A 7491   2.763   0.649  11.364  1.4412  1.7560  2.3657
   81SAPS  H11B 7492   2.854   0.646  11.203  0.3971 -3.1382  1.4033
   81SAPS     P 7493   2.862   0.941  11.164 -0.1873  0.1715  0.2415
   81SAPS   O13 7494   2.797   1.069  11.156 -0.5095 -0.1313  0.4016
   81SAPS   O14 7495   3.007   0.935  11.191 -0.4918  0.1421  0.0502
   81SAPS   O12 7496   2.784   0.837  11.267 -0.4561  0.4187 -0.7875
   81SAPS   O11 7497   2.836   0.871  11.021 -0.4237  0.1146 -0.1897
   81SAPS    C1 7498   2.700   0.856  10.969 -0.4597 -0.2731 -0.4319
   81SAPS    HA 7499   2.679   0.747  10.972  0.6555 -0.5968 -2.4120
   81SAPS    HB 7500   2.620   0.909  11.025 -1.6491 -0.5595 -1.7915
   81SAPS    C2 7501   2.703   0.894  10.825  0.8702 -0.7988 -0.1717
   81SAPS    HS 7502   2.598   0.893  10.788  0.6293 -1.2583  0.5192
   81SAPS   O21 7503   2.786   0.801  10.753  0.1560  0.0050 -0.0539
   81SAPS   C21 7504   2.755   0.775  10.623 -0.1126 -0.8926 -0.7036
   81SAPS   O22 7505   2.653   0.808  10.567 -0.1464  0.2950 -0.5533
   81SAPS   C22 7506   2.880   0.724  10.561  0.5964 -0.4846 -0.4974
   81SAPS   H2R 7507   2.960   0.800  10.570 -0.3988  0.3675  1.7767
   81SAPS   H2S 7508   2.916   0.631  10.611 -0.5919 -0.4933  0.3847
   81SAPS    C3 7509   2.762   1.048  10.803  0.2921  0.5609 -0.6189
   81SAPS    HX 7510   2.869   1.038  10.831  0.1554 -3.8468 -0.9222
   81SAPS    HY 7511   2.714   1.106  10.885 -2.9741 -1.5603 -0.8413
   81SAPS   O31 7512   2.752   1.103  10.673  0.5729  0.5763  0.4524
   81SAPS   C31 7513   2.681   1.217  10.654 -0.1941 -0.2481 -0.2044
   81SAPS   O32 7514   2.649   1.291  10.743  0.3061 -0.3999  0.1180
   81SAPS   C32 7515   2.645   1.221  10.506  0.6710 -0.2022 -0.0197
   81SAPS   H2X 7516   2.546   1.175  10.486  1.5489 -1.1817 -2.4181
   81SAPS   H2Y 7517   2.721   1.162  10.452  0.6035  1.5803 -2.2052
   81SAPS   C23 7518   2.853   0.686  10.415 -0.1171  0.4376  0.0432
   81SAPS   H3R 7519   2.820   0.768  10.347 -1.4434 -0.2436 -0.1611
   81SAPS   H3S 7520   2.773   0.610  10.408 -2.3026  2.1436  3.7275
   81SAPS   C24 7521   2.968   0.610  10.354 -0.4666  0.9025  0.5853
   81SAPS   H4R 7522   2.930   0.564  10.261 -1.4088  3.1976 -0.2272
   81SAPS   H4S 7523   2.989   0.524  10.422 -0.8652  1.1084  0.9689
   81SAPS   C25 7524   3.086   0.696  10.338 -0.7854 -0.3537 -0.1792
   81SAPS   H5R 7525   3.151   0.727  10.420 -2.1081 -1.3769  1.3283
   81SAPS   C26 7526   3.119   0.760  10.225  0.6630 -0.0078  0.7119
   81SAPS   H6R 7527   3.208   0.825  10.229 -0.2373  1.4332 -1.1612
   81SAPS   C27 7528   3.071   0.751  10.080  0.7783  0.0870 -0.5598
   81SAPS   H7R 7529   3.130   0.670  10.033 -1.5334 -2.5542  0.7606
   81SAPS   H7S 7530   3.097   0.847  10.032 -2.3956  1.9958  1.1879
   81SAPS   C28 7531   2.920   0.743  10.055  0.0674 -0.4066 -0.2351
   81SAPS   H8R 7532   2.849   0.806  10.111 -1.8087 -1.3505 -1.4557
   81SAPS   C29 7533   2.859   0.664   9.963  0.5406 -0.5885 -0.0556
   81SAPS   H9R 7534   2.753   0.682   9.939  0.1027 -1.7328  0.9524
   81SAPS  C210 7535   2.938   0.574   9.877  0.4646  0.2932 -0.3669
   81SAPS  H10R 7536   2.870   0.493   9.844  0.5000 -0.0558  0.3890
   81SAPS  H10S 7537   3.019   0.528   9.937  1.6022  0.4856 -1.7100
   81SAPS  C211 7538   3.004   0.636   9.749  0.4959  0.5019  0.4263
   81SAPS  H11R 7539   3.110   0.663   9.751  1.0869 -1.0718 -3.0935
   81SAPS  C212 7540   2.945   0.630   9.629  0.3846 -0.4488 -0.4846
   81SAPS  H12R 7541   2.989   0.674   9.538  0.2969 -1.2423 -0.9106
   81SAPS  C213 7542   2.806   0.581   9.620 -0.4743  0.1437 -0.0635
   81SAPS  H13R 7543   2.763   0.649   9.542 -0.8136  1.1974  1.0103
   81SAPS  H13S 7544   2.740   0.614   9.702 -0.6340  0.1671 -0.1997
   81SAPS  C214 7545   2.790   0.434   9.589  0.2923 -0.1861 -0.4800
   81SAPS  H14R 7546   2.846   0.373   9.662 -0.3650  0.9919  1.0603
   81SAPS  C215 7547   2.717   0.378   9.492  0.2726  0.4925 -0.0177
   81SAPS  H15R 7548   2.729   0.269   9.482  0.5300  0.5054  0.1498
   81SAPS  C216 7549   2.635   0.450   9.388  0.1598 -0.5035 -0.7407
   81SAPS  H16R 7550   2.612   0.550   9.431  1.4504 -0.8693  0.9144
   81SAPS  H16S 7551   2.541   0.393   9.374 -0.8436  0.1318  2.5177
   81SAPS  C217 7552   2.694   0.482   9.251 -0.2674  0.3148  0.6179
   81SAPS  H17R 7553   2.725   0.380   9.218  2.4260  0.3504  2.7191
   81SAPS  H17S 7554   2.786   0.542   9.268  0.3568 -0.1698 -0.8799
   81SAPS  C218 7555   2.607   0.550   9.145  0.5875 -0.5102  0.1339
   81SAPS  H18R 7556   2.664   0.565   9.051 -0.4072  0.3626 -0.3370
   81SAPS  H18S 7557   2.585   0.654   9.175  1.1017 -1.1202  2.8710
   81SAPS  C219 7558   2.486   0.465   9.108 -0.4375  0.3410  0.6574
   81SAPS  H19R 7559   2.412   0.532   9.059  0.2719  0.7299  0.0854
   81SAPS  H19S 7560   2.434   0.428   9.198  2.4713 -2.0487  1.5068
   81SAPS  C220 7561   2.510   0.345   9.017 -0.6265 -0.5208  0.2101
   81SAPS  H20R 7562   2.597   0.370   8.952  0.5090 -1.5335  1.2843
   81SAPS  H20S 7563   2.419   0.327   8.956 -0.1895  2.1196 -1.3599
   81SAPS  H20T 7564   2.547   0.250   9.062  0.7793  0.1070  0.4238
   81SAPS   C33 7565   2.649   1.359  10.442  0.4133  0.1797  0.3780
   81SAPS   H3X 7566   2.750   1.407  10.442  0.7752 -0.5364 -0.8776
   81SAPS   H3Y 7567   2.581   1.437  10.483  0.0415  0.1293 -0.1245
   81SAPS   C34 7568   2.620   1.346  10.286 -0.1001  0.8028 -0.5582
   81SAPS   H4X 7569   2.512   1.328  10.266  0.6051 -4.3455 -1.3369
   81SAPS   H4Y 7570   2.659   1.246  10.256 -0.1227  0.8425 -0.7196
   81SAPS   C35 7571   2.669   1.461  10.198 -0.4152  0.3750  0.7267
   81SAPS   H5X 7572   2.659   1.438  10.090 -0.7101 -0.2754  0.8845
   81SAPS   H5Y 7573   2.775   1.482  10.224  0.3776  1.4647 -2.8563
   81SAPS   C36 7574   2.595   1.594  10.222 -0.7820 -0.8221  0.7454
   81SAPS   H6X 7575   2.606   1.627  10.328 -0.0295 -0.7336  0.6505
   81SAPS   H6Y 7576   2.486   1.582  10.205 -0.9305  2.8066 -1.9644
   81SAPS   C37 7577   2.655   1.709  10.129  0.2522  0.0617  0.4449
   81SAPS   H7X 7578   2.757   1.738  10.164  0.0156  0.1884  1.0314
   81SAPS   H7Y 7579   2.593   1.794  10.165  0.4483 -1.1733  4.0889
   81SAPS   C38 7580   2.648   1.696   9.977 -0.5416 -0.1578  0.0398
   81SAPS   H8X 7581   2.549   1.697   9.927 -0.0279  1.8695 -1.0936
   81SAPS   H8Y 7582   2.693   1.603   9.936 -0.3691 -0.9914  2.0411
   81SAPS   C39 7583   2.720   1.806   9.897 -0.4604  0.0064  0.1139
   81SAPS   H9X 7584   2.816   1.785   9.950 -1.8530 -0.2421  2.7041
   81SAPS   H9Y 7585   2.696   1.908   9.932 -0.9927 -0.8776  2.5626
   81SAPS  C310 7586   2.719   1.791   9.743  0.3587 -1.3551  0.1657
   81SAPS  H10X 7587   2.617   1.826   9.717  0.9923  2.0634  1.7699
   81SAPS  H10Y 7588   2.730   1.683   9.719  2.2375 -0.9130 -1.2211
   81SAPS  C311 7589   2.822   1.871   9.666  0.1086  0.5427 -0.2961
   81SAPS  H11X 7590   2.922   1.829   9.691 -0.8679 -1.3303  0.6848
   81SAPS  H11Y 7591   2.811   1.976   9.701  2.4830  0.5000  0.8472
   81SAPS  C312 7592   2.807   1.866   9.511  0.7446  0.4273 -0.9784
   81SAPS  H12X 7593   2.815   1.758   9.483  0.2952  0.7221 -2.2964
   81SAPS  H12Y 7594   2.877   1.940   9.466 -0.1645  1.6084 -0.4986
   81SAPS  C313 7595   2.669   1.911   9.460 -0.0270  0.5141 -0.2166
   81SAPS  H13X 7596   2.633   1.998   9.520  1.8057 -0.2429  2.1395
   81SAPS  H13Y 7597   2.594   1.832   9.483  0.1626 -0.0878 -1.5673
   81SAPS  C314 7598   2.668   1.933   9.308 -0.3263 -0.0819 -0.0861
   81SAPS  H14X 7599   2.728   2.023   9.286 -0.8566  0.3271  0.1177
   81SAPS  H14Y 7600   2.567   1.951   9.265  0.2571 -0.0313 -1.4921
   81SAPS  C315 7601   2.740   1.827   9.226  0.0037 -0.5510  0.0679
   81SAPS  H15X 7602   2.841   1.800   9.262  0.6740  0.3521 -1.0473
   81SAPS  H15Y 7603   2.749   1.865   9.122 -0.5503 -1.4521 -0.3233
   81SAPS  C316 7604   2.650   1.703   9.211  0.1993 -0.2493  0.4705
   81SAPS  H16X 7605   2.568   1.728   9.141 -0.3708 -0.5781  1.0129
   81SAPS  H16Y 7606   2.608   1.691   9.313 -0.1091  2.3631  0.7282
   81SAPS  C317 7607   2.728   1.576   9.165  0.1574  0.1203  0.0152
   81SAPS  H17X 7608   2.668   1.483   9.170 -0.4896  0.5813  1.4035
   81SAPS  H17Y 7609   2.808   1.572   9.242  0.3581  0.1550 -0.1921
   81SAPS  C318 7610   2.798   1.603   9.032 -0.5881  0.2349  0.8076
   81SAPS  H18X 7611   2.857   1.696   9.035  1.2954 -0.8875  0.3078
   81SAPS  H18Y 7612   2.725   1.596   8.948 -0.2099  1.4910  0.3593
   81SAPS  H18Z 7613   2.874   1.522   9.026  1.8189  2.4857 -0.9964
   82SAPS     N 7614   1.619   1.201  11.031  0.5286 -0.0828 -0.6649
   82SAPS   HN1 7615   1.666   1.229  11.120  0.1916  0.8940 -0.7760
   82SAPS   HN2 7616   1.693   1.191  10.960  0.4904 -0.2831 -0.6768
   82SAPS   HN3 7617   1.569   1.286  10.997  1.4816  0.5727 -0.4672
   82SAPS   C12 7618   1.541   1.070  11.047  0.1084 -0.9405  0.5222
   82SAPS  H12A 7619   1.602   0.988  11.081 -0.7256 -1.0826  1.7200
   82SAPS   C13 7620   1.427   1.054  11.149  0.3230 -0.4709  0.1535
   82SAPS  O13A 7621   1.377   1.160  11.203  0.3925  0.2722  0.4118
   82SAPS  O13B 7622   1.369   0.941  11.159 -0.3267 -0.3366 -0.5711
   82SAPS   C11 7623   1.502   1.039  10.905  0.8868 -0.2655 -0.0703
   82SAPS  H11A 7624   1.448   1.124  10.857 -0.5144 -1.3421 -0.4613
   82SAPS  H11B 7625   1.429   0.956  10.913 -0.6093  1.0054  0.0136
   82SAPS     P 7626   1.597   0.927  10.684  0.0438  0.4464 -0.1780
   82SAPS   O13 7627   1.727   0.861  10.643  0.4657  0.2321  0.3829
   82SAPS   O14 7628   1.471   0.846  10.689  0.5653  0.1025  0.0374
   82SAPS   O12 7629   1.613   0.998  10.825 -0.5002 -0.0368 -0.8337
   82SAPS   O11 7630   1.561   1.057  10.602 -0.7744  0.3923 -0.3977
   82SAPS    C1 7631   1.547   1.055  10.458 -0.8863 -0.9346  1.1353
   82SAPS    HA 7632   1.614   1.137  10.422  0.7120 -2.2461  1.0039
   82SAPS    HB 7633   1.592   0.962  10.418  2.4834  0.3703  1.5394
   82SAPS    C2 7634   1.406   1.088  10.422 -0.0998  0.1738 -0.5807
   82SAPS    HS 7635   1.353   0.991  10.430  0.3284 -0.0021  0.1719
   82SAPS   O21 7636   1.398   1.134  10.285  0.1200  0.1095 -0.3889
   82SAPS   C21 7637   1.403   1.033  10.196 -0.5183 -0.5888 -0.1513
   82SAPS   O22 7638   1.425   0.917  10.218  0.4524 -0.0398 -0.0231
   82SAPS   C22 7639   1.392   1.093  10.055  0.7297 -0.5868  0.1176
   82SAPS   H2R 7640   1.293   1.056  10.022 -1.2595  3.2034  1.2068
   82SAPS   H2S 7641   1.384   1.200  10.083 -0.6655 -1.0857  1.7999
   82SAPS    C3 7642   1.346   1.201  10.510  0.0044  0.3741  0.0130
   82SAPS    HX 7643   1.416   1.287  10.506 -0.2909  0.6617  0.7526
   82SAPS    HY 7644   1.347   1.184  10.620 -2.6843 -1.3437 -0.1217
   82SAPS   O31 7645   1.220   1.252  10.467 -0.3562  0.7269  1.0637
   82SAPS   C31 7646   1.114   1.172  10.498 -0.0187 -0.0468 -0.0803
   82SAPS   O32 7647   1.125   1.064  10.553 -0.5529 -0.1153 -0.6947
   82SAPS   C32 7648   0.977   1.241  10.455 -0.5251 -0.3283 -0.2559
   82SAPS   H2X 7649   0.959   1.333  10.515 -0.2394 -0.5655  0.2027
   82SAPS   H2Y 7650   0.894   1.176  10.490 -1.6776  0.7182 -0.9870
   82SAPS   C23 7651   1.512   1.070   9.970 -0.2679  0.1917  0.0991
   82SAPS   H3R 7652   1.516   0.965   9.935  0.2722  0.5234 -0.8955
   82SAPS   H3S 7653   1.599   1.075  10.038  1.2761 -1.8002 -1.5976
   82SAPS   C24 7654   1.510   1.155   9.853 -0.1905 -0.4772  0.0540
   82SAPS   H4R 7655   1.494   1.258   9.892  0.2256  0.2195 -1.5147
   82SAPS   H4S 7656   1.420   1.129   9.792  1.1106 -2.8942 -0.9893
   82SAPS   C25 7657   1.640   1.137   9.776 -0.1330  0.4687 -0.0179
   82SAPS   H5R 7658   1.729   1.158   9.838 -0.9218 -1.9248  2.1355
   82SAPS   C26 7659   1.653   1.106   9.646  0.1236 -0.3986  0.0982
   82SAPS   H6R 7660   1.753   1.089   9.604  0.7445  1.3216  0.7910
   82SAPS   C27 7661   1.539   1.102   9.550  0.1702  0.0894 -0.3432
   82SAPS   H7R 7662   1.437   1.105   9.594 -0.2474  0.4458 -1.3127
   82SAPS   H7S 7663   1.544   1.006   9.494 -1.0913  0.3638 -0.9747
   82SAPS   C28 7664   1.543   1.194   9.432 -0.0686 -0.5894  0.0522
   82SAPS   H8R 7665   1.495   1.289   9.460 -0.3574  0.2038 -2.8169
   82SAPS   C29 7666   1.602   1.176   9.314  0.0778  0.3298  0.1280
   82SAPS   H9R 7667   1.592   1.261   9.244 -2.3473 -1.2422 -1.5996
   82SAPS  C210 7668   1.671   1.063   9.249 -0.3795  0.8804  0.7512
   82SAPS  H10R 7669   1.646   0.970   9.306  1.4121 -0.9731 -1.2779
   82SAPS  H10S 7670   1.781   1.068   9.262  0.1627  1.2812 -2.9633
   82SAPS  C211 7671   1.639   1.024   9.112  0.0770  0.7310  1.1317
   82SAPS  H11R 7672   1.547   0.967   9.094 -0.8050  1.8238  2.0052
   82SAPS  C212 7673   1.714   1.037   9.001  0.0765  0.3451 -0.0429
   82SAPS  H12R 7674   1.670   1.014   8.903  1.0438 -1.1243 -0.1617
   82SAPS  C213 7675   1.848   1.103   8.990  0.1339 -0.0946  0.0896
   82SAPS  H13R 7676   1.927   1.026   8.999 -0.4282 -0.8943 -1.4555
   82SAPS  H13S 7677   1.856   1.171   9.078  0.8665 -0.9931  0.7362
   82SAPS  C214 7678   1.876   1.179   8.860 -0.3835 -0.4297 -0.3333
   82SAPS  H14R 7679   1.956   1.137   8.797  1.2450  1.4157  0.4032
   82SAPS  C215 7680   1.817   1.297   8.822  0.2482  0.0927 -0.1267
   82SAPS  H15R 7681   1.840   1.340   8.724  1.3230 -1.7664 -0.7223
   82SAPS  C216 7682   1.719   1.374   8.907  0.4088 -0.2057 -1.2993
   82SAPS  H16R 7683   1.746   1.481   8.902 -3.2756  1.2090  2.5958
   82SAPS  H16S 7684   1.719   1.340   9.013  1.8145  0.9780 -0.8918
   82SAPS  C217 7685   1.580   1.342   8.863  0.3918 -0.7857  0.7252
   82SAPS  H17R 7686   1.510   1.407   8.921  1.4048  0.4172  0.6518
   82SAPS  H17S 7687   1.551   1.237   8.883 -0.9512 -0.7601 -0.8801
   82SAPS  C218 7688   1.550   1.385   8.710 -0.4404 -0.0221 -0.3390
   82SAPS  H18R 7689   1.527   1.290   8.659 -0.3943 -0.8096  1.0464
   82SAPS  H18S 7690   1.641   1.443   8.685  0.7550 -0.1018  3.1520
   82SAPS  C219 7691   1.434   1.482   8.694  0.1640  0.0215 -0.0146
   82SAPS  H19R 7692   1.447   1.525   8.592  1.7651  1.9074  0.9196
   82SAPS  H19S 7693   1.458   1.566   8.762  2.4074  0.0231 -0.7422
   82SAPS  C220 7694   1.301   1.413   8.711  0.7713  0.6122  0.7624
   82SAPS  H20R 7695   1.221   1.487   8.693  1.0125  0.7311  0.1562
   82SAPS  H20S 7696   1.286   1.369   8.812  3.2787 -2.8912 -0.1791
   82SAPS  H20T 7697   1.283   1.330   8.640  0.4040  1.7681 -0.5332
   82SAPS   C33 7698   0.976   1.254  10.299 -0.3213  0.2976  0.2556
   82SAPS   H3X 7699   1.024   1.161  10.262 -3.0814 -1.3537  0.5126
   82SAPS   H3Y 7700   1.043   1.336  10.265  1.0114 -0.6904  0.4348
   82SAPS   C34 7701   0.841   1.254  10.239  0.0040 -0.2037  0.6977
   82SAPS   H4X 7702   0.778   1.318  10.304 -0.6673  0.7353 -0.8105
   82SAPS   H4Y 7703   0.810   1.148  10.238  1.2953 -0.5996  0.4914
   82SAPS   C35 7704   0.827   1.311  10.089  0.8057  0.1144 -0.1898
   82SAPS   H5X 7705   0.884   1.239  10.028  0.8831 -1.4091  1.5822
   82SAPS   H5Y 7706   0.877   1.411  10.081 -0.1518  0.4946 -1.8535
   82SAPS   C36 7707   0.680   1.316  10.046  0.7689 -0.5858  0.0560
   82SAPS   H6X 7708   0.617   1.381  10.110  1.4128  0.3709 -0.2740
   82SAPS   H6Y 7709   0.636   1.214  10.051  1.6634 -0.9380  1.0918
   82SAPS   C37 7710   0.671   1.350   9.897  0.3983  0.3886 -0.0043
   82SAPS   H7X 7711   0.733   1.284   9.833  0.4624 -0.1535  0.6168
   82SAPS   H7Y 7712   0.718   1.451   9.891 -0.0475  0.7832  2.3335
   82SAPS   C38 7713   0.524   1.363   9.840 -0.0543 -0.5797  0.0328
   82SAPS   H8X 7714   0.460   1.418   9.912 -1.5785 -1.6177 -0.4869
   82SAPS   H8Y 7715   0.487   1.258   9.840 -1.4515 -0.1036  0.5152
   82SAPS   C39 7716   0.530   1.420   9.704  0.0675 -0.9733 -0.1027
   82SAPS   H9X 7717   0.561   1.350   9.623 -1.7504  0.1072 -1.8100
   82SAPS   H9Y 7718   0.613   1.493   9.694  0.2804 -1.2060 -0.0571
   82SAPS  C310 7719   0.400   1.491   9.656 -0.6044  0.4138 -0.2747
   82SAPS  H10X 7720   0.382   1.577   9.724  0.7778 -0.6662  1.5492
   82SAPS  H10Y 7721   0.320   1.414   9.654 -0.7636  0.5820 -0.3987
   82SAPS  C311 7722   0.407   1.545   9.517 -0.3467  0.0339 -0.2835
   82SAPS  H11X 7723   0.497   1.609   9.511  3.8683 -5.0876  1.0208
   82SAPS  H11Y 7724   0.321   1.612   9.497 -1.4800 -1.3973 -0.3592
   82SAPS  C312 7725   0.399   1.447   9.405 -0.3463  0.6608 -0.2402
   82SAPS  H12X 7726   0.345   1.352   9.425  1.3835 -0.3223 -0.0454
   82SAPS  H12Y 7727   0.501   1.408   9.380 -0.7388 -1.8329  1.6215
   82SAPS  C313 7728   0.341   1.506   9.272  0.1846  0.2276  0.6656
   82SAPS  H13X 7729   0.237   1.537   9.298  1.3821  3.4907  2.0845
   82SAPS  H13Y 7730   0.330   1.422   9.200  2.9090 -1.1494  1.7303
   82SAPS  C314 7731   0.420   1.632   9.227  0.0679  0.1880 -0.1518
   82SAPS  H14X 7732   0.506   1.603   9.163 -0.0635  0.7251 -0.5856
   82SAPS  H14Y 7733   0.443   1.686   9.321  0.0527 -2.3828  1.4163
   82SAPS  C315 7734   0.331   1.719   9.131 -0.5971  0.0271  0.3852
   82SAPS  H15X 7735   0.244   1.750   9.193 -0.5254  0.3257  0.3408
   82SAPS  H15Y 7736   0.291   1.652   9.052  0.0496 -0.3139  0.3433
   82SAPS  C316 7737   0.392   1.841   9.066  0.2082  0.8918 -0.2472
   82SAPS  H16X 7738   0.503   1.829   9.067 -0.0190 -2.1444  0.9545
   82SAPS  H16Y 7739   0.369   1.924   9.136 -0.7944 -1.3906  2.3353
   82SAPS  C317 7740   0.342   1.877   8.924  0.5976 -0.6598  0.0692
   82SAPS  H17X 7741   0.237   1.911   8.938  0.9793  0.4575  0.3918
   82SAPS  H17Y 7742   0.340   1.786   8.862 -0.2246  0.2290 -1.2607
   82SAPS  C318 7743   0.423   1.980   8.850 -0.2325 -0.4842  0.9049
   82SAPS  H18X 7744   0.449   2.073   8.905 -0.7868 -0.1790  0.6530
   82SAPS  H18Y 7745   0.371   2.022   8.761 -0.2385  1.0268  1.5986
   82SAPS  H18Z 7746   0.523   1.941   8.822  0.6992  1.0707  1.9411
   83SAPS     N 7747   1.830   1.572  11.138 -0.5060  0.3293 -0.5276
   83SAPS   HN1 7748   1.726   1.581  11.146 -1.1662 -2.0668 -4.1488
   83SAPS   HN2 7749   1.875   1.665  11.127  1.0926 -0.1122  1.6210
   83SAPS   HN3 7750   1.852   1.525  11.048  0.0464  3.6144 -2.2712
   83SAPS   C12 7751   1.880   1.520  11.268  0.1470  0.4332  0.8743
   83SAPS  H12A 7752   1.849   1.574  11.356 -1.0103 -2.1167  2.1571
   83SAPS   C13 7753   1.843   1.378  11.292 -0.2688  0.3950 -0.4966
   83SAPS  O13A 7754   1.748   1.324  11.224 -0.4049  0.6610 -0.0910
   83SAPS  O13B 7755   1.890   1.324  11.397  0.2275 -0.4760  0.2501
   83SAPS   C11 7756   2.034   1.544  11.260  0.4512 -0.2161 -0.0041
   83SAPS  H11A 7757   2.086   1.473  11.193  0.5068 -1.9988  1.8253
   83SAPS  H11B 7758   2.063   1.529  11.367 -0.5007  1.3301  0.5001
   83SAPS     P 7759   2.198   1.760  11.259 -0.3186  0.3154 -0.0036
   83SAPS   O13 7760   2.163   1.887  11.322 -0.7858 -0.5341 -0.2832
   83SAPS   O14 7761   2.286   1.673  11.341 -0.2799  0.6447 -0.0436
   83SAPS   O12 7762   2.062   1.679  11.231 -0.3987 -0.0363  0.5342
   83SAPS   O11 7763   2.251   1.785  11.110 -0.6484 -0.2717  0.2864
   83SAPS    C1 7764   2.217   1.715  10.991  0.5444  0.7731 -0.4875
   83SAPS    HA 7765   2.288   1.631  10.981 -0.7098 -0.3168 -0.5703
   83SAPS    HB 7766   2.115   1.672  10.983  1.0410 -0.0210 -4.2180
   83SAPS    C2 7767   2.203   1.808  10.867  0.8135 -0.3723 -0.1375
   83SAPS    HS 7768   2.301   1.857  10.851  1.6713 -2.5185 -2.0832
   83SAPS   O21 7769   2.089   1.900  10.883 -0.4050 -0.2262  0.4410
   83SAPS   C21 7770   2.106   2.021  10.827  0.3566  0.4680 -0.1171
   83SAPS   O22 7771   2.207   2.069  10.777  0.0548  0.6926  0.0955
   83SAPS   C22 7772   1.973   2.099  10.836 -0.0099 -0.4502  0.2689
   83SAPS   H2R 7773   1.893   2.023  10.836 -0.7226  0.2808  0.0169
   83SAPS   H2S 7774   1.967   2.159  10.930 -1.4239  2.8716 -1.7499
   83SAPS    C3 7775   2.167   1.715  10.752 -0.1383 -0.0660 -0.7135
   83SAPS    HX 7776   2.064   1.677  10.770  0.8576 -1.7754  1.9657
   83SAPS    HY 7777   2.229   1.624  10.737 -0.7187 -0.6014  0.0704
   83SAPS   O31 7778   2.172   1.794  10.630 -0.0609  0.2341 -0.1199
   83SAPS   C31 7779   2.293   1.800  10.575 -0.4902 -0.3578 -0.7603
   83SAPS   O32 7780   2.397   1.749  10.618  0.1410  0.1187  0.7572
   83SAPS   C32 7781   2.298   1.880  10.445 -0.0744  0.0014  0.1271
   83SAPS   H2X 7782   2.401   1.922  10.436 -0.0183  0.0975  1.1367
   83SAPS   H2Y 7783   2.226   1.964  10.455 -3.0809 -2.2330 -1.4463
   83SAPS   C23 7784   1.946   2.179  10.708 -0.6495 -0.4075 -0.0793
   83SAPS   H3R 7785   1.902   2.124  10.622  2.1512 -1.4932 -0.9218
   83SAPS   H3S 7786   2.045   2.215  10.673 -0.4625  0.2438  1.0488
   83SAPS   C24 7787   1.870   2.310  10.723 -0.7390  0.0493 -0.5165
   83SAPS   H4R 7788   1.866   2.358  10.623  0.1776  1.0347 -0.0916
   83SAPS   H4S 7789   1.921   2.388  10.784 -1.4650  0.0802  0.0619
   83SAPS   C25 7790   1.730   2.286  10.780 -0.7116  0.0461 -0.4593
   83SAPS   H5R 7791   1.723   2.208  10.857  1.7496  0.7570  0.6092
   83SAPS   C26 7792   1.621   2.361  10.757  0.1636  0.6137  0.3298
   83SAPS   H6R 7793   1.536   2.316  10.811  1.1629 -0.4024  1.0899
   83SAPS   C27 7794   1.614   2.482  10.659 -0.5787  1.0067 -0.0287
   83SAPS   H7R 7795   1.718   2.515  10.639 -0.0879 -0.6791 -0.4949
   83SAPS   H7S 7796   1.550   2.557  10.708 -0.2653  2.4095 -1.6771
   83SAPS   C28 7797   1.531   2.439  10.540  0.4357 -0.0593 -0.1135
   83SAPS   H8R 7798   1.441   2.380  10.564  1.4179 -1.5705  0.0039
   83SAPS   C29 7799   1.550   2.464  10.410 -0.0880 -0.9003  0.2642
   83SAPS   H9R 7800   1.487   2.428  10.327  2.2511  0.7223 -2.4277
   83SAPS  C210 7801   1.659   2.543  10.343  0.0704 -0.3245 -0.0720
   83SAPS  H10R 7802   1.706   2.587  10.434 -0.2285  1.1830 -0.6190
   83SAPS  H10S 7803   1.632   2.625  10.274  1.0220 -0.3608 -0.5095
   83SAPS  C211 7804   1.749   2.447  10.268  0.1979  0.2534  1.0530
   83SAPS  H11R 7805   1.830   2.398  10.323  0.8910 -0.4757 -0.5432
   83SAPS  C212 7806   1.743   2.409  10.133 -0.5705 -0.4229  0.1309
   83SAPS  H12R 7807   1.798   2.319  10.099 -1.0015 -1.1444  1.2828
   83SAPS  C213 7808   1.638   2.452  10.030 -0.0040  0.3344 -0.8240
   83SAPS  H13R 7809   1.569   2.526  10.078  0.4948  1.8118 -2.2749
   83SAPS  H13S 7810   1.573   2.367   9.999  1.5236 -0.6138 -1.5190
   83SAPS  C214 7811   1.701   2.528   9.916  0.0412 -0.2446  0.6145
   83SAPS  H14R 7812   1.781   2.594   9.952 -0.2020 -0.6102  1.8836
   83SAPS  C215 7813   1.670   2.521   9.785 -0.8890  0.1489  0.1239
   83SAPS  H15R 7814   1.716   2.586   9.709 -0.9441 -0.4996 -0.4682
   83SAPS  C216 7815   1.561   2.436   9.725  0.2505 -0.3022 -0.0026
   83SAPS  H16R 7816   1.509   2.503   9.654  0.6084 -1.1708 -1.1046
   83SAPS  H16S 7817   1.480   2.417   9.799 -2.3888  2.2022 -2.0467
   83SAPS  C217 7818   1.610   2.311   9.662 -0.0300  0.2668 -0.8575
   83SAPS  H17R 7819   1.654   2.252   9.745 -1.9708  2.6357  2.0879
   83SAPS  H17S 7820   1.691   2.335   9.589  2.5054 -2.1472  0.9512
   83SAPS  C218 7821   1.502   2.235   9.586 -0.2584 -0.3874 -0.9101
   83SAPS  H18R 7822   1.413   2.231   9.652  0.5825 -2.0508  0.2001
   83SAPS  H18S 7823   1.531   2.131   9.562 -0.0147 -0.2500 -1.2267
   83SAPS  C219 7824   1.460   2.307   9.459 -0.8669 -0.4235  0.4673
   83SAPS  H19R 7825   1.554   2.330   9.404 -1.1108 -2.1429 -0.7365
   83SAPS  H19S 7826   1.408   2.402   9.485 -0.3974  0.0790 -0.3700
   83SAPS  C220 7827   1.368   2.226   9.373  0.0384 -0.5939 -0.3964
   83SAPS  H20R 7828   1.414   2.140   9.321 -0.2474  0.1795 -1.9894
   83SAPS  H20S 7829   1.334   2.293   9.291 -1.9968  3.0539  3.0281
   83SAPS  H20T 7830   1.277   2.191   9.426  1.2074 -2.8754  0.2224
   83SAPS   C33 7831   2.246   1.797  10.323 -0.4710 -0.6262  0.4648
   83SAPS   H3X 7832   2.139   1.773  10.341 -0.8394 -0.5956 -1.4781
   83SAPS   H3Y 7833   2.299   1.701  10.335 -0.0506 -0.2095  2.2125
   83SAPS   C34 7834   2.272   1.857  10.179  0.3601  0.4604  0.1678
   83SAPS   H4X 7835   2.382   1.873  10.173  0.2341  0.7737 -1.7925
   83SAPS   H4Y 7836   2.229   1.957  10.160 -3.1410 -1.1134 -1.2291
   83SAPS   C35 7837   2.217   1.769  10.071 -0.2017  0.4011  0.3838
   83SAPS   H5X 7838   2.106   1.765  10.081 -0.2804 -3.1727 -0.5699
   83SAPS   H5Y 7839   2.267   1.673  10.097 -0.1338  0.8647  2.1057
   83SAPS   C36 7840   2.252   1.826   9.935  0.6547  0.6166  0.5082
   83SAPS   H6X 7841   2.357   1.860   9.936  0.2098  2.2970 -1.6156
   83SAPS   H6Y 7842   2.190   1.915   9.908  1.7170  0.8210 -1.3750
   83SAPS   C37 7843   2.215   1.725   9.829 -0.1379  0.1065  0.0628
   83SAPS   H7X 7844   2.105   1.718   9.815 -0.3193 -0.6382  1.5748
   83SAPS   H7Y 7845   2.236   1.621   9.863 -3.3660 -0.5815  0.2808
   83SAPS   C38 7846   2.288   1.759   9.691  1.0117  0.0496 -0.0017
   83SAPS   H8X 7847   2.398   1.743   9.700  0.8895 -0.2625  1.0489
   83SAPS   H8Y 7848   2.262   1.866   9.677 -1.1518 -0.6401 -1.9537
   83SAPS   C39 7849   2.237   1.680   9.576 -0.8778  0.1238  0.0966
   83SAPS   H9X 7850   2.129   1.654   9.579 -0.3875 -2.0755  0.0815
   83SAPS   H9Y 7851   2.281   1.578   9.577 -1.7919 -0.3560 -2.1814
   83SAPS  C310 7852   2.270   1.754   9.437  1.1975  0.3146 -0.4143
   83SAPS  H10X 7853   2.374   1.792   9.440  1.6630 -0.9365  0.2876
   83SAPS  H10Y 7854   2.206   1.845   9.433  1.0346  0.1928 -0.5962
   83SAPS  C311 7855   2.233   1.691   9.302  0.0575  0.5625 -0.4384
   83SAPS  H11X 7856   2.134   1.639   9.296 -0.5737  1.6512  0.1930
   83SAPS  H11Y 7857   2.295   1.599   9.290  2.0640  1.8547 -0.2878
   83SAPS  C312 7858   2.250   1.784   9.187 -0.0197  0.3441  0.8795
   83SAPS  H12X 7859   2.359   1.794   9.169 -0.0658 -2.1469 -1.4650
   83SAPS  H12Y 7860   2.200   1.881   9.204 -1.8204 -0.6229  1.2678
   83SAPS  C313 7861   2.178   1.732   9.060  0.2087 -0.3028 -1.1379
   83SAPS  H13X 7862   2.073   1.717   9.094  0.6011 -1.1070 -0.2141
   83SAPS  H13Y 7863   2.230   1.639   9.028  3.2321  0.4044  1.1671
   83SAPS  C314 7864   2.200   1.824   8.946 -0.5413 -1.0091  0.1419
   83SAPS  H14X 7865   2.306   1.824   8.913 -0.6815  1.0422 -0.4824
   83SAPS  H14Y 7866   2.182   1.929   8.978 -2.8860 -2.2056  3.2647
   83SAPS  C315 7867   2.109   1.794   8.831 -0.2326 -0.3047  0.5357
   83SAPS  H15X 7868   2.128   1.874   8.755  0.2283 -0.4360  0.5104
   83SAPS  H15Y 7869   1.999   1.804   8.845 -0.4175  1.0242 -1.4388
   83SAPS  C316 7870   2.145   1.668   8.755  0.0296  0.1009  0.0529
   83SAPS  H16X 7871   2.100   1.586   8.815  0.8740 -0.1160  0.4158
   83SAPS  H16Y 7872   2.253   1.641   8.764 -0.3375 -2.5481 -2.1312
   83SAPS  C317 7873   2.088   1.661   8.621  0.3766  0.3334  0.1814
   83SAPS  H17X 7874   2.135   1.573   8.572  0.1656  0.1894  0.2372
   83SAPS  H17Y 7875   2.118   1.755   8.570  0.0917  0.2175 -0.2050
   83SAPS  C318 7876   1.929   1.660   8.617  0.6890  1.1476 -0.4088
   83SAPS  H18X 7877   1.883   1.644   8.517  2.6807 -1.9332 -0.9476
   83SAPS  H18Y 7878   1.898   1.758   8.661 -1.3872  2.0376 -3.5409
   83SAPS  H18Z 7879   1.885   1.586   8.688  1.2485  1.3900  0.2002
   84SAPS     N 7880   3.208   1.072  11.271 -0.0338  0.5180 -0.3893
   84SAPS   HN1 7881   3.244   1.116  11.184 -1.7928  2.7295 -0.0882
   84SAPS   HN2 7882   3.140   1.002  11.235  0.1140 -1.3583  2.5760
   84SAPS   HN3 7883   3.157   1.142  11.328  1.1480  0.0524  1.3011
   84SAPS   C12 7884   3.303   0.988  11.356 -0.3475 -0.2431  0.2695
   84SAPS  H12A 7885   3.387   1.052  11.380  0.4062 -0.4529 -1.6014
   84SAPS   C13 7886   3.252   0.930  11.487 -0.2541  0.1196 -0.3626
   84SAPS  O13A 7887   3.142   0.958  11.533 -0.0884 -0.3048 -0.4551
   84SAPS  O13B 7888   3.314   0.831  11.534  0.1937  0.3792  0.0951
   84SAPS   C11 7889   3.350   0.869  11.260  0.1455 -0.4052 -0.1137
   84SAPS  H11A 7890   3.266   0.796  11.265 -0.6484  0.5231  0.4788
   84SAPS  H11B 7891   3.444   0.829  11.305  0.7461  0.4736 -0.5557
   84SAPS     P 7892   3.519   0.976  11.095  0.1673  0.2834 -0.0207
   84SAPS   O13 7893   3.505   1.123  11.131 -0.0406  0.3013  0.7113
   84SAPS   O14 7894   3.634   0.904  11.159  1.2331  0.1909 -1.0120
   84SAPS   O12 7895   3.378   0.911  11.126  0.3141  0.4401 -0.4597
   84SAPS   O11 7896   3.517   0.961  10.941 -0.5488  0.4808  0.1540
   84SAPS    C1 7897   3.510   1.073  10.852 -0.2202  0.0978 -0.3231
   84SAPS    HA 7898   3.474   1.170  10.894  2.1777  1.9578 -2.2725
   84SAPS    HB 7899   3.613   1.095  10.815  0.3755 -1.4341  0.3371
   84SAPS    C2 7900   3.418   1.038  10.733 -0.1438 -0.5904  1.1635
   84SAPS    HS 7901   3.326   0.992  10.776 -1.4329  1.6317  0.9205
   84SAPS   O21 7902   3.493   0.964  10.636 -0.0736  0.2689  0.5350
   84SAPS   C21 7903   3.422   0.862  10.585  0.2952 -0.2124 -0.3189
   84SAPS   O22 7904   3.308   0.851  10.608  0.2857 -0.4520  0.1139
   84SAPS   C22 7905   3.490   0.798  10.461 -0.4843  0.1026 -0.4448
   84SAPS   H2R 7906   3.442   0.702  10.434  1.1259 -0.2341 -2.3575
   84SAPS   H2S 7907   3.495   0.868  10.374  0.5177 -0.8122 -1.1485
   84SAPS    C3 7908   3.378   1.176  10.661 -0.1200  0.6781  0.1196
   84SAPS    HX 7909   3.468   1.232  10.627  1.4298 -2.2985 -1.0492
   84SAPS    HY 7910   3.320   1.236  10.734 -2.0697 -0.5707 -0.3234
   84SAPS   O31 7911   3.297   1.148  10.545 -0.5395 -0.1097 -0.0384
   84SAPS   C31 7912   3.170   1.147  10.571  0.0385 -0.1300  1.0818
   84SAPS   O32 7913   3.119   1.149  10.679 -0.3300  0.3211 -0.1741
   84SAPS   C32 7914   3.090   1.135  10.441  0.2469 -0.2773  0.4313
   84SAPS   H2X 7915   2.987   1.164  10.472  0.7704  1.3487  0.7795
   84SAPS   H2Y 7916   3.087   1.028  10.414 -0.6404  0.2393 -1.7628
   84SAPS   C23 7917   3.632   0.760  10.502 -0.0802  0.4850  0.3459
   84SAPS   H3R 7918   3.632   0.680  10.579 -2.4037 -0.6066 -0.6953
   84SAPS   H3S 7919   3.682   0.845  10.554  1.5194 -0.4205  0.3584
   84SAPS   C24 7920   3.721   0.710  10.387 -0.2890 -0.9848 -0.6811
   84SAPS   H4R 7921   3.822   0.714  10.432 -0.9036  1.2311  0.6665
   84SAPS   H4S 7922   3.733   0.775  10.298  0.1577  1.4892  1.0998
   84SAPS   C25 7923   3.695   0.565  10.354 -0.3203 -0.5871  0.2510
   84SAPS   H5R 7924   3.750   0.493  10.417  3.2711  1.6440 -0.0702
   84SAPS   C26 7925   3.622   0.523  10.248 -0.8981  0.4532  0.0387
   84SAPS   H6R 7926   3.630   0.415  10.229  4.1557  0.6668 -0.4078
   84SAPS   C27 7927   3.547   0.607  10.147 -0.0564  0.3862  0.4260
   84SAPS   H7R 7928   3.625   0.664  10.093 -0.2836  0.5452  0.2630
   84SAPS   H7S 7929   3.501   0.687  10.209 -2.3654 -0.1723 -0.4748
   84SAPS   C28 7930   3.443   0.546  10.062  0.0997 -0.4170  0.3122
   84SAPS   H8R 7931   3.405   0.450  10.100 -0.4763  0.6156  2.5339
   84SAPS   C29 7932   3.405   0.596   9.942 -0.2578  0.9153  0.1774
   84SAPS   H9R 7933   3.323   0.544   9.890  1.6190 -0.9402 -1.0572
   84SAPS  C210 7934   3.457   0.724   9.883 -0.8055  0.6426  0.3637
   84SAPS  H10R 7935   3.481   0.803   9.957  1.6612  1.0594 -0.7741
   84SAPS  H10S 7936   3.364   0.758   9.833 -1.2329 -0.6925  0.2200
   84SAPS  C211 7937   3.565   0.704   9.778 -0.2073  0.5732 -0.6264
   84SAPS  H11R 7938   3.670   0.707   9.810 -0.7276  0.8225  1.1782
   84SAPS  C212 7939   3.544   0.690   9.643  0.1051 -0.0332  0.3117
   84SAPS  H12R 7940   3.633   0.677   9.580  1.9959  1.9478  2.3562
   84SAPS  C213 7941   3.417   0.686   9.567 -0.0949 -0.0954  0.2837
   84SAPS  H13R 7942   3.424   0.776   9.502  1.6359  0.4835  1.2085
   84SAPS  H13S 7943   3.327   0.706   9.630  0.3478  0.4129  0.7680
   84SAPS  C214 7944   3.396   0.563   9.485 -0.3544  0.2331  0.4582
   84SAPS  H14R 7945   3.408   0.461   9.525 -1.5672  0.1459  0.6412
   84SAPS  C215 7946   3.356   0.567   9.359  0.4160  0.3698  0.4033
   84SAPS  H15R 7947   3.352   0.464   9.319  1.0596 -0.1394  1.5865
   84SAPS  C216 7948   3.335   0.687   9.271  0.2735 -0.0032  0.1447
   84SAPS  H16R 7949   3.428   0.738   9.239 -0.5629  0.6704 -1.3261
   84SAPS  H16S 7950   3.271   0.756   9.331  1.0215  0.1385  0.7867
   84SAPS  C217 7951   3.259   0.642   9.140 -0.2609  0.0551  0.7323
   84SAPS  H17R 7952   3.163   0.590   9.163  0.0415  0.0610  2.1226
   84SAPS  H17S 7953   3.322   0.571   9.082 -0.3008  1.0269 -0.5469
   84SAPS  C218 7954   3.222   0.765   9.053 -0.0790  1.0007 -0.4040
   84SAPS  H18R 7955   3.317   0.811   9.020 -0.1751  1.9177  0.5557
   84SAPS  H18S 7956   3.155   0.831   9.112 -1.2535 -0.1688 -0.3746
   84SAPS  C219 7957   3.137   0.736   8.926  0.0524 -0.4746  0.2673
   84SAPS  H19R 7958   3.179   0.646   8.876  1.3997 -0.2937  1.0304
   84SAPS  H19S 7959   3.157   0.818   8.855 -1.2601 -0.8980 -0.6279
   84SAPS  C220 7960   2.991   0.718   8.955 -0.0412 -0.1057  0.0245
   84SAPS  H20R 7961   2.952   0.640   9.024 -0.5014  1.5078  1.6793
   84SAPS  H20S 7962   2.932   0.705   8.863 -0.7710  0.4108  0.4089
   84SAPS  H20T 7963   2.949   0.812   8.996 -0.3383  0.4453 -1.5020
   84SAPS   C33 7964   3.137   1.234  10.326 -0.2856 -0.7182  0.4371
   84SAPS   H3X 7965   3.222   1.178  10.280  0.7503 -0.3205  1.7910
   84SAPS   H3Y 7966   3.167   1.331  10.370  0.4581 -0.5820 -0.3470
   84SAPS   C34 7967   3.035   1.267  10.214 -0.2789  0.2848 -0.1371
   84SAPS   H4X 7968   3.082   1.316  10.126 -2.4407  2.2197 -0.3339
   84SAPS   H4Y 7969   2.965   1.349  10.240 -0.5863 -0.1021  0.2667
   84SAPS   C35 7970   2.955   1.144  10.162 -0.3275 -0.2329  0.0728
   84SAPS   H5X 7971   2.900   1.082  10.236 -0.2319  0.5215  0.8004
   84SAPS   H5Y 7972   3.035   1.072  10.132 -1.3441 -2.3609  2.1016
   84SAPS   C36 7973   2.869   1.162  10.035 -0.3594  0.7807  1.0026
   84SAPS   H6X 7974   2.795   1.244  10.048 -0.8671  0.1849  1.9068
   84SAPS   H6Y 7975   2.819   1.064  10.027 -0.9120  1.0403  1.2403
   84SAPS   C37 7976   2.958   1.178   9.904 -0.0104  0.0200 -0.4545
   84SAPS   H7X 7977   3.060   1.207   9.935 -0.5710  1.2954  0.2864
   84SAPS   H7Y 7978   2.921   1.264   9.843 -0.2582  0.3806  0.1848
   84SAPS   C38 7979   2.966   1.058   9.808  0.4051  0.6667 -0.4547
   84SAPS   H8X 7980   2.862   1.060   9.769 -0.1315 -0.8164  0.8163
   84SAPS   H8Y 7981   2.992   0.978   9.880 -1.3680  0.4849  0.0476
   84SAPS   C39 7982   3.051   1.106   9.694 -0.5164 -0.2248  1.2932
   84SAPS   H9X 7983   3.146   1.152   9.728 -1.0059  0.6482  1.4932
   84SAPS   H9Y 7984   2.991   1.190   9.655 -0.4485 -0.9671 -0.5066
   84SAPS  C310 7985   3.076   0.993   9.591 -0.6799 -0.2991  0.6486
   84SAPS  H10X 7986   2.984   0.936   9.565 -1.9918  1.6536  0.7481
   84SAPS  H10Y 7987   3.132   0.918   9.651  0.2883  0.0873  0.2542
   84SAPS  C311 7988   3.147   1.043   9.464 -0.0395 -0.6302  0.4305
   84SAPS  H11X 7989   3.195   0.948   9.430  2.4485  0.2892  1.1439
   84SAPS  H11Y 7990   3.227   1.118   9.483 -1.3176  1.0048 -0.4096
   84SAPS  C312 7991   3.040   1.104   9.367 -0.7414  0.5009  0.0289
   84SAPS  H12X 7992   3.010   1.209   9.387 -1.6267  0.1752  0.4712
   84SAPS  H12Y 7993   2.956   1.031   9.366  0.9850 -1.5468 -1.5742
   84SAPS  C313 7994   3.103   1.121   9.225 -0.4280 -0.0690 -0.2435
   84SAPS  H13X 7995   3.174   1.036   9.219  1.1629  1.1118  1.0279
   84SAPS  H13Y 7996   3.180   1.200   9.239  0.0291 -0.8404  2.0667
   84SAPS  C314 7997   3.004   1.144   9.109 -0.8483 -0.2780 -0.3857
   84SAPS  H14X 7998   2.932   1.221   9.142  0.4293  0.6213  0.3649
   84SAPS  H14Y 7999   2.942   1.051   9.102 -0.3904 -0.6536  0.4075
   84SAPS  C315 8000   3.072   1.185   8.983  0.3308  0.4721  0.6450
   84SAPS  H15X 8001   3.122   1.095   8.942  0.7198  0.3034  1.4644
   84SAPS  H15Y 8002   3.148   1.263   9.005  0.2218  1.1417 -1.1857
   84SAPS  C316 8003   2.986   1.254   8.878  0.1638  0.8587 -0.4108
   84SAPS  H16X 8004   3.044   1.321   8.812 -1.9402  1.9557 -1.2316
   84SAPS  H16Y 8005   2.928   1.331   8.933  1.0464  2.9871 -2.2979
   84SAPS  C317 8006   2.886   1.166   8.790 -0.5636  0.1063  0.4374
   84SAPS  H17X 8007   2.823   1.240   8.737  0.7508  2.9775  2.5579
   84SAPS  H17Y 8008   2.818   1.108   8.856 -2.9471  1.4295 -0.7293
   84SAPS  C318 8009   2.948   1.059   8.697  0.0562  0.5426  0.0032
   84SAPS  H18X 8010   2.874   1.023   8.622  0.5126 -0.6996  0.1106
   84SAPS  H18Y 8011   3.001   0.977   8.750  0.1306  0.9018  0.4902
   84SAPS  H18Z 8012   3.031   1.096   8.633  3.3868 -2.8809  1.9173
   85SAPS     N 8013   6.563   3.660  11.060 -0.6430  0.2611  0.3194
   85SAPS   HN1 8014   6.641   3.697  11.003 -0.0928 -1.9490 -0.4886
   85SAPS   HN2 8015   6.520   3.577  11.013  3.5426 -1.4401 -0.9694
   85SAPS   HN3 8016   6.487   3.730  11.058 -0.3335  0.7341  2.4854
   85SAPS   C12 8017   6.598   3.632  11.206  0.0214 -0.0706 -0.7072
   85SAPS  H12A 8018   6.654   3.716  11.245  0.5834 -0.2524 -1.1180
   85SAPS   C13 8019   6.466   3.626  11.293  0.1344 -0.1624  0.0743
   85SAPS  O13A 8020   6.365   3.689  11.244  0.0492 -0.0564  0.4330
   85SAPS  O13B 8021   6.479   3.609  11.419 -0.2561  0.0231  0.8591
   85SAPS   C11 8022   6.679   3.504  11.219 -0.2059  0.3882  0.2304
   85SAPS  H11A 8023   6.620   3.421  11.175  0.5616 -0.6559  1.1219
   85SAPS  H11B 8024   6.688   3.489  11.329 -3.1649  3.0459  0.9908
   85SAPS     P 8025   6.882   3.387  11.104  0.4365  0.4624  0.0245
   85SAPS   O13 8026   7.011   3.446  11.067 -0.4698  0.4656 -0.2984
   85SAPS   O14 8027   6.880   3.280  11.212 -0.2144 -0.0775  0.2738
   85SAPS   O12 8028   6.802   3.507  11.154 -0.2999 -1.0266 -0.4694
   85SAPS   O11 8029   6.794   3.346  10.982  0.0431 -0.5262 -0.1681
   85SAPS    C1 8030   6.759   3.443  10.880  0.9344 -0.0401  0.3179
   85SAPS    HA 8031   6.649   3.449  10.885  0.8379 -0.9071 -0.4973
   85SAPS    HB 8032   6.805   3.542  10.902  0.8681  0.0496  0.0588
   85SAPS    C2 8033   6.808   3.393  10.738 -0.1047  0.0282 -0.0267
   85SAPS    HS 8034   6.761   3.292  10.735 -0.4759  0.1253  1.3586
   85SAPS   O21 8035   6.950   3.407  10.732 -0.0891  0.1962 -0.5223
   85SAPS   C21 8036   7.007   3.303  10.675 -0.0807 -0.3044  0.4063
   85SAPS   O22 8037   6.945   3.202  10.640 -0.0437 -0.5517  0.3664
   85SAPS   C22 8038   7.150   3.339  10.655 -0.6733 -0.0873  0.3885
   85SAPS   H2R 8039   7.152   3.439  10.606 -3.0263 -0.4998 -0.6711
   85SAPS   H2S 8040   7.198   3.341  10.755  1.6674  0.2243 -0.6754
   85SAPS    C3 8041   6.750   3.475  10.624 -0.2197 -0.0237 -0.9385
   85SAPS    HX 8042   6.772   3.582  10.643 -1.1745 -0.1118  0.8591
   85SAPS    HY 8043   6.640   3.474  10.638 -0.3287  1.9771 -1.3687
   85SAPS   O31 8044   6.806   3.432  10.492  0.3440  0.4293  0.5449
   85SAPS   C31 8045   6.727   3.340  10.438  0.7954  0.8150  0.3886
   85SAPS   O32 8046   6.616   3.309  10.482 -0.4014  0.5153  0.1364
   85SAPS   C32 8047   6.801   3.266  10.329  0.5327  0.1557 -0.6897
   85SAPS   H2X 8048   6.829   3.167  10.369 -0.9843  0.3624  1.0376
   85SAPS   H2Y 8049   6.890   3.324  10.296  0.8277  1.0263  1.4786
   85SAPS   C23 8050   7.236   3.243  10.561  0.5113 -0.1664  0.7555
   85SAPS   H3R 8051   7.239   3.139  10.599 -0.9806 -0.3723  0.3644
   85SAPS   H3S 8052   7.341   3.280  10.564 -0.2985  2.3754 -0.0089
   85SAPS   C24 8053   7.178   3.245  10.414  0.0447  0.4213  0.3651
   85SAPS   H4R 8054   7.178   3.353  10.386  0.9951  0.3942  0.2200
   85SAPS   H4S 8055   7.074   3.206  10.415  0.0675  0.2409 -1.3384
   85SAPS   C25 8056   7.264   3.166  10.311  0.2521 -0.5900 -0.6426
   85SAPS   H5R 8057   7.318   3.076  10.346 -2.1620 -1.4992  1.0362
   85SAPS   C26 8058   7.280   3.209  10.181  0.4848  0.2485 -0.1087
   85SAPS   H6R 8059   7.352   3.148  10.124 -1.1120 -1.8852  0.0274
   85SAPS   C27 8060   7.223   3.333  10.110 -0.0067 -0.2912  0.3792
   85SAPS   H7R 8061   7.213   3.419  10.179  1.2007  0.1315  0.0593
   85SAPS   H7S 8062   7.120   3.310  10.074 -0.2116  1.9726 -0.6645
   85SAPS   C28 8063   7.297   3.392   9.990  0.4807 -0.7211 -0.5036
   85SAPS   H8R 8064   7.349   3.489   9.994 -2.9569  1.2940 -0.1034
   85SAPS   C29 8065   7.295   3.335   9.867 -0.3864  0.1736 -0.1503
   85SAPS   H9R 8066   7.340   3.386   9.780  0.3797  0.4723  0.4061
   85SAPS  C210 8067   7.223   3.207   9.821  0.0078 -0.7058 -0.0063
   85SAPS  H10R 8068   7.206   3.136   9.906  2.1424  0.9249  1.9180
   85SAPS  H10S 8069   7.290   3.160   9.746 -0.5093 -1.2061 -0.1644
   85SAPS  C211 8070   7.092   3.237   9.758  0.3750 -0.5646 -0.0631
   85SAPS  H11R 8071   6.999   3.231   9.816 -0.3726 -2.0314 -1.3410
   85SAPS  C212 8072   7.076   3.258   9.627  0.3321 -0.5851 -0.3053
   85SAPS  H12R 8073   6.977   3.294   9.597  0.9738  1.1599 -0.4408
   85SAPS  C213 8074   7.178   3.271   9.522  0.1637 -0.3753  0.0850
   85SAPS  H13R 8075   7.275   3.226   9.552  1.3293  1.2502 -1.0565
   85SAPS  H13S 8076   7.200   3.378   9.503  2.0119 -0.9601 -1.4541
   85SAPS  C214 8077   7.127   3.197   9.402 -0.1417  0.4967 -0.6042
   85SAPS  H14R 8078   7.068   3.108   9.428 -1.1471  1.5280  0.8036
   85SAPS  C215 8079   7.148   3.219   9.270 -0.0768  0.1939  0.0652
   85SAPS  H15R 8080   7.116   3.140   9.201  0.9986  0.7108 -1.0597
   85SAPS  C216 8081   7.241   3.321   9.212 -0.9613  0.0655 -0.3964
   85SAPS  H16R 8082   7.270   3.278   9.114 -1.1672 -2.3742  0.5434
   85SAPS  H16S 8083   7.327   3.337   9.280 -1.6710  1.1570  0.2814
   85SAPS  C217 8084   7.165   3.451   9.177 -0.0098  0.0146 -0.7676
   85SAPS  H17R 8085   7.238   3.534   9.186 -0.1065  0.0051  0.2316
   85SAPS  H17S 8086   7.075   3.461   9.241 -0.3092 -0.0584 -1.1733
   85SAPS  C218 8087   7.100   3.455   9.041 -0.2313  1.0828  0.6690
   85SAPS  H18R 8088   7.031   3.371   9.020 -0.5090  1.6643 -0.8760
   85SAPS  H18S 8089   7.174   3.440   8.959  0.2018  0.6753  1.1281
   85SAPS  C219 8090   7.049   3.592   9.004 -0.0772 -1.0365  0.3780
   85SAPS  H19R 8091   7.002   3.642   9.092  0.5907  1.2614 -0.5201
   85SAPS  H19S 8092   6.972   3.579   8.925  0.8901 -1.1873 -0.5650
   85SAPS  C220 8093   7.156   3.682   8.941 -0.0372 -0.5067 -0.0113
   85SAPS  H20R 8094   7.201   3.631   8.852  0.0095 -0.0644 -0.2441
   85SAPS  H20S 8095   7.230   3.712   9.019 -2.2140 -3.6003  3.5478
   85SAPS  H20T 8096   7.095   3.770   8.911  0.5899  0.6870  2.0263
   85SAPS   C33 8097   6.722   3.249  10.200 -0.2019 -0.1679 -0.0789
   85SAPS   H3X 8098   6.619   3.208  10.215  0.4607 -1.5743  0.8911
   85SAPS   H3Y 8099   6.784   3.189  10.131  0.6209  1.1495 -0.5218
   85SAPS   C34 8100   6.713   3.385  10.119  0.6135  0.4943  0.3374
   85SAPS   H4X 8101   6.814   3.425  10.097  0.1963  1.8938  0.8709
   85SAPS   H4Y 8102   6.671   3.455  10.195 -2.0332 -0.8870  0.2729
   85SAPS   C35 8103   6.619   3.370  10.002 -0.2695  0.1683 -0.3117
   85SAPS   H5X 8104   6.580   3.471   9.975 -0.0596 -0.0521 -1.4960
   85SAPS   H5Y 8105   6.526   3.315  10.029 -0.0080  0.0171  0.2816
   85SAPS   C36 8106   6.687   3.315   9.875  0.7991 -0.3697 -0.3438
   85SAPS   H6X 8107   6.710   3.207   9.882 -1.4548 -0.9125 -0.8536
   85SAPS   H6Y 8108   6.779   3.378   9.869 -1.6033  3.4465 -0.4656
   85SAPS   C37 8109   6.600   3.352   9.745 -0.3966  0.1355  0.0191
   85SAPS   H7X 8110   6.558   3.455   9.747  0.8359  0.6795 -0.9120
   85SAPS   H7Y 8111   6.522   3.273   9.748  1.4646 -1.7818  0.1668
   85SAPS   C38 8112   6.686   3.325   9.620  0.4670  0.0552  0.3625
   85SAPS   H8X 8113   6.718   3.218   9.618  0.2847  0.0073 -0.3996
   85SAPS   H8Y 8114   6.768   3.400   9.619 -0.3780  1.0819 -2.4113
   85SAPS   C39 8115   6.616   3.343   9.483  1.0941 -0.3697 -0.3515
   85SAPS   H9X 8116   6.595   3.450   9.462  1.5994 -0.1187  0.3581
   85SAPS   H9Y 8117   6.521   3.285   9.483  0.8039  0.0970 -0.5362
   85SAPS  C310 8118   6.708   3.322   9.361 -0.1986  0.2362 -0.4745
   85SAPS  H10X 8119   6.745   3.220   9.384  0.1910  0.8290  1.6982
   85SAPS  H10Y 8120   6.793   3.391   9.376  2.4155 -2.7789 -0.4477
   85SAPS  C311 8121   6.642   3.350   9.225 -0.2487  0.0367 -0.4796
   85SAPS  H11X 8122   6.607   3.456   9.226  2.3722  0.9803 -0.5905
   85SAPS  H11Y 8123   6.545   3.296   9.224 -1.1826  1.6156  0.4402
   85SAPS  C312 8124   6.732   3.326   9.102 -0.1831 -0.8966  0.4086
   85SAPS  H12X 8125   6.770   3.222   9.087 -0.0545 -0.4860 -3.0153
   85SAPS  H12Y 8126   6.825   3.384   9.114 -0.9103  0.8178 -1.5492
   85SAPS  C313 8127   6.648   3.366   8.982 -0.2136 -0.3223 -0.4906
   85SAPS  H13X 8128   6.631   3.475   8.971  0.9175 -0.2374 -1.5890
   85SAPS  H13Y 8129   6.547   3.319   8.974 -0.7842  0.6571  0.7003
   85SAPS  C314 8130   6.715   3.311   8.851  0.1045 -0.2177  0.5354
   85SAPS  H14X 8131   6.720   3.201   8.858 -0.7992 -0.4584 -1.7370
   85SAPS  H14Y 8132   6.818   3.352   8.845 -0.3272  0.8425  0.0002
   85SAPS  C315 8133   6.635   3.360   8.720  0.0660 -0.7919 -0.0589
   85SAPS  H15X 8134   6.526   3.351   8.739 -0.2074  0.6644 -0.7896
   85SAPS  H15Y 8135   6.658   3.286   8.640 -0.0104  0.6975 -1.4948
   85SAPS  C316 8136   6.677   3.500   8.671 -0.4148 -0.4556  0.3574
   85SAPS  H16X 8137   6.694   3.576   8.751  1.4075  0.0455 -0.4626
   85SAPS  H16Y 8138   6.592   3.546   8.616 -1.3322  0.7346  2.6191
   85SAPS  C317 8139   6.798   3.507   8.578 -0.3867 -0.1254  0.6589
   85SAPS  H17X 8140   6.761   3.473   8.479 -3.3420 -1.0489  1.9702
   85SAPS  H17Y 8141   6.862   3.425   8.615 -1.7069 -2.1128 -1.2534
   85SAPS  C318 8142   6.857   3.647   8.573 -0.7588  0.5291  0.2194
   85SAPS  H18X 8143   6.793   3.715   8.512  0.9020  0.5396 -1.6150
   85SAPS  H18Y 8144   6.955   3.649   8.520 -0.0198 -1.8517  1.4065
   85SAPS  H18Z 8145   6.874   3.686   8.676 -0.3280 -0.2086  0.4362
   86SAPS     N 8146   3.168   3.088  11.221 -0.1067 -0.2688 -0.7197
   86SAPS   HN1 8147   3.180   2.988  11.193  1.1644  0.4779 -3.1317
   86SAPS   HN2 8148   3.117   3.132  11.143 -1.1372  0.2494  0.2251
   86SAPS   HN3 8149   3.262   3.132  11.212 -0.6781  0.7432 -2.0125
   86SAPS   C12 8150   3.111   3.113  11.355  0.5692  1.1798 -0.2797
   86SAPS  H12A 8151   3.072   3.016  11.381 -1.2776  2.0028  0.1684
   86SAPS   C13 8152   3.204   3.154  11.475  0.1551 -0.6074  0.1828
   86SAPS  O13A 8153   3.318   3.193  11.466 -0.3211 -0.4454 -0.7259
   86SAPS  O13B 8154   3.144   3.160  11.585  0.2353  0.2850 -0.7654
   86SAPS   C11 8155   2.996   3.221  11.344 -1.1859  0.9015  0.3798
   86SAPS  H11A 8156   3.045   3.319  11.327 -1.2791  0.4869 -2.9171
   86SAPS  H11B 8157   2.954   3.232  11.447  0.5313 -1.6488  1.4615
   86SAPS     P 8158   2.774   3.267  11.214  0.1393  0.1978 -0.2528
   86SAPS   O13 8159   2.679   3.182  11.139  0.2692  0.2221 -0.0490
   86SAPS   O14 8160   2.708   3.331  11.329  0.5375 -0.1090  0.0177
   86SAPS   O12 8161   2.897   3.179  11.252  0.0992  0.5881 -0.8843
   86SAPS   O11 8162   2.841   3.376  11.124 -0.1848 -0.1089  0.0107
   86SAPS    C1 8163   2.765   3.474  11.057  0.7088  0.1708 -0.4935
   86SAPS    HA 8164   2.678   3.501  11.120  0.0676 -1.2233 -0.7419
   86SAPS    HB 8165   2.827   3.565  11.041 -0.1594  0.7844 -0.4193
   86SAPS    C2 8166   2.715   3.428  10.914 -0.4737  0.5231  0.3502
   86SAPS    HS 8167   2.658   3.334  10.928 -1.7548  1.3388  0.8187
   86SAPS   O21 8168   2.837   3.416  10.829  0.5877  0.1568  0.9102
   86SAPS   C21 8169   2.816   3.330  10.732 -0.5005 -0.1845  0.2792
   86SAPS   O22 8170   2.724   3.248  10.725 -0.2301  0.3859  0.6426
   86SAPS   C22 8171   2.929   3.344  10.627  0.0217 -0.5977 -0.2592
   86SAPS   H2R 8172   2.991   3.436  10.630 -1.9835  0.9403 -2.1704
   86SAPS   H2S 8173   3.008   3.267  10.637  0.4237 -0.6609 -3.0636
   86SAPS    C3 8174   2.611   3.536  10.850 -0.1423  0.8816 -0.6350
   86SAPS    HX 8175   2.679   3.621  10.831  1.2420 -0.3056 -1.1963
   86SAPS    HY 8176   2.538   3.569  10.926  0.1200  0.5843 -0.2495
   86SAPS   O31 8177   2.546   3.483  10.727 -0.1050  0.7240  0.4160
   86SAPS   C31 8178   2.454   3.386  10.748 -0.1966  0.5247 -0.2477
   86SAPS   O32 8179   2.422   3.342  10.856  0.4698 -0.3159  0.5137
   86SAPS   C32 8180   2.407   3.325  10.614 -0.1881  0.0278  0.9839
   86SAPS   H2X 8181   2.302   3.296  10.634  0.0674 -1.9810 -0.3424
   86SAPS   H2Y 8182   2.470   3.239  10.585 -2.4613 -1.2854 -0.3301
   86SAPS   C23 8183   2.876   3.319  10.481  0.4815  0.1096 -0.5515
   86SAPS   H3R 8184   2.814   3.227  10.475  0.5979  0.0303 -0.5359
   86SAPS   H3S 8185   2.965   3.305  10.417 -0.2897 -1.0209 -1.4083
   86SAPS   C24 8186   2.790   3.438  10.426 -0.1659  0.2606 -0.4960
   86SAPS   H4R 8187   2.702   3.449  10.493  0.4886 -0.7011  0.5750
   86SAPS   H4S 8188   2.753   3.401  10.328 -2.2045  0.7896  0.0273
   86SAPS   C25 8189   2.850   3.579  10.427  0.1446 -0.0485 -0.4906
   86SAPS   H5R 8190   2.834   3.627  10.524 -0.4334 -2.5673  0.7436
   86SAPS   C26 8191   2.921   3.644  10.328  0.3344  0.6678 -0.1054
   86SAPS   H6R 8192   2.983   3.728  10.363 -0.4474  1.7903 -1.3244
   86SAPS   C27 8193   2.955   3.583  10.196 -0.2685  0.2665 -0.0165
   86SAPS   H7R 8194   2.980   3.663  10.123 -1.0575  1.5510  1.0613
   86SAPS   H7S 8195   2.867   3.529  10.155 -1.1699  0.6714  1.3266
   86SAPS   C28 8196   3.064   3.485  10.203 -0.4774  0.0147  0.0555
   86SAPS   H8R 8197   3.065   3.445  10.305 -3.2296  1.2001  0.6185
   86SAPS   C29 8198   3.147   3.446  10.105 -0.0878  0.6468  0.3994
   86SAPS   H9R 8199   3.214   3.361  10.122 -1.2323 -0.1760  0.8748
   86SAPS  C210 8200   3.144   3.484   9.962  0.1044  0.3798  0.4019
   86SAPS  H10R 8201   3.043   3.509   9.923 -0.6909 -0.9372  1.5385
   86SAPS  H10S 8202   3.177   3.395   9.904 -0.2917 -0.6027  1.6173
   86SAPS  C211 8203   3.241   3.596   9.933 -0.5595  1.1100  0.2497
   86SAPS  H11R 8204   3.324   3.598  10.005 -2.8748  3.1348  3.1039
   86SAPS  C212 8205   3.239   3.664   9.818  1.0656 -0.0221 -0.3282
   86SAPS  H12R 8206   3.302   3.754   9.814 -3.1635  3.3112  1.0117
   86SAPS  C213 8207   3.148   3.664   9.695 -0.2886 -0.4362  0.2803
   86SAPS  H13R 8208   3.101   3.764   9.683 -0.0420 -0.4187 -0.6481
   86SAPS  H13S 8209   3.067   3.591   9.714  1.4608 -2.5510  0.1001
   86SAPS  C214 8210   3.225   3.633   9.568  0.5883  0.0287  0.6878
   86SAPS  H14R 8211   3.282   3.540   9.583 -0.9008 -1.5861 -2.5878
   86SAPS  C215 8212   3.223   3.699   9.450 -0.2758  0.0288 -0.2712
   86SAPS  H15R 8213   3.285   3.653   9.372 -3.3708  0.4992 -3.2492
   86SAPS  C216 8214   3.122   3.809   9.431 -0.2061 -0.7336 -0.0340
   86SAPS  H16R 8215   3.167   3.901   9.475  1.8978 -0.9865 -1.4933
   86SAPS  H16S 8216   3.020   3.777   9.462  0.6609 -4.9634 -0.9699
   86SAPS  C217 8217   3.120   3.844   9.280 -0.1185 -0.4166  0.3990
   86SAPS  H17R 8218   3.071   3.943   9.272  1.4386  0.4180  0.6241
   86SAPS  H17S 8219   3.047   3.776   9.232 -2.5915  2.0367  0.4272
   86SAPS  C218 8220   3.255   3.837   9.194  0.1843  0.1062  0.2677
   86SAPS  H18R 8221   3.295   3.734   9.200 -1.3715 -0.5914 -0.7326
   86SAPS  H18S 8222   3.321   3.912   9.243 -0.5070  1.0776 -0.2583
   86SAPS  C219 8223   3.232   3.884   9.049 -0.5310  0.3474  0.0571
   86SAPS  H19R 8224   3.322   3.933   9.006 -0.0703 -0.8968 -0.4565
   86SAPS  H19S 8225   3.145   3.953   9.048 -1.8988 -1.2831 -1.8242
   86SAPS  C220 8226   3.191   3.760   8.963  0.0417 -0.1797  0.0781
   86SAPS  H20R 8227   3.086   3.729   8.982 -0.0826 -0.1905 -0.6099
   86SAPS  H20S 8228   3.258   3.674   8.989  0.1391  0.1268  0.8656
   86SAPS  H20T 8229   3.204   3.788   8.857 -2.2304  2.9456  0.5131
   86SAPS   C33 8230   2.409   3.442  10.501 -0.2675  0.7647 -0.3083
   86SAPS   H3X 8231   2.511   3.448  10.456  0.0551 -0.2044  0.2710
   86SAPS   H3Y 8232   2.370   3.536  10.545  1.5108  1.2160  0.3703
   86SAPS   C34 8233   2.305   3.412  10.390 -0.6947  0.1947  0.2395
   86SAPS   H4X 8234   2.207   3.399  10.441  0.0335 -1.0836  1.3818
   86SAPS   H4Y 8235   2.332   3.314  10.344  0.4981  0.2871  0.7120
   86SAPS   C35 8236   2.305   3.516  10.271  0.2774 -0.1441 -0.5868
   86SAPS   H5X 8237   2.243   3.602  10.306 -0.3722 -0.1082 -1.7530
   86SAPS   H5Y 8238   2.256   3.468  10.183 -0.8931  1.4632 -0.8751
   86SAPS   C36 8239   2.444   3.582  10.233 -0.6913 -0.3884 -0.2710
   86SAPS   H6X 8240   2.491   3.621  10.326  0.1945 -1.3858 -0.2811
   86SAPS   H6Y 8241   2.430   3.669  10.165  1.0937  0.3883  0.2918
   86SAPS   C37 8242   2.544   3.485  10.175  0.3938  0.0351 -0.0778
   86SAPS   H7X 8243   2.544   3.396  10.241  0.0922  0.6377  0.7451
   86SAPS   H7Y 8244   2.637   3.546  10.169 -0.0238  0.7548  0.5447
   86SAPS   C38 8245   2.509   3.427  10.038  0.0979  0.0129  0.5363
   86SAPS   H8X 8246   2.495   3.508   9.963 -0.2269 -1.8552 -1.5354
   86SAPS   H8Y 8247   2.419   3.362  10.030  2.1477 -2.9864  0.0429
   86SAPS   C39 8248   2.621   3.337   9.986  0.2156 -0.2915  0.2895
   86SAPS   H9X 8249   2.641   3.265  10.068  1.3614 -1.0223 -0.5818
   86SAPS   H9Y 8250   2.720   3.382   9.962  1.2572 -1.5217  2.0505
   86SAPS  C310 8251   2.578   3.263   9.853 -0.4509 -0.2538 -0.1310
   86SAPS  H10X 8252   2.481   3.213   9.872  0.5503 -2.0758  0.5237
   86SAPS  H10Y 8253   2.661   3.191   9.833 -0.6076  0.2924 -3.3629
   86SAPS  C311 8254   2.575   3.355   9.728  0.1521  0.7646 -0.2421
   86SAPS  H11X 8255   2.550   3.462   9.749 -1.2160  0.7419 -1.5776
   86SAPS  H11Y 8256   2.503   3.302   9.663  2.4629 -1.4094 -1.1558
   86SAPS  C312 8257   2.704   3.352   9.647 -0.3332 -0.5394  0.2964
   86SAPS  H12X 8258   2.721   3.247   9.617  0.9600  0.1633 -1.5911
   86SAPS  H12Y 8259   2.792   3.376   9.711 -1.0633 -1.0188  1.5197
   86SAPS  C313 8260   2.703   3.431   9.525  0.5074  0.8923 -0.3370
   86SAPS  H13X 8261   2.700   3.539   9.548  0.0543  0.6085  1.0050
   86SAPS  H13Y 8262   2.609   3.400   9.476  0.2693  1.1750 -0.0615
   86SAPS  C314 8263   2.828   3.394   9.448 -0.1095  0.3447  0.0913
   86SAPS  H14X 8264   2.809   3.292   9.408 -1.0270 -0.1103  1.6017
   86SAPS  H14Y 8265   2.922   3.367   9.500  0.4568 -0.3180 -1.2200
   86SAPS  C315 8266   2.860   3.478   9.323 -0.7394 -0.1537 -0.4198
   86SAPS  H15X 8267   2.918   3.562   9.366 -0.8166 -0.1855 -0.2524
   86SAPS  H15Y 8268   2.761   3.515   9.291 -1.4789 -1.8867 -0.2644
   86SAPS  C316 8269   2.918   3.401   9.199  0.2661  0.0019  0.0177
   86SAPS  H16X 8270   2.918   3.470   9.112  1.7878  2.9678  2.2218
   86SAPS  H16Y 8271   2.853   3.315   9.171 -0.1298  0.6110 -0.9898
   86SAPS  C317 8272   3.057   3.338   9.217 -0.1001  0.1214 -0.2979
   86SAPS  H17X 8273   3.059   3.266   9.302 -0.3301 -2.2037 -2.1766
   86SAPS  H17Y 8274   3.125   3.423   9.243  0.5475 -0.4677 -0.0176
   86SAPS  C318 8275   3.112   3.272   9.092  0.2123  0.1895  0.2390
   86SAPS  H18X 8276   3.079   3.166   9.089 -0.3091  0.3602 -0.1779
   86SAPS  H18Y 8277   3.222   3.255   9.090 -0.1605 -2.8179 -1.3200
   86SAPS  H18Z 8278   3.085   3.320   8.996  3.1478 -1.4089 -1.5674
   87SAPS     N 8279   2.730   4.092  11.274 -0.5320  0.1647 -0.5612
   87SAPS   HN1 8280   2.633   4.094  11.313  0.6278  1.1529  2.5495
   87SAPS   HN2 8281   2.783   4.002  11.280  0.9433  0.9020 -1.8409
   87SAPS   HN3 8282   2.773   4.168  11.329  1.4562 -1.8247  0.7887
   87SAPS   C12 8283   2.734   4.129  11.135 -1.0776  0.3089  0.4605
   87SAPS  H12A 8284   2.649   4.082  11.089  0.4461  0.7532 -3.1316
   87SAPS   C13 8285   2.715   4.286  11.109  0.3838  0.3923 -0.1513
   87SAPS  O13A 8286   2.685   4.360  11.206  0.3427  0.2894  0.4036
   87SAPS  O13B 8287   2.698   4.321  10.991 -0.5933 -0.2888  0.3518
   87SAPS   C11 8288   2.870   4.069  11.087 -0.1501 -0.7725 -0.3127
   87SAPS  H11A 8289   2.954   4.125  11.132  0.8189 -0.5193 -2.3240
   87SAPS  H11B 8290   2.880   4.094  10.979  3.2009 -2.1071 -0.4369
   87SAPS     P 8291   3.009   3.852  11.101  0.0957 -0.2636 -0.2788
   87SAPS   O13 8292   3.117   3.928  11.158 -0.0017  0.1423 -0.0984
   87SAPS   O14 8293   2.992   3.718  11.155  0.2045 -0.0476  0.1301
   87SAPS   O12 8294   2.872   3.922  11.116  0.2176 -0.2236 -0.1541
   87SAPS   O11 8295   3.028   3.848  10.948 -0.4863  0.3078  0.7407
   87SAPS    C1 8296   2.927   3.834  10.845 -0.2981 -0.3150  0.2281
   87SAPS    HA 8297   2.873   3.739  10.863  1.8435 -1.5798  0.2750
   87SAPS    HB 8298   2.851   3.915  10.856  1.8101  1.5871  1.8025
   87SAPS    C2 8299   2.998   3.843  10.712 -0.5484  0.4928  0.7421
   87SAPS    HS 8300   3.074   3.923  10.723  1.1437 -1.1030  1.1243
   87SAPS   O21 8301   2.899   3.869  10.610 -0.4153 -0.1096 -0.0309
   87SAPS   C21 8302   2.880   3.995  10.595  0.2497  0.0392  0.5932
   87SAPS   O22 8303   2.921   4.091  10.660  0.1322  0.0218  0.1267
   87SAPS   C22 8304   2.806   4.024  10.463 -0.1080 -0.1889  0.3065
   87SAPS   H2R 8305   2.785   4.133  10.463  1.3964  0.1234 -0.2809
   87SAPS   H2S 8306   2.879   4.015  10.380  0.1866  1.4913  0.3658
   87SAPS    C3 8307   3.080   3.716  10.675 -0.0616 -0.3894  0.6113
   87SAPS    HX 8308   3.010   3.637  10.642 -0.3882 -0.9376  2.5132
   87SAPS    HY 8309   3.130   3.678  10.766  0.4694 -3.0561 -0.6980
   87SAPS   O31 8310   3.171   3.741  10.564  0.0820  0.8808 -0.2686
   87SAPS   C31 8311   3.289   3.688  10.582  0.0600 -0.4598  0.7202
   87SAPS   O32 8312   3.335   3.629  10.679  0.7633  0.2211  0.2636
   87SAPS   C32 8313   3.378   3.716  10.451 -0.8150 -0.3572  0.3319
   87SAPS   H2X 8314   3.430   3.618  10.444  0.2755  0.2348 -0.0735
   87SAPS   H2Y 8315   3.453   3.791  10.484 -1.7490 -0.0217  1.7802
   87SAPS   C23 8316   2.679   3.945  10.417  0.4447  0.3545  0.7837
   87SAPS   H3R 8317   2.618   3.917  10.506 -0.3569  1.6886  0.6716
   87SAPS   H3S 8318   2.710   3.842  10.387 -0.0827 -0.2124  2.0969
   87SAPS   C24 8319   2.601   4.004  10.300  0.6455 -0.1538  0.2368
   87SAPS   H4R 8320   2.552   4.098  10.334  0.5485  0.3720 -1.2640
   87SAPS   H4S 8321   2.525   3.929  10.268  1.2334 -1.5905  2.0653
   87SAPS   C25 8322   2.676   4.044  10.184  0.2069 -0.3010  0.2533
   87SAPS   H5R 8323   2.724   4.143  10.189  1.4496 -0.7466 -1.6912
   87SAPS   C26 8324   2.694   3.976  10.065  0.3399  0.0260  0.0283
   87SAPS   H6R 8325   2.766   4.023   9.997  0.9894  0.8408  1.2464
   87SAPS   C27 8326   2.636   3.839  10.034  0.0513  0.1678 -0.2362
   87SAPS   H7R 8327   2.535   3.849   9.989 -0.5649 -3.2931  0.0585
   87SAPS   H7S 8328   2.615   3.779  10.125  0.8204 -0.3446 -0.3889
   87SAPS   C28 8329   2.740   3.765   9.958 -0.3424  0.1737 -0.4407
   87SAPS   H8R 8330   2.827   3.732  10.017 -2.1172 -2.1161  1.0985
   87SAPS   C29 8331   2.740   3.745   9.830  0.5620 -0.8212  0.4745
   87SAPS   H9R 8332   2.814   3.673   9.792  2.2454  0.4583  1.2071
   87SAPS  C210 8333   2.630   3.784   9.725 -0.4196  0.1017 -0.0603
   87SAPS  H10R 8334   2.557   3.861   9.759 -0.1341 -0.3778  1.7656
   87SAPS  H10S 8335   2.575   3.691   9.702  0.9392 -0.4356 -1.2816
   87SAPS  C211 8336   2.705   3.833   9.596 -0.4299  0.4188  0.1233
   87SAPS  H11R 8337   2.799   3.889   9.606  1.1242 -2.1134  0.6220
   87SAPS  C212 8338   2.657   3.816   9.475  0.2186  0.1321 -0.2343
   87SAPS  H12R 8339   2.704   3.859   9.385 -0.8612  1.0649 -0.3698
   87SAPS  C213 8340   2.525   3.756   9.441  0.1421  0.3891 -0.4045
   87SAPS  H13R 8341   2.462   3.847   9.432  0.3660  0.6827  0.7861
   87SAPS  H13S 8342   2.484   3.696   9.525  0.2600 -1.9129 -1.8757
   87SAPS  C214 8343   2.515   3.672   9.312 -0.0766 -0.8004 -0.1778
   87SAPS  H14R 8344   2.521   3.563   9.325  1.6750 -0.8897 -1.4229
   87SAPS  C215 8345   2.515   3.715   9.183  0.4278  0.0803  0.1035
   87SAPS  H15R 8346   2.515   3.646   9.097 -0.1959  0.1557  0.0392
   87SAPS  C216 8347   2.516   3.860   9.135 -0.5540 -0.1542 -0.1694
   87SAPS  H16R 8348   2.556   3.931   9.211 -1.4667  0.8948 -0.6372
   87SAPS  H16S 8349   2.409   3.890   9.140 -0.8096 -1.0558 -0.0300
   87SAPS  C217 8350   2.600   3.880   9.005  0.2408  0.1389 -0.3857
   87SAPS  H17R 8351   2.583   3.803   8.927  1.9885  0.6030 -1.2655
   87SAPS  H17S 8352   2.706   3.884   9.038 -0.4644 -0.5525  2.2267
   87SAPS  C218 8353   2.574   4.026   8.945 -0.7012 -0.2268 -0.5450
   87SAPS  H18R 8354   2.653   4.041   8.869 -0.7792  1.9367 -0.2396
   87SAPS  H18S 8355   2.579   4.102   9.026  0.6187 -0.0529 -0.7698
   87SAPS  C219 8356   2.449   4.035   8.861 -0.1433 -0.2328 -0.1811
   87SAPS  H19R 8357   2.375   3.968   8.909  1.0413 -0.9029  0.7635
   87SAPS  H19S 8358   2.476   3.982   8.766 -1.5594 -0.6728 -0.3535
   87SAPS  C220 8359   2.396   4.170   8.824 -0.7920 -0.1568 -0.2522
   87SAPS  H20R 8360   2.482   4.216   8.770  0.5224 -1.3582  0.7311
   87SAPS  H20S 8361   2.369   4.238   8.908 -0.1480  0.2754 -0.3895
   87SAPS  H20T 8362   2.306   4.167   8.760 -1.0654 -4.3942  0.0645
   87SAPS   C33 8363   3.314   3.734  10.310  0.9057 -0.3381  0.4137
   87SAPS   H3X 8364   3.229   3.663  10.307 -0.7360  1.5798 -0.4896
   87SAPS   H3Y 8365   3.396   3.707  10.239  0.0071 -1.2546 -0.3122
   87SAPS   C34 8366   3.273   3.876  10.261  0.5100  0.0294  0.7604
   87SAPS   H4X 8367   3.371   3.928  10.252  1.9597 -2.4525  1.4133
   87SAPS   H4Y 8368   3.219   3.924  10.346 -1.4277  0.1826 -0.4947
   87SAPS   C35 8369   3.184   3.885  10.141 -0.4038  0.2911 -0.0385
   87SAPS   H5X 8370   3.108   3.805  10.152 -0.9258  0.9560  1.5823
   87SAPS   H5Y 8371   3.255   3.848  10.064 -0.3831 -0.3266  0.2696
   87SAPS   C36 8372   3.124   4.019  10.122  0.5777 -0.1295  0.3017
   87SAPS   H6X 8373   3.207   4.092  10.134  1.2956 -0.6966 -1.0328
   87SAPS   H6Y 8374   3.039   4.034  10.193 -2.6812 -2.7110 -2.6690
   87SAPS   C37 8375   3.085   4.027   9.972  0.2910  0.0171  0.7651
   87SAPS   H7X 8376   3.004   3.952   9.959  1.6589 -1.3402 -0.3441
   87SAPS   H7Y 8377   3.166   3.992   9.905 -0.4964  1.7200 -1.1903
   87SAPS   C38 8378   3.040   4.165   9.909  0.1366  0.2787  0.5645
   87SAPS   H8X 8379   3.128   4.231   9.891  0.1525 -0.0701 -0.6877
   87SAPS   H8Y 8380   2.973   4.222   9.977  1.0792  2.4140 -0.1947
   87SAPS   C39 8381   2.972   4.153   9.769  0.0909 -0.9122 -0.3976
   87SAPS   H9X 8382   2.893   4.231   9.764 -1.3895 -2.1159  1.9681
   87SAPS   H9Y 8383   2.921   4.055   9.760  0.6351 -1.0440 -2.7072
   87SAPS  C310 8384   3.081   4.165   9.660  0.5844 -0.1435 -0.3132
   87SAPS  H10X 8385   3.148   4.078   9.671  0.2367 -0.1465  2.4590
   87SAPS  H10Y 8386   3.135   4.261   9.673 -0.7432  1.2677 -3.9093
   87SAPS  C311 8387   3.008   4.160   9.522 -0.4235 -0.1237 -0.3371
   87SAPS  H11X 8388   2.922   4.231   9.527  0.5687  1.0353  2.9033
   87SAPS  H11Y 8389   2.959   4.064   9.498  1.2454 -0.5902 -2.1401
   87SAPS  C312 8390   3.100   4.219   9.413  0.9358  0.5651  0.0381
   87SAPS  H12X 8391   3.190   4.157   9.389  0.4711  1.1275 -3.6945
   87SAPS  H12Y 8392   3.132   4.320   9.447 -0.6128  1.6683 -1.6158
   87SAPS  C313 8393   3.014   4.239   9.282 -0.3274  0.4973  0.0872
   87SAPS  H13X 8394   2.927   4.302   9.311 -1.4398 -0.1842 -1.6047
   87SAPS  H13Y 8395   2.973   4.139   9.257 -0.8442  0.2400  1.8504
   87SAPS  C314 8396   3.091   4.293   9.156  0.1395 -0.2640  0.7062
   87SAPS  H14X 8397   3.167   4.215   9.139  0.7534  0.0184  2.0780
   87SAPS  H14Y 8398   3.131   4.396   9.168 -1.3167  0.1187  2.8859
   87SAPS  C315 8399   3.001   4.316   9.029  0.2035 -0.9510 -0.4892
   87SAPS  H15X 8400   2.921   4.382   9.068  0.9202 -0.6190  0.4399
   87SAPS  H15Y 8401   2.951   4.221   9.000  0.4775 -1.5790  1.0006
   87SAPS  C316 8402   3.068   4.387   8.916 -0.0655 -0.4205 -0.0955
   87SAPS  H16X 8403   3.152   4.319   8.893 -0.4314 -0.8180 -0.2783
   87SAPS  H16Y 8404   3.118   4.480   8.952 -1.5990  0.4730 -0.1668
   87SAPS  C317 8405   2.976   4.423   8.803 -0.0049 -0.5229 -0.8821
   87SAPS  H17X 8406   2.887   4.481   8.837  0.9595  1.2034 -1.1949
   87SAPS  H17Y 8407   2.945   4.328   8.753  1.5751 -1.4719 -0.1210
   87SAPS  C318 8408   3.039   4.507   8.691  0.2104  0.0923  0.3983
   87SAPS  H18X 8409   2.971   4.517   8.604  0.2257  0.0319  0.3794
   87SAPS  H18Y 8410   3.136   4.467   8.654 -0.2557 -0.0754 -0.7027
   87SAPS  H18Z 8411   3.059   4.610   8.728  0.3654  0.7536 -1.4301
   88SAPS     N 8412   5.805   1.755  11.166  0.2641 -0.1293 -0.1255
   88SAPS   HN1 8413   5.889   1.809  11.194  0.4583  0.6301 -1.9927
   88SAPS   HN2 8414   5.823   1.653  11.172  0.2695 -0.0935  0.5811
   88SAPS   HN3 8415   5.777   1.763  11.066  0.9846 -1.9791 -0.5163
   88SAPS   C12 8416   5.688   1.789  11.258  0.7181 -0.2984 -0.0244
   88SAPS  H12A 8417   5.614   1.714  11.232  0.3771  0.1904 -0.4723
   88SAPS   C13 8418   5.729   1.774  11.411 -0.0816 -0.1147 -0.3201
   88SAPS  O13A 8419   5.843   1.731  11.444  0.2426 -1.0638 -0.4842
   88SAPS  O13B 8420   5.637   1.783  11.495 -0.1894  0.5496 -0.6818
   88SAPS   C11 8421   5.626   1.932  11.226  0.1620  0.1238  0.5441
   88SAPS  H11A 8422   5.709   2.003  11.248  0.1349  1.2373 -2.5480
   88SAPS  H11B 8423   5.544   1.937  11.301  0.7736 -0.7030  1.3001
   88SAPS     P 8424   5.454   1.904  11.025  0.1957  0.3786 -0.2519
   88SAPS   O13 8425   5.405   1.772  11.079 -0.6408  0.6155  0.0603
   88SAPS   O14 8426   5.358   2.018  11.028 -0.0268  0.0031 -0.2002
   88SAPS   O12 8427   5.590   1.953  11.089  0.8385  0.1989  0.6893
   88SAPS   O11 8428   5.492   1.875  10.873 -0.0112  0.1618 -0.5439
   88SAPS    C1 8429   5.592   1.941  10.804  0.3515  0.4858  1.0300
   88SAPS    HA 8430   5.678   1.957  10.874  0.6717 -0.5024  0.8744
   88SAPS    HB 8431   5.630   1.864  10.734  0.2226  1.9253 -0.6927
   88SAPS    C2 8432   5.551   2.070  10.735 -0.5931  0.0364 -0.2114
   88SAPS    HS 8433   5.478   2.126  10.797  0.4462  0.0071  1.0615
   88SAPS   O21 8434   5.507   2.040  10.599  0.5968 -0.1811  0.4440
   88SAPS   C21 8435   5.376   2.001  10.595 -0.7130  0.3959  0.9590
   88SAPS   O22 8436   5.295   2.002  10.682 -0.8818  0.3505 -0.2552
   88SAPS   C22 8437   5.346   1.937  10.459 -0.0863 -0.6878 -0.6843
   88SAPS   H2R 8438   5.405   1.997  10.386 -1.4619  3.4497  1.3353
   88SAPS   H2S 8439   5.398   1.839  10.467  0.0603 -0.5099  0.9240
   88SAPS    C3 8440   5.665   2.177  10.737 -0.1204 -0.6921  0.0414
   88SAPS    HX 8441   5.749   2.131  10.680  0.4070 -0.7233  0.8327
   88SAPS    HY 8442   5.691   2.206  10.841  2.1259 -0.2489 -0.6081
   88SAPS   O31 8443   5.623   2.301  10.661  0.0445 -0.0486 -0.1319
   88SAPS   C31 8444   5.724   2.384  10.655 -0.7183 -0.7919 -0.1846
   88SAPS   O32 8445   5.830   2.373  10.711  0.7107 -1.2230  0.6850
   88SAPS   C32 8446   5.667   2.503  10.580 -0.3894  0.1657  0.1167
   88SAPS   H2X 8447   5.690   2.597  10.634  2.1497 -1.6009  2.3899
   88SAPS   H2Y 8448   5.557   2.488  10.569 -0.9512  3.5403  0.0931
   88SAPS   C23 8449   5.199   1.932  10.426 -0.0514 -0.1538 -0.2714
   88SAPS   H3R 8450   5.150   2.029  10.447  0.6652  0.2277 -0.3300
   88SAPS   H3S 8451   5.152   1.864  10.500  0.1462 -1.6589 -1.4823
   88SAPS   C24 8452   5.166   1.892  10.278  0.5625  0.5703  0.1306
   88SAPS   H4R 8453   5.216   1.966  10.212  1.2746 -0.3144 -0.3248
   88SAPS   H4S 8454   5.057   1.912  10.262  0.7416  1.9870  0.5110
   88SAPS   C25 8455   5.201   1.748  10.244 -0.1088 -0.4899  0.5454
   88SAPS   H5R 8456   5.254   1.694  10.324  0.8037 -0.1545  0.1886
   88SAPS   C26 8457   5.194   1.690  10.121 -0.2495  0.2544  0.2855
   88SAPS   H6R 8458   5.210   1.581  10.119  3.0534  0.6145  0.2531
   88SAPS   C27 8459   5.140   1.763  10.001 -0.3300 -0.1134 -0.1524
   88SAPS   H7R 8460   5.114   1.869  10.023  0.8921 -0.0539  1.0767
   88SAPS   H7S 8461   5.042   1.716   9.975 -1.4215  0.1189  3.0978
   88SAPS   C28 8462   5.243   1.760   9.888 -0.5266  0.2568 -0.2856
   88SAPS   H8R 8463   5.350   1.777   9.910 -0.7373  0.9210  0.2721
   88SAPS   C29 8464   5.211   1.748   9.759  0.0836  0.0818 -0.1192
   88SAPS   H9R 8465   5.294   1.757   9.688  1.3644  0.1591  1.3429
   88SAPS  C210 8466   5.077   1.724   9.703 -0.1093 -0.3927 -0.3889
   88SAPS  H10R 8467   4.998   1.761   9.772 -1.4948 -3.2124 -0.3232
   88SAPS  H10S 8468   5.068   1.614   9.711  2.1713 -0.4985  1.8172
   88SAPS  C211 8469   5.054   1.788   9.570  0.7459 -0.2136 -0.7120
   88SAPS  H11R 8470   5.037   1.895   9.588  1.5192 -0.3675  1.2349
   88SAPS  C212 8471   5.048   1.729   9.450 -0.3100 -0.5691 -0.6496
   88SAPS  H12R 8472   5.021   1.795   9.365 -1.1895  0.1036  0.1258
   88SAPS  C213 8473   5.069   1.587   9.410 -0.9720  0.2352 -0.7692
   88SAPS  H13R 8474   4.993   1.555   9.336 -0.0009 -1.2714 -1.1472
   88SAPS  H13S 8475   5.059   1.531   9.505  3.4942 -0.7372 -0.6181
   88SAPS  C214 8476   5.209   1.563   9.350 -0.4023  0.1184 -0.7854
   88SAPS  H14R 8477   5.298   1.622   9.374 -0.1813 -0.0267 -1.2280
   88SAPS  C215 8478   5.241   1.446   9.287  0.4584 -0.0432 -0.2341
   88SAPS  H15R 8479   5.346   1.424   9.261 -0.0075 -1.9707 -0.6603
   88SAPS  C216 8480   5.146   1.335   9.250  0.5654  0.6595  1.0523
   88SAPS  H16R 8481   5.040   1.356   9.277  0.0374  2.2534 -1.8041
   88SAPS  H16S 8482   5.185   1.262   9.323  0.8833  0.8382  1.0623
   88SAPS  C217 8483   5.153   1.299   9.107  0.8244  0.0465  0.4986
   88SAPS  H17R 8484   5.087   1.210   9.095  1.6452 -0.4982 -0.1836
   88SAPS  H17S 8485   5.257   1.265   9.085  0.1292 -1.0990 -1.2648
   88SAPS  C218 8486   5.108   1.402   9.006  0.3965  0.3131 -0.7238
   88SAPS  H18R 8487   5.166   1.494   9.030  0.3976  0.5199 -1.4806
   88SAPS  H18S 8488   5.000   1.427   9.013  0.6756  1.6829 -1.0341
   88SAPS  C219 8489   5.147   1.352   8.866 -0.6266  0.5216 -0.9993
   88SAPS  H19R 8490   5.128   1.243   8.858  1.4119 -0.0320  0.6500
   88SAPS  H19S 8491   5.256   1.376   8.869  0.2918 -2.9266  2.7040
   88SAPS  C220 8492   5.076   1.429   8.760  0.2401  0.6180  0.4339
   88SAPS  H20R 8493   5.083   1.538   8.781  3.0358  1.0835 -2.1960
   88SAPS  H20S 8494   4.967   1.411   8.749  0.0466  1.1954  1.2649
   88SAPS  H20T 8495   5.118   1.411   8.659  2.2955 -0.0308  1.3555
   88SAPS   C33 8496   5.739   2.531  10.440 -0.0916 -0.3797 -0.4005
   88SAPS   H3X 8497   5.847   2.517  10.461 -0.4210 -0.4512  1.3711
   88SAPS   H3Y 8498   5.724   2.634  10.402  1.8111  0.5575  1.1849
   88SAPS   C34 8499   5.675   2.450  10.334  0.0099  0.4438 -0.1380
   88SAPS   H4X 8500   5.575   2.494  10.315 -0.8392 -0.9982  0.7667
   88SAPS   H4Y 8501   5.669   2.339  10.343  0.3233  0.3083 -1.4409
   88SAPS   C35 8502   5.748   2.485  10.199 -0.1601 -0.3805 -0.2586
   88SAPS   H5X 8503   5.849   2.441  10.189  0.5240  1.4370 -1.7852
   88SAPS   H5Y 8504   5.753   2.595  10.186 -0.3867 -0.4115 -0.6282
   88SAPS   C36 8505   5.667   2.443  10.073 -0.1313 -0.3329 -0.8758
   88SAPS   H6X 8506   5.567   2.491  10.065 -1.0756 -1.8694  0.7361
   88SAPS   H6Y 8507   5.646   2.335  10.086 -0.5668 -0.4526 -2.4547
   88SAPS   C37 8508   5.740   2.456   9.938 -0.4817 -0.1528  0.1021
   88SAPS   H7X 8509   5.831   2.393   9.940 -0.1379  0.2920  2.9044
   88SAPS   H7Y 8510   5.764   2.561   9.912  2.1479 -0.8275 -0.3836
   88SAPS   C38 8511   5.653   2.405   9.815  0.1904  0.0670 -0.2687
   88SAPS   H8X 8512   5.558   2.461   9.813 -0.3290 -0.7883 -2.6960
   88SAPS   H8Y 8513   5.623   2.301   9.838 -0.6590  0.9704  3.2186
   88SAPS   C39 8514   5.724   2.415   9.682 -0.2220  0.0743 -0.3172
   88SAPS   H9X 8515   5.826   2.372   9.695 -0.5856 -1.4959 -2.2900
   88SAPS   H9Y 8516   5.740   2.525   9.670  1.6206 -0.3866 -2.7746
   88SAPS  C310 8517   5.650   2.359   9.566 -0.1003 -0.8295 -0.5520
   88SAPS  H10X 8518   5.557   2.419   9.561  0.5764  0.4764  1.4817
   88SAPS  H10Y 8519   5.624   2.253   9.587 -3.8237  0.3042  1.4788
   88SAPS  C311 8520   5.726   2.364   9.435 -0.5485  0.2110 -0.4741
   88SAPS  H11X 8521   5.809   2.291   9.449  0.2098  1.5650  3.2783
   88SAPS  H11Y 8522   5.767   2.463   9.407 -1.0099 -0.2247 -2.9676
   88SAPS  C312 8523   5.638   2.317   9.316 -1.1100 -0.9644  0.3827
   88SAPS  H12X 8524   5.561   2.392   9.294 -0.3528 -0.3839 -0.3516
   88SAPS  H12Y 8525   5.592   2.218   9.336 -1.1483 -0.9892  0.1756
   88SAPS  C313 8526   5.724   2.294   9.188  0.7884 -0.7696  0.3366
   88SAPS  H13X 8527   5.653   2.259   9.110  0.3182 -2.9140  1.6489
   88SAPS  H13Y 8528   5.797   2.212   9.205  2.4846  0.4676 -0.6580
   88SAPS  C314 8529   5.810   2.415   9.143 -0.1975  0.3739 -0.5564
   88SAPS  H14X 8530   5.895   2.426   9.214 -0.1963  1.3942 -0.7060
   88SAPS  H14Y 8531   5.741   2.502   9.155 -0.0294  0.3131  1.0881
   88SAPS  C315 8532   5.869   2.394   9.001 -0.7429  0.1351 -0.6214
   88SAPS  H15X 8533   5.917   2.295   8.999 -0.3630  0.2879  0.3952
   88SAPS  H15Y 8534   5.945   2.471   8.975 -2.3314  1.6576 -1.0163
   88SAPS  C316 8535   5.767   2.419   8.887  0.1735  0.3122  0.6806
   88SAPS  H16X 8536   5.729   2.524   8.887  1.7512  0.9080 -0.0949
   88SAPS  H16Y 8537   5.679   2.358   8.916 -1.1204  1.9592  0.4132
   88SAPS  C317 8538   5.823   2.382   8.752 -0.8171  0.3262 -0.6241
   88SAPS  H17X 8539   5.811   2.271   8.752 -0.1113  0.2286  0.6796
   88SAPS  H17Y 8540   5.931   2.407   8.758 -0.6816 -0.5555  1.2608
   88SAPS  C318 8541   5.749   2.436   8.634 -0.0214 -0.3835  0.6071
   88SAPS  H18X 8542   5.641   2.458   8.650 -0.0527  0.3295 -0.4653
   88SAPS  H18Y 8543   5.762   2.372   8.544 -1.0346 -0.3677  0.4348
   88SAPS  H18Z 8544   5.800   2.531   8.604 -0.6707 -1.0984 -3.3775
   89SAPS     N 8545   0.143   5.553  11.167 -0.2901  0.4006  0.4063
   89SAPS   HN1 8546   0.131   5.656  11.157  0.5879  0.3148 -1.8812
   89SAPS   HN2 8547   0.086   5.499  11.099 -1.6990  1.8301  0.3691
   89SAPS   HN3 8548   0.122   5.521  11.264  2.1504 -0.6046  0.6510
   89SAPS   C12 8549   0.290   5.521  11.153 -0.0364  0.6027 -0.3752
   89SAPS  H12A 8550   0.318   5.550  11.053  0.0831 -0.8129 -0.7726
   89SAPS   C13 8551   0.387   5.592  11.258 -0.1359  0.6799  0.4133
   89SAPS  O13A 8552   0.350   5.685  11.324  0.4140 -0.0025 -0.5335
   89SAPS  O13B 8553   0.513   5.568  11.249  0.3483 -0.4528  0.2592
   89SAPS   C11 8554   0.308   5.371  11.167  0.3879 -0.2833 -0.4501
   89SAPS  H11A 8555   0.273   5.335  11.266 -3.7268  2.2985 -0.7629
   89SAPS  H11B 8556   0.417   5.349  11.164  1.3075  2.4530  3.9518
   89SAPS     P 8557   0.302   5.252  10.935  0.0736  0.3302 -0.5858
   89SAPS   O13 8558   0.447   5.231  10.950  0.1081  0.2099 -0.0731
   89SAPS   O14 8559   0.223   5.133  10.883  0.1033  0.0431  0.0421
   89SAPS   O12 8560   0.243   5.297  11.068 -0.1330 -1.0238  0.2728
   89SAPS   O11 8561   0.281   5.377  10.839 -0.1392  0.0656  0.4335
   89SAPS    C1 8562   0.150   5.412  10.799 -0.1554  0.0614 -0.0691
   89SAPS    HA 8563   0.072   5.342  10.835 -1.5338  0.3009 -2.3615
   89SAPS    HB 8564   0.133   5.517  10.834  3.1240 -0.0103  2.1938
   89SAPS    C2 8565   0.136   5.434  10.641  0.0828  0.0846  0.0425
   89SAPS    HS 8566   0.030   5.461  10.618 -0.2331  0.6266  1.9533
   89SAPS   O21 8567   0.161   5.313  10.573  0.4500  0.6103  0.0061
   89SAPS   C21 8568   0.067   5.214  10.593  0.1924  0.6861  0.7218
   89SAPS   O22 8569  -0.046   5.229  10.634  0.5846  0.3248 -0.4568
   89SAPS   C22 8570   0.130   5.080  10.526  0.0010 -0.3933  0.1933
   89SAPS   H2R 8571   0.182   5.117  10.435 -0.1747  2.1460  1.0530
   89SAPS   H2S 8572   0.205   5.039  10.597  1.8509 -0.7363 -1.8487
   89SAPS    C3 8573   0.228   5.540  10.590  0.2608 -0.0370  0.4345
   89SAPS    HX 8574   0.328   5.491  10.590  0.4901  0.3775 -1.5657
   89SAPS    HY 8575   0.229   5.630  10.656  0.0701  0.3980 -0.1551
   89SAPS   O31 8576   0.191   5.584  10.457 -0.1184  0.6777  0.2591
   89SAPS   C31 8577   0.290   5.659  10.398 -0.1883 -0.6981 -0.2406
   89SAPS   O32 8578   0.390   5.709  10.452  0.4259 -0.1775  0.1870
   89SAPS   C32 8579   0.246   5.679  10.248  1.2118 -0.5490 -0.4793
   89SAPS   H2X 8580   0.157   5.744  10.235 -0.7479 -2.7205  1.3117
   89SAPS   H2Y 8581   0.202   5.581  10.220 -2.2915  0.8555 -0.3661
   89SAPS   C23 8582   0.028   4.975  10.486 -0.9486 -0.6277  0.5385
   89SAPS   H3R 8583  -0.025   4.941  10.578 -0.2822 -0.7984  0.8640
   89SAPS   H3S 8584   0.094   4.889  10.463 -1.3193 -0.8975  0.4753
   89SAPS   C24 8585  -0.052   5.006  10.356  1.1525 -0.4779  0.1392
   89SAPS   H4R 8586  -0.109   4.918  10.320 -0.6377  0.0171  1.6611
   89SAPS   H4S 8587   0.006   5.043  10.268 -1.1372  0.5397 -1.0158
   89SAPS   C25 8588  -0.175   5.092  10.385  0.1472  0.3048 -0.1209
   89SAPS   H5R 8589  -0.240   5.060  10.468 -0.2236  2.5018  0.5004
   89SAPS   C26 8590  -0.209   5.198  10.315  0.1256 -0.3785  0.6061
   89SAPS   H6R 8591  -0.292   5.259  10.352  0.1147 -0.3991  0.6152
   89SAPS   C27 8592  -0.142   5.256  10.192  0.0023 -0.1977  0.9799
   89SAPS   H7R 8593  -0.082   5.172  10.152  0.1961 -0.5029  1.8760
   89SAPS   H7S 8594  -0.068   5.335  10.215 -0.2504  0.1868  0.4917
   89SAPS   C28 8595  -0.236   5.317  10.092  0.2733 -0.0274  0.5218
   89SAPS   H8R 8596  -0.325   5.366  10.134 -0.4210  1.1054 -2.0840
   89SAPS   C29 8597  -0.239   5.316   9.952 -0.6920 -0.2594  0.7305
   89SAPS   H9R 8598  -0.316   5.360   9.887  1.8140 -0.1553 -2.4022
   89SAPS  C210 8599  -0.126   5.266   9.859 -0.2905  0.4210 -0.2193
   89SAPS  H10R 8600  -0.077   5.176   9.903  1.7728  1.2609 -0.7062
   89SAPS  H10S 8601  -0.056   5.350   9.875 -1.8916  1.5297  1.3406
   89SAPS  C211 8602  -0.167   5.244   9.719  0.2748 -0.5265  0.5281
   89SAPS  H11R 8603  -0.272   5.214   9.712 -0.0023  0.5131  0.0055
   89SAPS  C212 8604  -0.105   5.272   9.603 -0.1959  0.4874 -0.4913
   89SAPS  H12R 8605  -0.160   5.251   9.511  0.4736 -0.0369 -0.7793
   89SAPS  C213 8606   0.041   5.327   9.592  0.0840 -0.0134 -0.6831
   89SAPS  H13R 8607   0.078   5.283   9.497  1.4476 -2.1212  0.7196
   89SAPS  H13S 8608   0.106   5.272   9.664 -1.2121 -3.2954 -1.8182
   89SAPS  C214 8609   0.046   5.481   9.599 -0.1499 -0.6072 -0.1806
   89SAPS  H14R 8610  -0.011   5.537   9.673  0.7101  1.0230 -0.7055
   89SAPS  C215 8611   0.119   5.548   9.511 -0.1121  0.3288 -0.0847
   89SAPS  H15R 8612   0.125   5.657   9.521 -1.0972  0.2847  1.2856
   89SAPS  C216 8613   0.187   5.486   9.389 -0.3239 -0.2614  0.3344
   89SAPS  H16R 8614   0.134   5.411   9.326 -0.1811  0.4771 -0.7089
   89SAPS  H16S 8615   0.288   5.444   9.410 -1.1528 -1.3069  2.5197
   89SAPS  C217 8616   0.223   5.606   9.299  0.5177  0.1502 -0.8099
   89SAPS  H17R 8617   0.298   5.673   9.345  0.4651  0.3892 -1.0722
   89SAPS  H17S 8618   0.136   5.674   9.287  1.2224  1.2028 -0.1434
   89SAPS  C218 8619   0.275   5.573   9.153  0.4995 -0.2360 -0.2356
   89SAPS  H18R 8620   0.310   5.671   9.113  2.2204  0.6126  2.9852
   89SAPS  H18S 8621   0.179   5.550   9.103 -1.1663  2.7949  1.2625
   89SAPS  C219 8622   0.376   5.462   9.144  0.0962  0.8985 -0.3597
   89SAPS  H19R 8623   0.395   5.434   9.039  1.5885  3.0251 -0.7167
   89SAPS  H19S 8624   0.340   5.370   9.196  1.0649  0.1183 -1.0211
   89SAPS  C220 8625   0.515   5.497   9.200  0.6479  0.2590  0.2513
   89SAPS  H20R 8626   0.503   5.540   9.301 -0.1574 -1.1791  0.8115
   89SAPS  H20S 8627   0.555   5.577   9.134  1.0538 -0.5888 -0.5583
   89SAPS  H20T 8628   0.569   5.400   9.202 -1.7098 -1.1374  0.5248
   89SAPS   C33 8629   0.359   5.735  10.162  0.7189 -0.6186 -0.2076
   89SAPS   H3X 8630   0.439   5.658  10.157  2.3776  0.9395  1.1314
   89SAPS   H3Y 8631   0.401   5.826  10.210 -0.0492 -1.3391  1.9581
   89SAPS   C34 8632   0.309   5.778  10.026 -0.1357  0.3983  0.3193
   89SAPS   H4X 8633   0.229   5.855  10.021 -0.5931 -0.0298  0.8405
   89SAPS   H4Y 8634   0.272   5.687   9.975 -2.7331  0.0300  2.6016
   89SAPS   C35 8635   0.423   5.821   9.936  0.0204  0.3100 -0.7701
   89SAPS   H5X 8636   0.498   5.741   9.920  2.5384  2.2053  0.7667
   89SAPS   H5Y 8637   0.473   5.910   9.979  0.9838 -0.7664  0.4162
   89SAPS   C36 8638   0.364   5.860   9.797  0.2746 -0.1926 -0.1539
   89SAPS   H6X 8639   0.295   5.947   9.807  1.3758  1.4143 -4.1746
   89SAPS   H6Y 8640   0.313   5.767   9.763  1.7938 -0.7306 -1.0597
   89SAPS   C37 8641   0.486   5.883   9.702  0.3482 -0.1698 -0.5249
   89SAPS   H7X 8642   0.544   5.789   9.688  1.0643  0.4640 -1.9816
   89SAPS   H7Y 8643   0.551   5.963   9.744  0.7217 -1.3581  1.2820
   89SAPS   C38 8644   0.432   5.922   9.560 -0.2574 -0.9186 -0.1522
   89SAPS   H8X 8645   0.389   6.024   9.566  0.7153 -0.5839  2.4822
   89SAPS   H8Y 8646   0.355   5.856   9.514 -0.2749  0.0078 -1.5027
   89SAPS   C39 8647   0.546   5.938   9.456  0.1232  0.0531  0.4724
   89SAPS   H9X 8648   0.606   5.845   9.449  1.6988  1.1313 -1.4049
   89SAPS   H9Y 8649   0.610   6.025   9.481 -1.0291  0.6382  1.4814
   89SAPS  C310 8650   0.489   5.961   9.320  0.0535 -0.4811  0.3579
   89SAPS  H10X 8651   0.421   6.047   9.334  1.4581  0.5673  0.9750
   89SAPS  H10Y 8652   0.434   5.875   9.278  0.4379  0.2259 -1.7040
   89SAPS  C311 8653   0.590   5.998   9.208  0.0274  0.6625  0.3128
   89SAPS  H11X 8654   0.662   5.915   9.195 -1.1728 -0.1423 -1.4831
   89SAPS  H11Y 8655   0.654   6.083   9.243 -0.1985  0.5313  1.0675
   89SAPS  C312 8656   0.526   6.023   9.071 -0.6069 -0.7821 -0.3853
   89SAPS  H12X 8657   0.495   6.129   9.058  0.5312 -0.1953  1.3784
   89SAPS  H12Y 8658   0.443   5.950   9.059 -0.1916 -1.1429 -1.1200
   89SAPS  C313 8659   0.620   5.996   8.955  0.2724 -0.2250 -0.1379
   89SAPS  H13X 8660   0.650   5.889   8.966 -0.8400 -0.6010 -0.5688
   89SAPS  H13Y 8661   0.706   6.061   8.980  0.6140 -0.2692 -1.1495
   89SAPS  C314 8662   0.557   6.037   8.818  0.2654  0.0311  0.0280
   89SAPS  H14X 8663   0.514   6.140   8.825  1.6645  0.6988 -0.7289
   89SAPS  H14Y 8664   0.481   5.961   8.791  0.5015 -0.1056 -0.2607
   89SAPS  C315 8665   0.668   6.047   8.711  0.5737 -0.1627  0.2015
   89SAPS  H15X 8666   0.737   5.960   8.710  3.1445  1.7187  1.5275
   89SAPS  H15Y 8667   0.739   6.122   8.751 -0.1088  0.4489  0.2841
   89SAPS  C316 8668   0.607   6.085   8.571 -0.1841 -0.8908 -0.1136
   89SAPS  H16X 8669   0.521   6.016   8.558 -0.1610 -0.9996  0.3013
   89SAPS  H16Y 8670   0.675   6.064   8.486 -1.0670 -1.5461 -0.6695
   89SAPS  C317 8671   0.560   6.225   8.544 -0.1534 -0.8602  0.2870
   89SAPS  H17X 8672   0.647   6.291   8.566 -1.8897  0.9616  2.0962
   89SAPS  H17Y 8673   0.490   6.251   8.626  1.8777  0.7935  1.5883
   89SAPS  C318 8674   0.492   6.238   8.408 -0.4928 -0.2870 -0.0928
   89SAPS  H18X 8675   0.562   6.214   8.325 -1.0063 -0.3897 -0.5007
   89SAPS  H18Y 8676   0.461   6.344   8.391 -1.0843 -0.2406  1.1816
   89SAPS  H18Z 8677   0.404   6.171   8.404  1.3868 -2.8969  0.2408
   90SAPS     N 8678   0.253   4.494  11.012  0.0408  0.7220 -0.2710
   90SAPS   HN1 8679   0.234   4.451  11.105  0.6286 -0.8861 -0.8556
   90SAPS   HN2 8680   0.353   4.471  10.993 -0.4757 -2.3641  0.2875
   90SAPS   HN3 8681   0.236   4.596  11.013 -0.1521  0.6850  0.1985
   90SAPS   C12 8682   0.167   4.418  10.910 -0.1672  1.0022 -0.5208
   90SAPS  H12A 8683   0.213   4.439  10.815  2.7073  2.9713  1.1542
   90SAPS   C13 8684   0.149   4.266  10.934  0.0236  0.6103 -0.6790
   90SAPS  O13A 8685   0.212   4.213  11.035  0.8372  0.1518  0.0223
   90SAPS  O13B 8686   0.119   4.189  10.841  0.2199  0.0207  0.7947
   90SAPS   C11 8687   0.017   4.476  10.903 -0.6740 -0.0151 -0.2758
   90SAPS  H11A 8688  -0.021   4.476  11.008 -0.0352 -0.2472 -0.0383
   90SAPS  H11B 8689  -0.051   4.415  10.840 -1.9349 -0.4582  1.4382
   90SAPS     P 8690  -0.100   4.692  10.803  0.0356  0.0173  0.0926
   90SAPS   O13 8691  -0.221   4.676  10.883 -0.2552 -0.4168  0.0083
   90SAPS   O14 8692  -0.059   4.829  10.774 -0.1559  0.1974  0.1744
   90SAPS   O12 8693   0.024   4.614  10.865  0.4120 -0.1064  0.3382
   90SAPS   O11 8694  -0.122   4.607  10.670 -0.2211 -0.0318 -0.9829
   90SAPS    C1 8695  -0.159   4.661  10.545 -0.2808  0.0271  0.4517
   90SAPS    HA 8696  -0.173   4.771  10.540 -0.8192 -0.0960 -2.1486
   90SAPS    HB 8697  -0.071   4.648  10.479  1.9431  1.4681  2.9443
   90SAPS    C2 8698  -0.281   4.592  10.492 -0.5174 -0.3534 -0.0309
   90SAPS    HS 8699  -0.355   4.604  10.574 -0.6499 -0.9524 -0.0568
   90SAPS   O21 8700  -0.245   4.450  10.474  0.3755 -0.3039 -0.6003
   90SAPS   C21 8701  -0.337   4.362  10.463 -0.4200  0.5384  0.4196
   90SAPS   O22 8702  -0.458   4.377  10.468  0.5913 -0.1921  0.2016
   90SAPS   C22 8703  -0.272   4.228  10.429  0.6417  0.8631  0.3123
   90SAPS   H2R 8704  -0.205   4.243  10.342  0.6521  0.8466  0.3179
   90SAPS   H2S 8705  -0.210   4.189  10.513 -0.3596  3.4628  2.4179
   90SAPS    C3 8706  -0.355   4.661  10.367  0.0146 -0.0334  0.4762
   90SAPS    HX 8707  -0.406   4.756  10.392  0.7357  0.2131  1.0393
   90SAPS    HY 8708  -0.436   4.597  10.326 -1.8369  3.3580 -1.6488
   90SAPS   O31 8709  -0.266   4.678  10.257 -0.1296  0.4187  0.3134
   90SAPS   C31 8710  -0.311   4.693  10.132 -0.3166  0.2664  0.6420
   90SAPS   O32 8711  -0.424   4.692  10.095  0.0312  0.0273 -0.3014
   90SAPS   C32 8712  -0.194   4.729  10.042 -0.3544  1.1340  0.0339
   90SAPS   H2X 8713  -0.118   4.649  10.054  0.9272  2.3148  0.0951
   90SAPS   H2Y 8714  -0.144   4.819  10.085  1.8887  0.2911 -0.6756
   90SAPS   C23 8715  -0.383   4.119  10.399  0.7024  0.4146  0.4098
   90SAPS   H3R 8716  -0.465   4.130  10.473  0.2248 -0.5821  0.0529
   90SAPS   H3S 8717  -0.336   4.021  10.421  1.3012  0.6803  0.3398
   90SAPS   C24 8718  -0.449   4.113  10.263 -0.0472  0.2835 -0.2132
   90SAPS   H4R 8719  -0.543   4.055  10.270 -0.0199  0.2214 -0.3592
   90SAPS   H4S 8720  -0.380   4.055  10.198 -1.2864 -2.8070  1.0479
   90SAPS   C25 8721  -0.490   4.243  10.198 -0.3940 -0.9639 -0.0936
   90SAPS   H5R 8722  -0.589   4.281  10.225  0.5287  0.7873  0.9892
   90SAPS   C26 8723  -0.419   4.311  10.100  0.8349  0.4633  0.4519
   90SAPS   H6R 8724  -0.462   4.402  10.057 -0.0333 -0.8289 -1.5226
   90SAPS   C27 8725  -0.288   4.268  10.036  0.6040 -0.1422  0.2160
   90SAPS   H7R 8726  -0.224   4.226  10.117  0.6014 -0.5102  0.0268
   90SAPS   H7S 8727  -0.224   4.355  10.009 -0.1179  0.7678  1.3508
   90SAPS   C28 8728  -0.292   4.171   9.916 -0.0313  0.2833 -0.0523
   90SAPS   H8R 8729  -0.288   4.067   9.950  2.5690 -0.6008 -2.6635
   90SAPS   C29 8730  -0.294   4.210   9.786 -0.2422 -0.0442 -0.8444
   90SAPS   H9R 8731  -0.295   4.122   9.720 -1.5198 -0.5062 -0.2430
   90SAPS  C210 8732  -0.289   4.349   9.739 -0.0212 -0.0959  0.8503
   90SAPS  H10R 8733  -0.186   4.379   9.713 -0.1833 -1.1152 -1.2518
   90SAPS  H10S 8734  -0.327   4.422   9.813  0.8307  2.0103 -0.6999
   90SAPS  C211 8735  -0.386   4.356   9.620 -0.3500  0.8546 -0.1627
   90SAPS  H11R 8736  -0.492   4.355   9.648  0.0410 -1.2175  1.4854
   90SAPS  C212 8737  -0.368   4.357   9.487  0.3183  0.4527  0.1044
   90SAPS  H12R 8738  -0.458   4.345   9.424  0.1029 -1.8050  0.7604
   90SAPS  C213 8739  -0.243   4.343   9.425 -0.2255 -0.0671 -0.5902
   90SAPS  H13R 8740  -0.243   4.239   9.387 -0.1280  0.0874 -1.0114
   90SAPS  H13S 8741  -0.151   4.355   9.486  0.9965 -0.7250 -2.2380
   90SAPS  C214 8742  -0.226   4.450   9.315 -0.6268  0.0648  0.0565
   90SAPS  H14R 8743  -0.180   4.545   9.346 -1.8141  0.3872  0.8924
   90SAPS  C215 8744  -0.272   4.442   9.182 -0.6389 -0.8459 -0.1539
   90SAPS  H15R 8745  -0.259   4.528   9.114 -0.9121 -1.8173 -1.4727
   90SAPS  C216 8746  -0.347   4.318   9.136 -0.2245 -0.0961  1.0320
   90SAPS  H16R 8747  -0.455   4.323   9.163  0.0257  4.0566  1.8591
   90SAPS  H16S 8748  -0.306   4.228   9.188  0.4826 -1.2327 -1.3392
   90SAPS  C217 8749  -0.326   4.286   8.987  0.4127 -0.1765  0.1255
   90SAPS  H17R 8750  -0.374   4.187   8.967 -0.5620  0.2678  0.1913
   90SAPS  H17S 8751  -0.216   4.278   8.972  0.6011 -0.2761  1.4093
   90SAPS  C218 8752  -0.379   4.394   8.895  0.3040 -0.1155  0.1885
   90SAPS  H18R 8753  -0.323   4.488   8.915 -2.0224  1.9674 -2.3818
   90SAPS  H18S 8754  -0.488   4.399   8.917  0.2494  0.6576 -0.2407
   90SAPS  C219 8755  -0.358   4.370   8.748 -0.0251 -0.4916  0.1459
   90SAPS  H19R 8756  -0.395   4.268   8.722  1.0105 -1.1327  1.0909
   90SAPS  H19S 8757  -0.250   4.364   8.721 -0.1145  0.4703 -0.4896
   90SAPS  C220 8758  -0.425   4.475   8.662  0.2815  0.3961  0.2177
   90SAPS  H20R 8759  -0.374   4.571   8.685  0.6389  0.1499  0.4620
   90SAPS  H20S 8760  -0.527   4.466   8.705  0.1877  1.8390  0.3440
   90SAPS  H20T 8761  -0.428   4.435   8.559  0.6464 -2.4408  1.2230
   90SAPS   C33 8762  -0.239   4.738   9.891  0.5999  0.3427  0.3563
   90SAPS   H3X 8763  -0.320   4.811   9.871  0.9205  0.3871 -0.8766
   90SAPS   H3Y 8764  -0.270   4.639   9.852 -0.0542  0.7918 -0.2711
   90SAPS   C34 8765  -0.116   4.775   9.815  0.2680 -0.5111 -0.4427
   90SAPS   H4X 8766  -0.026   4.720   9.847  1.5995  1.3171 -0.8744
   90SAPS   H4Y 8767  -0.088   4.881   9.834  0.6632 -0.8663  1.1471
   90SAPS   C35 8768  -0.125   4.760   9.662  0.3827 -0.6768  0.1652
   90SAPS   H5X 8769  -0.129   4.651   9.640  2.8233 -1.1373  1.6105
   90SAPS   H5Y 8770  -0.028   4.794   9.621 -1.0717  2.4270 -0.9881
   90SAPS   C36 8771  -0.241   4.839   9.598 -0.3735 -0.4984  0.4238
   90SAPS   H6X 8772  -0.244   4.946   9.628 -0.2399 -1.1111  2.8309
   90SAPS   H6Y 8773  -0.339   4.803   9.636  0.0141 -1.7602  0.2837
   90SAPS   C37 8774  -0.234   4.832   9.446 -0.2048  0.0799  0.0247
   90SAPS   H7X 8775  -0.281   4.734   9.425  0.0414  0.0822 -0.5496
   90SAPS   H7Y 8776  -0.130   4.837   9.407 -1.0293 -0.6675 -2.4241
   90SAPS   C38 8777  -0.314   4.941   9.381  0.0319  0.3337  0.3076
   90SAPS   H8X 8778  -0.287   5.045   9.409  0.6841  0.1416  0.4016
   90SAPS   H8Y 8779  -0.417   4.917   9.413  1.0306 -2.7466  1.5412
   90SAPS   C39 8780  -0.310   4.953   9.225 -0.4963 -1.3281 -0.2932
   90SAPS   H9X 8781  -0.219   5.004   9.188 -2.2420  2.7768  0.5361
   90SAPS   H9Y 8782  -0.380   5.033   9.193  0.4425  0.8040  2.5348
   90SAPS  C310 8783  -0.326   4.823   9.153 -0.1378 -0.0800  0.5040
   90SAPS  H10X 8784  -0.431   4.790   9.140  0.1207 -0.0789 -2.0857
   90SAPS  H10Y 8785  -0.281   4.743   9.216 -1.6049 -1.0108  0.4239
   90SAPS  C311 8786  -0.270   4.817   9.014 -0.2784  0.1694  0.2181
   90SAPS  H11X 8787  -0.294   4.713   8.983 -1.6295  0.9639 -1.5664
   90SAPS  H11Y 8788  -0.160   4.820   9.022 -0.2979 -1.2363  1.6167
   90SAPS  C312 8789  -0.329   4.900   8.900  0.3569  0.3915  0.4313
   90SAPS  H12X 8790  -0.289   4.999   8.932  0.7409  0.3526  0.0717
   90SAPS  H12Y 8791  -0.440   4.900   8.898  0.3431 -1.6000 -0.2938
   90SAPS  C313 8792  -0.271   4.866   8.765 -0.2507 -0.7326  0.2744
   90SAPS  H13X 8793  -0.340   4.805   8.703 -1.0015  1.1627 -0.8254
   90SAPS  H13Y 8794  -0.182   4.802   8.782 -0.7240 -0.6988  3.5080
   90SAPS  C314 8795  -0.233   4.996   8.676 -0.6130 -0.2872  0.5302
   90SAPS  H14X 8796  -0.168   4.960   8.594  1.8203  0.8434  1.8408
   90SAPS  H14Y 8797  -0.186   5.083   8.728  0.9319 -0.7850  0.0351
   90SAPS  C315 8798  -0.357   5.060   8.606 -0.3982  0.0704 -0.4065
   90SAPS  H15X 8799  -0.417   5.112   8.683 -2.8188 -0.8225 -1.6005
   90SAPS  H15Y 8800  -0.414   4.980   8.555  1.8828  0.5428 -4.1149
   90SAPS  C316 8801  -0.315   5.160   8.505  0.0439 -0.0757  0.4968
   90SAPS  H16X 8802  -0.269   5.105   8.420  0.4344  0.3195  0.4515
   90SAPS  H16Y 8803  -0.252   5.239   8.551 -2.3648  2.6474 -0.5269
   90SAPS  C317 8804  -0.449   5.218   8.457 -0.5775 -0.1051 -0.3300
   90SAPS  H17X 8805  -0.486   5.265   8.551  2.9543 -1.7952  2.1180
   90SAPS  H17Y 8806  -0.527   5.140   8.441 -0.3520 -0.2477 -0.7582
   90SAPS  C318 8807  -0.447   5.317   8.343  0.6825  0.4492 -0.1373
   90SAPS  H18X 8808  -0.368   5.391   8.371  0.3848  1.6291 -2.2066
   90SAPS  H18Y 8809  -0.540   5.377   8.331  0.4862  0.4627  1.2901
   90SAPS  H18Z 8810  -0.420   5.264   8.249  0.2531 -1.7655  0.9290
   91SAPS     N 8811   5.237   3.555   5.951  0.4800 -0.4860  0.3466
   91SAPS   HN1 8812   5.204   3.519   6.043  0.3973  2.1849  1.4438
   91SAPS   HN2 8813   5.241   3.658   5.960  4.0227 -0.5727  0.9195
   91SAPS   HN3 8814   5.170   3.540   5.873  0.7712  0.1244 -0.0222
   91SAPS   C12 8815   5.368   3.493   5.913 -0.7406  0.8635  0.2726
   91SAPS  H12A 8816   5.353   3.386   5.927 -1.1379  0.8582 -0.1555
   91SAPS   C13 8817   5.402   3.502   5.764 -0.7222 -0.3031  0.0216
   91SAPS  O13A 8818   5.318   3.543   5.683 -0.2801  0.5207 -0.4134
   91SAPS  O13B 8819   5.512   3.456   5.723  0.3147  0.3215  0.4039
   91SAPS   C11 8820   5.480   3.532   6.008  0.2948 -0.8222 -0.2027
   91SAPS  H11A 8821   5.490   3.643   6.012 -0.0365 -0.6912 -2.0777
   91SAPS  H11B 8822   5.581   3.499   5.973  0.2446 -0.1297 -1.0354
   91SAPS     P 8823   5.522   3.347   6.198  0.0518 -0.3322 -0.1289
   91SAPS   O13 8824   5.479   3.337   6.341  0.6501 -0.2213  0.2476
   91SAPS   O14 8825   5.492   3.236   6.103 -0.2748 -0.0091  0.2565
   91SAPS   O12 8826   5.465   3.483   6.140 -0.4000  0.5164  0.2723
   91SAPS   O11 8827   5.678   3.372   6.189 -0.4408 -0.3229  0.1499
   91SAPS    C1 8828   5.746   3.488   6.247  0.3651 -0.5802 -0.0811
   91SAPS    HA 8829   5.832   3.523   6.187 -0.6572 -0.1647 -1.3526
   91SAPS    HB 8830   5.671   3.570   6.243  1.8475  0.8055 -0.2616
   91SAPS    C2 8831   5.791   3.459   6.391 -0.0300  0.1695  0.0199
   91SAPS    HS 8832   5.697   3.440   6.446 -1.3368  0.2624 -2.0840
   91SAPS   O21 8833   5.877   3.562   6.445  0.3269  0.1775 -0.2859
   91SAPS   C21 8834   5.808   3.670   6.476 -0.6372  0.7356 -0.2680
   91SAPS   O22 8835   5.690   3.690   6.465 -0.0412  0.0963  0.6434
   91SAPS   C22 8836   5.908   3.769   6.526 -0.6725 -0.2863  0.8312
   91SAPS   H2R 8837   5.983   3.711   6.583 -0.2910 -1.6255 -0.9376
   91SAPS   H2S 8838   5.969   3.788   6.435  0.8438 -3.3288  1.0925
   91SAPS    C3 8839   5.864   3.323   6.394 -0.2998 -0.2753  1.0596
   91SAPS    HX 8840   5.960   3.322   6.338 -0.1422  3.3219  1.0695
   91SAPS    HY 8841   5.796   3.251   6.343  0.4215 -0.9575  1.0416
   91SAPS   O31 8842   5.875   3.299   6.529 -0.0887  0.2575 -0.0287
   91SAPS   C31 8843   5.983   3.222   6.570  0.3692 -0.6493  0.9356
   91SAPS   O32 8844   6.074   3.186   6.492  0.2933  0.4250  0.1750
   91SAPS   C32 8845   5.975   3.200   6.721 -0.0165 -0.1631  0.1696
   91SAPS   H2X 8846   5.908   3.111   6.729  0.4788 -0.5910 -0.3301
   91SAPS   H2Y 8847   5.933   3.291   6.768 -0.1953 -0.0924 -0.1227
   91SAPS   C23 8848   5.853   3.905   6.568 -0.3208 -0.1880  1.1796
   91SAPS   H3R 8849   5.771   3.932   6.498 -0.8505  0.6598  2.0973
   91SAPS   H3S 8850   5.928   3.985   6.550 -0.6198 -0.3301 -0.9698
   91SAPS   C24 8851   5.798   3.918   6.715 -0.0067 -0.4194 -0.1922
   91SAPS   H4R 8852   5.759   4.019   6.741 -1.6342 -1.1767  0.4646
   91SAPS   H4S 8853   5.882   3.895   6.783  2.6083  1.2428 -2.5786
   91SAPS   C25 8854   5.682   3.821   6.748 -0.4353 -0.4348  0.2473
   91SAPS   H5R 8855   5.615   3.792   6.666 -1.8103  1.1406  0.7643
   91SAPS   C26 8856   5.661   3.759   6.869  0.3730  1.0788  0.6263
   91SAPS   H6R 8857   5.575   3.692   6.883  1.5973 -0.3498  1.6364
   91SAPS   C27 8858   5.746   3.771   6.990  0.8014 -0.1675  0.2484
   91SAPS   H7R 8859   5.675   3.768   7.076 -0.7696  2.2316 -0.8370
   91SAPS   H7S 8860   5.796   3.870   6.986 -0.9585  0.7298 -0.6559
   91SAPS   C28 8861   5.854   3.671   7.000  0.0916  0.3773  0.3595
   91SAPS   H8R 8862   5.881   3.617   6.908  0.4561  1.8886 -0.4519
   91SAPS   C29 8863   5.908   3.622   7.113 -0.2977  0.8983 -0.3606
   91SAPS   H9R 8864   5.979   3.539   7.113  1.0912  2.0056 -2.4949
   91SAPS  C210 8865   5.869   3.678   7.252 -1.0758  0.0229 -0.4266
   91SAPS  H10R 8866   5.876   3.598   7.328 -0.9818  1.6663  1.3799
   91SAPS  H10S 8867   5.759   3.692   7.254 -1.0055  0.8118 -1.2018
   91SAPS  C211 8868   5.944   3.801   7.295  0.1306  0.0249 -0.1964
   91SAPS  H11R 8869   5.994   3.848   7.209 -2.0450  1.0143 -1.0118
   91SAPS  C212 8870   5.953   3.851   7.417  0.0838 -0.1466 -0.5196
   91SAPS  H12R 8871   6.026   3.930   7.439  0.9752 -0.9365 -0.6220
   91SAPS  C213 8872   5.884   3.798   7.533 -0.4734  0.8154  0.1880
   91SAPS  H13R 8873   5.838   3.702   7.504 -0.0787  0.6552  0.0795
   91SAPS  H13S 8874   5.802   3.868   7.560  0.9537  2.5218  0.3193
   91SAPS  C214 8875   5.987   3.777   7.634  0.4251 -0.7377 -0.5387
   91SAPS  H14R 8876   6.091   3.767   7.599  1.6887  1.6962  2.0116
   91SAPS  C215 8877   5.959   3.769   7.771  0.2088  0.2186 -0.1515
   91SAPS  H15R 8878   6.045   3.770   7.839  0.0330 -1.3705  0.1305
   91SAPS  C216 8879   5.830   3.789   7.846 -0.5766  0.7895 -0.2821
   91SAPS  H16R 8880   5.788   3.687   7.864  2.2068 -0.8948 -2.3692
   91SAPS  H16S 8881   5.757   3.842   7.781 -0.2103  0.7481 -0.7346
   91SAPS  C217 8882   5.849   3.857   7.985  0.2926  0.5237  0.3217
   91SAPS  H17R 8883   5.743   3.852   8.021 -0.3747 -1.8354 -1.6830
   91SAPS  H17S 8884   5.881   3.963   7.978  1.4479  0.2247  0.8106
   91SAPS  C218 8885   5.939   3.794   8.087 -0.2379  0.4157 -0.3958
   91SAPS  H18R 8886   6.041   3.837   8.076 -0.3816  0.7310 -0.4849
   91SAPS  H18S 8887   5.932   3.684   8.070 -0.7970  0.2631  0.6858
   91SAPS  C219 8888   5.887   3.811   8.228  0.1527  0.0773  0.1139
   91SAPS  H19R 8889   5.797   3.747   8.236  0.8421 -1.0219 -0.6744
   91SAPS  H19S 8890   5.847   3.914   8.237  0.2721  0.3830 -2.1070
   91SAPS  C220 8891   5.987   3.763   8.334  0.6247 -0.9709  0.4203
   91SAPS  H20R 8892   6.082   3.821   8.322  0.3531 -0.3377  1.2457
   91SAPS  H20S 8893   6.015   3.662   8.297 -0.5057 -0.5192 -1.8186
   91SAPS  H20T 8894   5.963   3.762   8.442 -0.2238 -0.0705  0.2520
   91SAPS   C33 8895   6.108   3.175   6.789  0.2200  0.3471  0.1941
   91SAPS   H3X 8896   6.160   3.273   6.797  3.1433 -1.1495  0.8869
   91SAPS   H3Y 8897   6.168   3.106   6.726 -1.9753  0.2728 -1.9587
   91SAPS   C34 8898   6.092   3.130   6.928  0.8975 -0.1134 -0.4153
   91SAPS   H4X 8899   6.188   3.129   6.984  0.9451 -1.5172 -0.4807
   91SAPS   H4Y 8900   6.050   3.028   6.945  0.9295  0.0097  0.4695
   91SAPS   C35 8901   6.013   3.223   7.018  1.3222 -0.0748 -0.4694
   91SAPS   H5X 8902   5.908   3.230   6.980  1.3572 -0.2558 -0.6022
   91SAPS   H5Y 8903   6.061   3.323   7.013  0.4873  0.3745  0.2219
   91SAPS   C36 8904   6.000   3.186   7.171 -0.0203 -0.9357 -0.3084
   91SAPS   H6X 8905   5.977   3.077   7.169 -0.0315 -0.9947  1.4319
   91SAPS   H6Y 8906   5.916   3.246   7.214  0.2630  0.1588 -1.2584
   91SAPS   C37 8907   6.128   3.206   7.252 -0.2079  0.1673 -0.1257
   91SAPS   H7X 8908   6.155   3.313   7.268 -1.6770  0.4579  0.4930
   91SAPS   H7Y 8909   6.207   3.146   7.201 -0.7304  0.3277 -1.1660
   91SAPS   C38 8910   6.112   3.153   7.392 -0.1041 -0.7776  0.1878
   91SAPS   H8X 8911   6.206   3.185   7.441 -0.7693  1.1423  0.2667
   91SAPS   H8Y 8912   6.106   3.043   7.377  2.0006 -1.0664  1.1630
   91SAPS   C39 8913   6.008   3.222   7.483 -0.0956  0.1107  0.3667
   91SAPS   H9X 8914   5.912   3.189   7.437 -0.3120  0.1433  0.7878
   91SAPS   H9Y 8915   6.031   3.330   7.491  0.2676  0.0714 -0.0999
   91SAPS  C310 8916   6.017   3.174   7.626 -0.4539  0.2276 -1.4977
   91SAPS  H10X 8917   6.116   3.158   7.673 -0.0727  1.2623 -1.9212
   91SAPS  H10Y 8918   5.971   3.072   7.627  0.5179 -0.2535  0.7834
   91SAPS  C311 8919   5.926   3.264   7.714  0.3709 -0.2008 -0.5037
   91SAPS  H11X 8920   5.818   3.250   7.690  0.5353 -0.7857 -0.9334
   91SAPS  H11Y 8921   5.944   3.373   7.703 -0.1073 -0.3315 -3.3816
   91SAPS  C312 8922   5.929   3.229   7.864 -0.3307 -1.1534  0.2335
   91SAPS  H12X 8923   5.874   3.313   7.911 -0.7171  0.1037 -2.2826
   91SAPS  H12Y 8924   6.035   3.234   7.898 -0.2700 -0.8955  0.0093
   91SAPS  C313 8925   5.853   3.091   7.895  0.0629 -1.1578  0.0315
   91SAPS  H13X 8926   5.906   3.016   7.832 -1.5603 -0.9233 -1.6816
   91SAPS  H13Y 8927   5.747   3.100   7.865 -0.5731  1.8213  2.6350
   91SAPS  C314 8928   5.855   3.060   8.046  0.0418  0.6007  0.3945
   91SAPS  H14X 8929   5.788   2.979   8.083  0.8291 -0.6316 -0.7764
   91SAPS  H14Y 8930   5.828   3.155   8.096 -0.5869  0.6988 -0.1158
   91SAPS  C315 8931   5.989   3.024   8.109  0.2199 -0.3558 -0.2867
   91SAPS  H15X 8932   5.998   3.065   8.212  0.9732  1.0553 -0.8934
   91SAPS  H15Y 8933   6.080   3.062   8.058 -0.5476  0.1578 -1.2932
   91SAPS  C316 8934   6.021   2.869   8.110 -0.3938  0.8403  0.0010
   91SAPS  H16X 8935   6.021   2.843   8.002 -1.4906 -1.5799  0.5042
   91SAPS  H16Y 8936   5.946   2.819   8.176 -0.9495 -0.3455 -1.4632
   91SAPS  C317 8937   6.165   2.839   8.175  0.3298  0.2864 -0.2923
   91SAPS  H17X 8938   6.165   2.865   8.283  2.4495 -0.7122 -0.0101
   91SAPS  H17Y 8939   6.240   2.913   8.142 -0.1595  0.2124 -1.6281
   91SAPS  C318 8940   6.208   2.694   8.154  0.2026 -0.1672 -0.4980
   91SAPS  H18X 8941   6.299   2.667   8.212 -0.9995 -0.3625  1.3772
   91SAPS  H18Y 8942   6.229   2.668   8.048 -1.2946  1.8623 -1.3494
   91SAPS  H18Z 8943   6.141   2.613   8.190  1.6786 -0.2897  2.2599
   92SAPS     N 8944   5.881   0.666   6.516 -0.4495  0.9509 -0.0888
   92SAPS   HN1 8945   5.939   0.744   6.479 -2.2855  1.9745 -0.9311
   92SAPS   HN2 8946   5.923   0.618   6.598 -0.3855  0.2905 -0.5012
   92SAPS   HN3 8947   5.889   0.594   6.441  3.1669  1.5367 -0.4824
   92SAPS   C12 8948   5.737   0.697   6.530  0.1410  0.2450  0.9639
   92SAPS  H12A 8949   5.742   0.801   6.500  0.3664 -0.6119 -2.2677
   92SAPS   C13 8950   5.639   0.612   6.447 -0.0243  0.3312 -0.1298
   92SAPS  O13A 8951   5.679   0.573   6.334 -0.2858 -0.5035 -0.1668
   92SAPS  O13B 8952   5.513   0.632   6.467  0.0951 -0.0629  0.2096
   92SAPS   C11 8953   5.709   0.694   6.685  0.4203  0.1558  0.1540
   92SAPS  H11A 8954   5.724   0.590   6.721 -0.8863 -0.5413 -1.1888
   92SAPS  H11B 8955   5.602   0.719   6.702 -0.1896 -2.3960  0.5527
   92SAPS     P 8956   5.726   0.916   6.812  0.1240 -0.0941 -0.2497
   92SAPS   O13 8957   5.840   0.986   6.877  0.0714 -0.1109  0.4563
   92SAPS   O14 8958   5.668   0.991   6.695  0.1383 -0.1674 -0.8237
   92SAPS   O12 8959   5.791   0.788   6.753 -0.2016  0.2966  0.5374
   92SAPS   O11 8960   5.619   0.857   6.910  0.6791 -0.1559 -0.7240
   92SAPS    C1 8961   5.632   0.728   6.975 -0.5517 -0.4849 -0.0105
   92SAPS    HA 8962   5.586   0.651   6.909  1.3373 -1.3082 -0.4331
   92SAPS    HB 8963   5.737   0.697   6.989 -0.5645 -0.3040  0.5141
   92SAPS    C2 8964   5.576   0.727   7.114  0.3851 -0.2230  0.6374
   92SAPS    HS 8965   5.487   0.792   7.100 -1.2427 -2.7497 -1.5796
   92SAPS   O21 8966   5.682   0.777   7.198  0.0831  0.0198 -0.4551
   92SAPS   C21 8967   5.647   0.875   7.285  0.5134  0.3647  0.0515
   92SAPS   O22 8968   5.529   0.905   7.301 -0.2868  0.5581 -0.2409
   92SAPS   C22 8969   5.761   0.949   7.337 -0.0851  0.3508  0.5019
   92SAPS   H2R 8970   5.854   0.930   7.280  0.2310  0.7180  0.8814
   92SAPS   H2S 8971   5.741   1.056   7.357  0.6470  0.5544  0.1666
   92SAPS    C3 8972   5.525   0.586   7.148  0.0621 -0.4176  0.3274
   92SAPS    HX 8973   5.622   0.534   7.160 -0.4521 -1.1543  1.4485
   92SAPS    HY 8974   5.467   0.541   7.065  0.9064  1.2666 -1.2381
   92SAPS   O31 8975   5.450   0.569   7.268 -0.1274  0.0844 -0.9208
   92SAPS   C31 8976   5.344   0.647   7.297  0.5655  0.2414  0.0094
   92SAPS   O32 8977   5.287   0.718   7.221  0.1372  0.0551  0.1037
   92SAPS   C32 8978   5.293   0.614   7.439  0.5497  0.1910  0.2885
   92SAPS   H2X 8979   5.365   0.546   7.489 -1.4757 -2.3425 -0.0428
   92SAPS   H2Y 8980   5.199   0.556   7.423  0.7201  0.4004 -1.7387
   92SAPS   C23 8981   5.784   0.900   7.486  0.7645 -0.0033  0.4973
   92SAPS   H3R 8982   5.800   0.790   7.487 -1.1271 -0.4222 -2.1206
   92SAPS   H3S 8983   5.691   0.925   7.543 -0.1767 -1.6550 -0.2391
   92SAPS   C24 8984   5.900   0.970   7.553 -0.3475 -0.2380 -0.4319
   92SAPS   H4R 8985   5.899   0.914   7.649  0.3830  0.1290 -0.1998
   92SAPS   H4S 8986   5.861   1.073   7.563 -1.0966 -0.0023 -4.2032
   92SAPS   C25 8987   6.037   0.984   7.486  0.3563  0.0401 -0.9171
   92SAPS   H5R 8988   6.030   1.011   7.380  0.8251 -0.2228 -1.0160
   92SAPS   C26 8989   6.154   0.972   7.551  0.5205 -0.0469 -0.9166
   92SAPS   H6R 8990   6.247   0.989   7.494  1.5270  1.7398  1.1079
   92SAPS   C27 8991   6.168   0.948   7.697  0.4737  0.7429 -0.5593
   92SAPS   H7R 8992   6.106   0.863   7.733  0.1738  1.1092 -0.2095
   92SAPS   H7S 8993   6.118   1.030   7.752  1.1706  0.4143  0.5864
   92SAPS   C28 8994   6.305   0.940   7.746 -0.1910 -0.2721  0.3179
   92SAPS   H8R 8995   6.383   0.979   7.679 -2.1463  1.6911 -0.9508
   92SAPS   C29 8996   6.349   0.891   7.864 -0.4958  0.5139  0.5302
   92SAPS   H9R 8997   6.458   0.896   7.878 -0.4689  2.1711 -0.0148
   92SAPS  C210 8998   6.280   0.824   7.972  0.0310  0.7492 -0.4684
   92SAPS  H10R 8999   6.171   0.821   7.954 -0.0811  0.5714  0.2061
   92SAPS  H10S 9000   6.291   0.870   8.073  1.2681  0.7477 -0.5876
   92SAPS  C211 9001   6.330   0.684   7.972 -0.3363 -1.1938  0.1959
   92SAPS  H11R 9002   6.302   0.620   7.887 -1.8727 -0.9558  0.4994
   92SAPS  C212 9003   6.402   0.635   8.070  0.0583  1.6938 -0.5511
   92SAPS  H12R 9004   6.438   0.532   8.056 -1.2639  1.3211 -1.4102
   92SAPS  C213 9005   6.449   0.702   8.201 -0.1490  0.7140  0.5853
   92SAPS  H13R 9006   6.438   0.812   8.193  4.1856  1.3183  0.6076
   92SAPS  H13S 9007   6.558   0.690   8.217 -0.1070  0.7525  0.3325
   92SAPS  C214 9008   6.392   0.646   8.326 -0.6280  0.2590 -0.0392
   92SAPS  H14R 9009   6.396   0.536   8.330 -1.8070  0.2167  0.5365
   92SAPS  C215 9010   6.343   0.712   8.433  0.4305 -0.2774  0.1729
   92SAPS  H15R 9011   6.304   0.655   8.519  2.9119 -0.0989  1.4846
   92SAPS  C216 9012   6.326   0.861   8.453  0.2339  0.1438  0.7245
   92SAPS  H16R 9013   6.349   0.913   8.358 -2.4707 -0.2676 -0.2645
   92SAPS  H16S 9014   6.391   0.898   8.535 -0.9942  0.8791  1.3962
   92SAPS  C217 9015   6.190   0.893   8.517  0.8068 -0.0152 -0.3917
   92SAPS  H17R 9016   6.159   0.832   8.604 -3.1217 -0.9132 -2.1637
   92SAPS  H17S 9017   6.110   0.870   8.443  0.8032 -0.5568 -0.2188
   92SAPS  C218 9018   6.160   1.036   8.551  1.0339 -0.4761 -0.5786
   92SAPS  H18R 9019   6.210   1.066   8.646 -1.1934  1.5896  0.0250
   92SAPS  H18S 9020   6.055   1.039   8.587  1.0829  0.5537 -0.5127
   92SAPS  C219 9021   6.183   1.142   8.444  0.2643  0.3342  0.1797
   92SAPS  H19R 9022   6.147   1.098   8.349  2.1361 -0.3970 -0.2380
   92SAPS  H19S 9023   6.293   1.159   8.447  0.6340 -1.4652 -1.3283
   92SAPS  C220 9024   6.121   1.275   8.468 -0.7822 -0.0545 -0.3315
   92SAPS  H20R 9025   6.120   1.305   8.575  0.3226 -2.0666  0.2975
   92SAPS  H20S 9026   6.013   1.261   8.444 -0.9187  0.6460 -0.1355
   92SAPS  H20T 9027   6.175   1.359   8.420  1.0951 -0.8202  0.3397
   92SAPS   C33 9028   5.258   0.741   7.515  0.4122 -0.2736  0.0891
   92SAPS   H3X 9029   5.181   0.804   7.465 -0.6728 -2.0921 -0.6158
   92SAPS   H3Y 9030   5.352   0.800   7.529 -0.1548  0.4984  0.7425
   92SAPS   C34 9031   5.212   0.720   7.654 -0.1063 -0.3527  0.2620
   92SAPS   H4X 9032   5.293   0.667   7.709  1.1898  3.5300  2.4832
   92SAPS   H4Y 9033   5.120   0.657   7.648  0.6078 -1.4776  0.7471
   92SAPS   C35 9034   5.181   0.844   7.736  0.9334 -0.5706  0.0177
   92SAPS   H5X 9035   5.124   0.915   7.673  0.0975  0.9466  2.3184
   92SAPS   H5Y 9036   5.275   0.901   7.752  1.6389 -1.3945 -1.0440
   92SAPS   C36 9037   5.118   0.811   7.879  0.0391 -0.1015  0.1006
   92SAPS   H6X 9038   5.194   0.741   7.920  1.5072  1.1964 -0.3100
   92SAPS   H6Y 9039   5.023   0.754   7.867  0.0431 -0.1948  0.4943
   92SAPS   C37 9040   5.095   0.937   7.969  0.2144  0.5941 -0.2478
   92SAPS   H7X 9041   5.019   1.006   7.927 -0.7153 -2.1001 -3.4203
   92SAPS   H7Y 9042   5.188   0.997   7.982 -0.2477  0.6896  4.3110
   92SAPS   C38 9043   5.050   0.901   8.113 -0.1873 -0.4451 -0.8998
   92SAPS   H8X 9044   4.950   0.853   8.121 -1.1820  1.6704  0.0919
   92SAPS   H8Y 9045   5.038   0.994   8.172  1.9091  0.1922 -1.3701
   92SAPS   C39 9046   5.143   0.807   8.196  0.1003  0.5258  0.1932
   92SAPS   H9X 9047   5.247   0.847   8.187  0.1478  0.2241 -0.7324
   92SAPS   H9Y 9048   5.146   0.703   8.156  2.0679  0.6218 -0.0359
   92SAPS  C310 9049   5.115   0.792   8.346  0.3487  0.0554 -0.0487
   92SAPS  H10X 9050   5.205   0.754   8.398  0.5352  0.7366  0.1368
   92SAPS  H10Y 9051   5.032   0.725   8.376  1.7912 -1.5707  0.4753
   92SAPS  C311 9052   5.088   0.925   8.429  1.1276 -0.2582  0.5474
   92SAPS  H11X 9053   5.080   0.899   8.537  1.5984  1.2134  0.9579
   92SAPS  H11Y 9054   4.990   0.960   8.391  0.9141 -1.0906  0.3043
   92SAPS  C312 9055   5.197   1.032   8.410 -0.5738 -0.1389 -0.1591
   92SAPS  H12X 9056   5.225   1.031   8.303  0.1941 -1.3783  0.0341
   92SAPS  H12Y 9057   5.275   0.990   8.477 -0.1817 -4.6362 -2.9860
   92SAPS  C313 9058   5.168   1.173   8.461  0.2441  0.5376 -0.1277
   92SAPS  H13X 9059   5.166   1.165   8.572 -0.6461  1.8731 -0.0293
   92SAPS  H13Y 9060   5.063   1.195   8.433 -1.0557 -0.4174  3.4403
   92SAPS  C314 9061   5.267   1.283   8.421  0.1966  0.9440  0.6997
   92SAPS  H14X 9062   5.226   1.381   8.388 -0.0667  0.7338  0.3984
   92SAPS  H14Y 9063   5.325   1.245   8.333  1.5117  1.8169  1.1550
   92SAPS  C315 9064   5.374   1.308   8.532 -0.0725  0.4062  0.1135
   92SAPS  H15X 9065   5.451   1.228   8.530  0.3082  0.7227  1.1531
   92SAPS  H15Y 9066   5.328   1.308   8.633 -2.5184 -0.1224 -0.9396
   92SAPS  C316 9067   5.450   1.441   8.498  0.3095  0.3571 -0.0844
   92SAPS  H16X 9068   5.394   1.528   8.540 -0.2833  0.1177 -0.3720
   92SAPS  H16Y 9069   5.461   1.451   8.388  0.0279  0.4711 -0.1050
   92SAPS  C317 9070   5.592   1.449   8.558  0.2745 -0.2562  0.2678
   92SAPS  H17X 9071   5.590   1.450   8.670  1.5192  2.1978  0.3542
   92SAPS  H17Y 9072   5.637   1.547   8.531 -0.1525 -0.3638 -0.8811
   92SAPS  C318 9073   5.686   1.340   8.515  0.2267  0.2727 -0.3479
   92SAPS  H18X 9074   5.670   1.249   8.577 -0.6146 -0.5678 -1.7496
   92SAPS  H18Y 9075   5.790   1.378   8.521  0.1283  0.8248 -1.7666
   92SAPS  H18Z 9076   5.664   1.314   8.409 -1.2806  1.5489 -0.3726
   93SAPS     N 9077   6.391   0.663   6.412  0.0330 -0.3123 -0.6908
   93SAPS   HN1 9078   6.368   0.703   6.319  2.5732  0.6393 -0.9846
   93SAPS   HN2 9079   6.324   0.690   6.487  1.2342 -2.3606  1.2619
   93SAPS   HN3 9080   6.474   0.718   6.441 -0.1917 -0.4231  0.1940
   93SAPS   C12 9081   6.416   0.513   6.421 -0.1999 -0.0522 -0.2152
   93SAPS  H12A 9082   6.330   0.469   6.373 -0.5865 -1.2526  1.4808
   93SAPS   C13 9083   6.537   0.453   6.345  0.7215  0.8633 -0.0270
   93SAPS  O13A 9084   6.612   0.535   6.280  0.3345 -0.2585  0.4838
   93SAPS  O13B 9085   6.561   0.330   6.355 -0.4760 -0.0310  0.1408
   93SAPS   C11 9086   6.418   0.474   6.569  0.2041  0.4459  0.1949
   93SAPS  H11A 9087   6.503   0.520   6.624  0.4150  0.7699 -0.3954
   93SAPS  H11B 9088   6.431   0.366   6.592 -0.8522  0.5239  1.2298
   93SAPS     P 9089   6.175   0.433   6.650  0.0953 -0.2029  0.0074
   93SAPS   O13 9090   6.056   0.521   6.684 -0.0115  0.0644 -0.2865
   93SAPS   O14 9091   6.171   0.338   6.534 -0.0149 -0.2070 -0.0531
   93SAPS   O12 9092   6.302   0.521   6.640 -0.0544 -0.3818 -0.0163
   93SAPS   O11 9093   6.196   0.360   6.785 -0.3867  0.0234 -0.8972
   93SAPS    C1 9094   6.323   0.383   6.857 -0.2977  0.6077 -0.4419
   93SAPS    HA 9095   6.403   0.324   6.808 -0.3955  0.1781 -0.0970
   93SAPS    HB 9096   6.351   0.490   6.869  0.7564  0.2292  0.7461
   93SAPS    C2 9097   6.297   0.336   7.003  0.0762  0.6176  0.2865
   93SAPS    HS 9098   6.228   0.249   7.002 -1.4772  1.8224  0.1394
   93SAPS   O21 9099   6.234   0.441   7.087 -0.9550 -0.3104  0.2336
   93SAPS   C21 9100   6.109   0.448   7.091  0.9677 -0.0157  0.4096
   93SAPS   O22 9101   6.025   0.372   7.043  0.1506  0.4939 -0.4393
   93SAPS   C22 9102   6.062   0.582   7.150 -0.0048  0.1962 -0.7701
   93SAPS   H2R 9103   6.143   0.620   7.216 -0.2609  0.9185 -0.8649
   93SAPS   H2S 9104   6.047   0.654   7.067 -0.0246 -1.3209 -2.1373
   93SAPS    C3 9105   6.430   0.293   7.063 -0.0543  0.6335 -0.0326
   93SAPS    HX 9106   6.501   0.378   7.061 -0.9996  1.4571  0.6612
   93SAPS    HY 9107   6.481   0.217   6.999  0.2458 -0.0685  1.0119
   93SAPS   O31 9108   6.428   0.243   7.197 -0.2087  0.5353  0.0469
   93SAPS   C31 9109   6.404   0.111   7.210 -0.6848 -0.6814 -0.1916
   93SAPS   O32 9110   6.378   0.031   7.122  0.1142  0.1544 -0.5572
   93SAPS   C32 9111   6.413   0.089   7.357  0.4732 -0.3539  0.0283
   93SAPS   H2X 9112   6.317   0.129   7.394  1.0717  0.6351  0.5496
   93SAPS   H2Y 9113   6.492   0.155   7.400  2.0487 -0.1337 -2.9473
   93SAPS   C23 9114   5.924   0.570   7.222  0.7868  0.4412 -0.2722
   93SAPS   H3R 9115   5.846   0.521   7.159 -2.1103  2.2400  1.6575
   93SAPS   H3S 9116   5.885   0.672   7.243  0.3280  0.2311 -0.0906
   93SAPS   C24 9117   5.935   0.508   7.365 -0.2129  0.7237 -0.1834
   93SAPS   H4R 9118   5.967   0.402   7.354 -0.1736  0.3356  2.9261
   93SAPS   H4S 9119   5.837   0.501   7.418  0.3252 -1.9757  0.6099
   93SAPS   C25 9120   6.034   0.571   7.466 -0.1993 -0.0923  0.1776
   93SAPS   H5R 9121   6.005   0.674   7.493  0.0799 -0.3529  1.4958
   93SAPS   C26 9122   6.145   0.521   7.524  0.2022  0.6307  0.7908
   93SAPS   H6R 9123   6.205   0.588   7.586 -1.4813  2.0780  0.9450
   93SAPS   C27 9124   6.209   0.383   7.512 -0.0926 -0.0883 -0.6113
   93SAPS   H7R 9125   6.314   0.398   7.479 -0.2853 -1.2420 -1.8709
   93SAPS   H7S 9126   6.156   0.329   7.431 -1.3053 -1.1766  0.8518
   93SAPS   C28 9127   6.189   0.309   7.643 -0.1667  0.2587 -0.5810
   93SAPS   H8R 9128   6.081   0.307   7.661 -0.0217  0.6994  0.3566
   93SAPS   C29 9129   6.284   0.256   7.721 -1.1426 -0.5316 -0.0341
   93SAPS   H9R 9130   6.261   0.203   7.814  1.2590 -1.8745 -0.1400
   93SAPS  C210 9131   6.437   0.260   7.690  0.1552  0.4774 -0.2855
   93SAPS  H10R 9132   6.469   0.322   7.603 -0.4148  0.5732 -0.4313
   93SAPS  H10S 9133   6.468   0.156   7.665  2.4511  1.3080 -1.1695
   93SAPS  C211 9134   6.510   0.303   7.812  0.2707 -0.6479  0.0214
   93SAPS  H11R 9135   6.534   0.410   7.813  1.1053 -0.6366 -4.4325
   93SAPS  C212 9136   6.547   0.227   7.916  0.0241  0.5099  0.1594
   93SAPS  H12R 9137   6.589   0.256   8.014  0.2497  1.4751 -0.2169
   93SAPS  C213 9138   6.530   0.074   7.930  0.4928  0.0448 -0.2764
   93SAPS  H13R 9139   6.459   0.031   7.857 -1.1764  1.0164  0.7249
   93SAPS  H13S 9140   6.500   0.057   8.035 -1.1770  0.0310 -0.7340
   93SAPS  C214 9141   6.663   0.011   7.897 -1.3674 -0.0452 -0.0573
   93SAPS  H14R 9142   6.686   0.044   7.795 -0.6667  1.4478  0.5569
   93SAPS  C215 9143   6.751  -0.060   7.970 -0.1256 -0.1989 -0.1941
   93SAPS  H15R 9144   6.850  -0.084   7.929  0.0290 -3.3299  1.6434
   93SAPS  C216 9145   6.733  -0.096   8.114 -0.2037  0.2250  0.1474
   93SAPS  H16R 9146   6.749  -0.206   8.124  0.5704  0.3231  0.0928
   93SAPS  H16S 9147   6.635  -0.066   8.156 -0.0225 -0.0726  0.7967
   93SAPS  C217 9148   6.829  -0.015   8.205 -0.1929 -0.0100  0.0831
   93SAPS  H17R 9149   6.935  -0.017   8.173 -0.0656 -1.9216  0.5157
   93SAPS  H17S 9150   6.813  -0.061   8.305 -3.2464 -2.5674 -1.3814
   93SAPS  C218 9151   6.778   0.131   8.226 -0.8295 -0.3420 -0.2861
   93SAPS  H18R 9152   6.679   0.128   8.276 -1.2479  0.7926 -1.0018
   93SAPS  H18S 9153   6.756   0.168   8.124 -1.2327  0.9031  0.2294
   93SAPS  C219 9154   6.880   0.225   8.303  0.2627  0.1521  0.0344
   93SAPS  H19R 9155   6.982   0.184   8.290  1.1326  2.3762 -0.7103
   93SAPS  H19S 9156   6.860   0.217   8.412 -1.9662 -1.1031 -0.4089
   93SAPS  C220 9157   6.861   0.372   8.268  0.6515 -0.1485 -0.5379
   93SAPS  H20R 9158   6.762   0.402   8.309  0.5193 -1.3671  0.0898
   93SAPS  H20S 9159   6.865   0.395   8.160 -2.4578 -1.0321 -0.9380
   93SAPS  H20T 9160   6.944   0.427   8.318  2.0456 -0.7953 -2.0270
   93SAPS   C33 9161   6.436  -0.051   7.414  0.5328 -0.6857  0.3858
   93SAPS   H3X 9162   6.382  -0.135   7.367 -0.2492 -0.2348  0.4659
   93SAPS   H3Y 9163   6.375  -0.050   7.507 -0.5034  2.6388 -0.1982
   93SAPS   C34 9164   6.583  -0.074   7.443 -0.1537 -0.2604 -0.0394
   93SAPS   H4X 9165   6.640   0.008   7.492 -0.7575  1.6530 -2.3668
   93SAPS   H4Y 9166   6.622  -0.070   7.339  0.9436 -0.6594  0.3423
   93SAPS   C35 9167   6.617  -0.215   7.484  0.5037  0.0176 -0.2027
   93SAPS   H5X 9168   6.561  -0.290   7.424 -2.6389  1.0327  1.1885
   93SAPS   H5Y 9169   6.577  -0.228   7.587 -1.1072 -2.6781 -1.0722
   93SAPS   C36 9170   6.765  -0.243   7.468  0.1563  0.2432  0.0070
   93SAPS   H6X 9171   6.804  -0.158   7.408  1.6095 -0.5626 -0.2162
   93SAPS   H6Y 9172   6.780  -0.337   7.412 -1.4291  0.1071 -0.2511
   93SAPS   C37 9173   6.839  -0.267   7.610 -0.0665  0.2838  0.5601
   93SAPS   H7X 9174   6.833  -0.172   7.666  1.7298  2.5846 -2.7675
   93SAPS   H7Y 9175   6.946  -0.283   7.584 -0.0602  1.3638 -0.1173
   93SAPS   C38 9176   6.775  -0.388   7.687  0.2656  0.3681 -0.2780
   93SAPS   H8X 9177   6.778  -0.480   7.624 -0.6704  0.4775 -0.4985
   93SAPS   H8Y 9178   6.667  -0.369   7.703  0.0302 -1.2372  0.2764
   93SAPS   C39 9179   6.850  -0.421   7.816 -0.2113 -0.1302 -0.4136
   93SAPS   H9X 9180   6.852  -0.334   7.885 -2.3797 -0.1440 -0.2637
   93SAPS   H9Y 9181   6.959  -0.440   7.800  0.2931  1.2400  1.0961
   93SAPS  C310 9182   6.790  -0.542   7.890 -0.7808  0.1156  0.1192
   93SAPS  H10X 9183   6.806  -0.631   7.825 -0.7482 -0.7790  1.3034
   93SAPS  H10Y 9184   6.680  -0.530   7.900 -1.0160 -2.2336  1.0115
   93SAPS  C311 9185   6.858  -0.578   8.025  0.4298  0.0223 -0.0504
   93SAPS  H11X 9186   6.969  -0.573   8.017  0.5869 -0.0492  1.5974
   93SAPS  H11Y 9187   6.830  -0.683   8.051  0.3237 -0.8063 -3.1280
   93SAPS  C312 9188   6.814  -0.486   8.137  0.3992  0.3038  0.1774
   93SAPS  H12X 9189   6.709  -0.504   8.168 -0.0836  0.1978 -1.4259
   93SAPS  H12Y 9190   6.815  -0.384   8.094  1.5307 -0.3893 -1.5668
   93SAPS  C313 9191   6.909  -0.494   8.264  0.5376 -0.1884 -0.4453
   93SAPS  H13X 9192   6.994  -0.427   8.241  0.7687 -0.2627  0.1776
   93SAPS  H13Y 9193   6.936  -0.602   8.265  0.8781 -0.1056  0.6658
   93SAPS  C314 9194   6.842  -0.466   8.397  0.0725 -0.3725 -0.1159
   93SAPS  H14X 9195   6.905  -0.504   8.480 -0.4028 -1.1782 -0.1048
   93SAPS  H14Y 9196   6.745  -0.518   8.414  0.1845 -0.4059  0.4252
   93SAPS  C315 9197   6.811  -0.316   8.402 -0.1918 -0.3738 -0.4471
   93SAPS  H15X 9198   6.736  -0.298   8.322 -1.5942 -0.7388  0.7462
   93SAPS  H15Y 9199   6.897  -0.250   8.379 -1.2701  0.4623 -2.2745
   93SAPS  C316 9200   6.757  -0.270   8.542 -0.7943 -0.5477 -0.2531
   93SAPS  H16X 9201   6.670  -0.336   8.566 -0.7565 -0.7564 -0.6804
   93SAPS  H16Y 9202   6.726  -0.163   8.534  1.2836  0.0306 -1.3141
   93SAPS  C317 9203   6.860  -0.271   8.659 -0.0145 -0.1262 -0.0390
   93SAPS  H17X 9204   6.956  -0.218   8.643 -0.8590  1.6990  0.6938
   93SAPS  H17Y 9205   6.880  -0.380   8.672 -0.6267 -0.1671  0.6193
   93SAPS  C318 9206   6.794  -0.234   8.794  0.6012  0.3691  0.6040
   93SAPS  H18X 9207   6.874  -0.229   8.870  1.7791 -2.2675 -0.3375
   93SAPS  H18Y 9208   6.712  -0.307   8.809 -1.2982  1.6794 -2.3798
   93SAPS  H18Z 9209   6.733  -0.142   8.785 -0.7830 -0.3765  1.9528
   94SAPS     N 9210   6.196   3.120   6.230  0.3536 -0.1261  1.2659
   94SAPS   HN1 9211   6.237   3.168   6.312  2.7598 -1.9933  1.2769
   94SAPS   HN2 9212   6.096   3.113   6.258  0.9775  1.8856  4.5204
   94SAPS   HN3 9213   6.253   3.033   6.226 -1.3772 -1.3257  1.3926
   94SAPS   C12 9214   6.232   3.200   6.100 -0.7344  0.2251 -0.7877
   94SAPS  H12A 9215   6.337   3.218   6.118 -0.3538 -0.4727 -2.1823
   94SAPS   C13 9216   6.214   3.131   5.967  0.1332  0.1986 -0.2114
   94SAPS  O13A 9217   6.179   3.012   5.961 -0.3943 -0.6471  0.3048
   94SAPS  O13B 9218   6.231   3.195   5.860 -0.4443  0.4224 -0.1922
   94SAPS   C11 9219   6.170   3.344   6.107  0.1927 -0.0006  0.4158
   94SAPS  H11A 9220   6.061   3.327   6.096  0.5838 -2.1417 -0.7637
   94SAPS  H11B 9221   6.199   3.398   6.014 -0.6316  0.2186  0.2750
   94SAPS     P 9222   6.249   3.556   6.235  0.1301 -0.0081  0.1602
   94SAPS   O13 9223   6.395   3.554   6.249  0.2450 -0.1927  0.1470
   94SAPS   O14 9224   6.202   3.636   6.117  0.5986  0.2290  0.0775
   94SAPS   O12 9225   6.194   3.411   6.233 -0.4234  0.8207 -0.9394
   94SAPS   O11 9226   6.183   3.608   6.366  0.2506 -0.3935  0.2337
   94SAPS    C1 9227   6.197   3.531   6.483 -0.3990  0.4705  0.2850
   94SAPS    HA 9228   6.117   3.574   6.547 -0.7539 -0.3733  0.4233
   94SAPS    HB 9229   6.159   3.428   6.462 -0.7465  0.9453 -1.5322
   94SAPS    C2 9230   6.326   3.550   6.573  0.3087  0.6015  0.3785
   94SAPS    HS 9231   6.413   3.502   6.524  1.9662  3.6160  0.1805
   94SAPS   O21 9232   6.300   3.500   6.707 -0.1249 -0.4491 -0.2846
   94SAPS   C21 9233   6.402   3.477   6.789 -0.1591  0.4447  0.5724
   94SAPS   O22 9234   6.520   3.488   6.755  0.0342  0.1735  0.0303
   94SAPS   C22 9235   6.359   3.423   6.927  0.3638 -0.3713  0.4410
   94SAPS   H2R 9236   6.259   3.464   6.953  1.1105  2.2104 -0.4674
   94SAPS   H2S 9237   6.339   3.315   6.910 -1.5454 -0.0581  0.5147
   94SAPS    C3 9238   6.370   3.703   6.578 -0.6963 -0.1799  0.1801
   94SAPS    HX 9239   6.381   3.728   6.471  0.7432 -0.8543  0.1475
   94SAPS    HY 9240   6.467   3.725   6.628 -2.4333  2.6706  2.7317
   94SAPS   O31 9241   6.268   3.796   6.624  0.0436 -0.2648  0.3425
   94SAPS   C31 9242   6.292   3.840   6.745 -0.5684  0.2656 -0.0672
   94SAPS   O32 9243   6.391   3.816   6.809  0.1709  0.5218 -0.0259
   94SAPS   C32 9244   6.184   3.950   6.775  0.2600 -0.2961  0.1634
   94SAPS   H2X 9245   6.090   3.912   6.729 -0.0732 -0.8667  1.2908
   94SAPS   H2Y 9246   6.227   4.044   6.735  0.4234 -0.5622 -0.2870
   94SAPS   C23 9247   6.456   3.436   7.043 -0.3220  0.1194  0.3923
   94SAPS   H3R 9248   6.545   3.371   7.030  0.2397  0.6626  1.3607
   94SAPS   H3S 9249   6.406   3.395   7.133  1.4719 -0.6834  1.0735
   94SAPS   C24 9250   6.491   3.583   7.066 -0.4433  0.1610 -0.3035
   94SAPS   H4R 9251   6.398   3.643   7.063  0.0330  0.8862 -1.2602
   94SAPS   H4S 9252   6.544   3.623   6.976 -3.0051  1.2202 -1.4447
   94SAPS   C25 9253   6.583   3.612   7.182 -0.0019 -0.1748 -0.1922
   94SAPS   H5R 9254   6.685   3.629   7.144 -0.3746 -0.9461 -1.5885
   94SAPS   C26 9255   6.551   3.616   7.309  0.0237 -0.5687  0.5063
   94SAPS   H6R 9256   6.627   3.639   7.386  0.5564 -2.0449  0.4423
   94SAPS   C27 9257   6.408   3.606   7.363 -0.2248 -0.0009 -0.0755
   94SAPS   H7R 9258   6.333   3.627   7.284 -0.8893  0.5757  0.6882
   94SAPS   H7S 9259   6.394   3.687   7.437  0.2280 -0.5574  0.6310
   94SAPS   C28 9260   6.369   3.478   7.429  1.4760  0.6376 -0.1394
   94SAPS   H8R 9261   6.362   3.399   7.353 -0.1219  1.1921 -0.6106
   94SAPS   C29 9262   6.345   3.466   7.565  0.1161 -0.3758  1.0529
   94SAPS   H9R 9263   6.315   3.366   7.599 -3.4454 -0.6031 -2.0301
   94SAPS  C210 9264   6.343   3.580   7.663 -0.0761 -0.1518  0.3241
   94SAPS  H10R 9265   6.257   3.553   7.728 -0.9566  1.1945 -0.2249
   94SAPS  H10S 9266   6.316   3.676   7.613  3.4830  1.1896  0.6747
   94SAPS  C211 9267   6.481   3.597   7.732 -0.5208 -0.2343 -0.1496
   94SAPS  H11R 9268   6.548   3.648   7.661 -1.0704 -0.4496 -0.8273
   94SAPS  C212 9269   6.524   3.544   7.849  0.1292 -0.3306 -1.0895
   94SAPS  H12R 9270   6.623   3.576   7.885 -1.2752  3.7447 -0.3202
   94SAPS  C213 9271   6.444   3.453   7.929  0.4737 -0.2894 -0.5235
   94SAPS  H13R 9272   6.347   3.418   7.887  0.4828 -0.5023 -0.3738
   94SAPS  H13S 9273   6.422   3.501   8.027  1.3595  1.8198 -1.3023
   94SAPS  C214 9274   6.516   3.319   7.942  0.2215 -0.1177  1.1455
   94SAPS  H14R 9275   6.516   3.281   7.839 -2.4013 -0.0097  1.0181
   94SAPS  C215 9276   6.562   3.258   8.051 -0.1629  0.5260 -0.4444
   94SAPS  H15R 9277   6.634   3.175   8.043  0.7973  0.8316  3.1597
   94SAPS  C216 9278   6.547   3.312   8.191  0.0363 -0.1857  0.1766
   94SAPS  H16R 9279   6.510   3.417   8.190 -0.4154 -0.3497 -0.1239
   94SAPS  H16S 9280   6.650   3.316   8.234  0.4725  0.7071 -0.8948
   94SAPS  C217 9281   6.456   3.235   8.293 -0.9281 -0.0470  1.3489
   94SAPS  H17R 9282   6.456   3.277   8.396  0.6023 -1.6266  2.0450
   94SAPS  H17S 9283   6.493   3.131   8.303  0.2265  0.3745  1.6052
   94SAPS  C218 9284   6.303   3.231   8.254  0.5962  0.1709 -0.1931
   94SAPS  H18R 9285   6.255   3.142   8.301  1.9513 -2.4279 -3.3391
   94SAPS  H18S 9286   6.292   3.215   8.145  0.8308 -0.3650 -0.1446
   94SAPS  C219 9287   6.229   3.362   8.284  0.2344 -0.3587 -0.0207
   94SAPS  H19R 9288   6.278   3.445   8.229 -0.4916  0.7853  0.9871
   94SAPS  H19S 9289   6.252   3.392   8.389 -1.0390 -0.3092  0.2565
   94SAPS  C220 9290   6.075   3.367   8.264  0.1956  0.2356  0.9336
   94SAPS  H20R 9291   6.020   3.306   8.339 -1.7869  2.0240  1.0410
   94SAPS  H20S 9292   6.054   3.332   8.161  0.2038  1.9459  0.3249
   94SAPS  H20T 9293   6.023   3.465   8.265 -0.7992 -0.2681  0.2307
   94SAPS   C33 9294   6.145   3.963   6.924 -0.0735  0.7483  0.1963
   94SAPS   H3X 9295   6.124   3.864   6.968  0.5086  0.5739  0.0825
   94SAPS   H3Y 9296   6.056   4.027   6.945  0.7440  2.0535 -0.1455
   94SAPS   C34 9297   6.265   4.018   7.002 -0.3833  0.0247 -0.3297
   94SAPS   H4X 9298   6.308   4.108   6.953  0.0103  0.7425  1.2516
   94SAPS   H4Y 9299   6.352   3.950   7.015  0.1173  0.8910  1.1743
   94SAPS   C35 9300   6.220   4.070   7.146 -0.6818 -0.1268  0.1922
   94SAPS   H5X 9301   6.169   3.985   7.196  0.8495 -0.8418  0.6195
   94SAPS   H5Y 9302   6.156   4.160   7.134 -0.4040  0.0070 -0.3250
   94SAPS   C36 9303   6.342   4.099   7.229  1.0110  0.0647 -0.4213
   94SAPS   H6X 9304   6.400   4.167   7.162 -1.5428  3.2192  0.3433
   94SAPS   H6Y 9305   6.404   4.011   7.257  0.6246  0.2913  1.2941
   94SAPS   C37 9306   6.310   4.184   7.355 -0.4757 -0.0741 -0.2641
   94SAPS   H7X 9307   6.239   4.266   7.331  0.9237  1.6735  1.2742
   94SAPS   H7Y 9308   6.397   4.248   7.379  0.4696 -0.9222 -1.3803
   94SAPS   C38 9309   6.296   4.098   7.487 -0.0224 -0.2279  0.7098
   94SAPS   H8X 9310   6.400   4.076   7.518  0.0718 -1.5572 -0.4275
   94SAPS   H8Y 9311   6.273   3.994   7.455 -0.8919  0.9796 -3.1289
   94SAPS   C39 9312   6.203   4.159   7.590  0.0910 -0.9778  0.3984
   94SAPS   H9X 9313   6.097   4.151   7.559 -0.4898  1.3269  1.5056
   94SAPS   H9Y 9314   6.228   4.268   7.597 -1.0772 -0.5512 -1.5063
   94SAPS  C310 9315   6.248   4.102   7.729 -0.3725  0.1283 -0.1189
   94SAPS  H10X 9316   6.353   4.132   7.750  0.0754 -1.9120  0.8464
   94SAPS  H10Y 9317   6.261   3.992   7.733  1.6926  0.3397 -0.0549
   94SAPS  C311 9318   6.156   4.156   7.836  0.2068 -0.0013  0.1717
   94SAPS  H11X 9319   6.060   4.099   7.840  0.2152  0.0413  1.3292
   94SAPS  H11Y 9320   6.142   4.264   7.815  0.5970  0.2566  1.1786
   94SAPS  C312 9321   6.226   4.146   7.972  0.6789  1.2519  0.3725
   94SAPS  H12X 9322   6.312   4.216   7.976 -0.2438  2.4131  0.5652
   94SAPS  H12Y 9323   6.259   4.041   7.984 -1.4491  0.5196  0.2272
   94SAPS  C313 9324   6.136   4.173   8.095  0.0839 -0.5523  0.0364
   94SAPS  H13X 9325   6.043   4.114   8.107 -0.2110 -0.3048 -0.9111
   94SAPS  H13Y 9326   6.101   4.277   8.075 -3.3383 -1.7196 -0.7042
   94SAPS  C314 9327   6.216   4.165   8.228 -0.0182  0.0265 -0.0366
   94SAPS  H14X 9328   6.306   4.226   8.208  1.4587 -1.7528  0.8800
   94SAPS  H14Y 9329   6.243   4.059   8.249 -2.1793 -0.9039 -1.5053
   94SAPS  C315 9330   6.148   4.229   8.355  0.4666 -0.5041 -0.3145
   94SAPS  H15X 9331   6.153   4.340   8.359  1.2143 -0.4906 -1.2502
   94SAPS  H15Y 9332   6.208   4.194   8.442  1.2193  1.0450 -0.1630
   94SAPS  C316 9333   6.004   4.183   8.379  0.7552 -0.5885  0.5052
   94SAPS  H16X 9334   5.983   4.075   8.373 -1.1358 -0.2186 -0.2594
   94SAPS  H16Y 9335   5.942   4.223   8.295  1.1343  0.3276  0.6446
   94SAPS  C317 9336   5.940   4.240   8.506  0.0354 -0.4868 -0.0760
   94SAPS  H17X 9337   5.965   4.169   8.588  1.0354 -1.7526 -1.4391
   94SAPS  H17Y 9338   5.829   4.238   8.494 -0.2326  0.2456  1.8291
   94SAPS  C318 9339   5.967   4.395   8.537 -0.2575  0.1309 -0.2615
   94SAPS  H18X 9340   5.971   4.459   8.446  1.6524  0.4498  0.0050
   94SAPS  H18Y 9341   6.074   4.411   8.562 -0.1047 -0.6124 -0.4280
   94SAPS  H18Z 9342   5.899   4.439   8.612 -0.2405 -0.2296 -0.0369
   95SAPS     N 9343   2.969   0.617   6.664 -0.7571  0.3691  0.3432
   95SAPS   HN1 9344   3.048   0.637   6.729 -0.0130  1.2008 -0.7671
   95SAPS   HN2 9345   2.893   0.687   6.678  0.2866  1.8334 -0.8847
   95SAPS   HN3 9346   2.938   0.520   6.685  0.2500  0.3835  2.0839
   95SAPS   C12 9347   3.015   0.625   6.516 -0.3540 -0.4540 -0.1700
   95SAPS  H12A 9348   3.073   0.714   6.500 -0.6684  0.2694  2.3040
   95SAPS   C13 9349   3.109   0.505   6.475  0.4570 -0.3997  0.2352
   95SAPS  O13A 9350   3.127   0.424   6.570 -0.2665  0.7156  0.2481
   95SAPS  O13B 9351   3.168   0.501   6.363  0.3394  0.2536 -0.8131
   95SAPS   C11 9352   2.899   0.622   6.421 -0.2697 -0.1059 -0.2244
   95SAPS  H11A 9353   2.842   0.533   6.456  1.8696 -0.3684  2.9960
   95SAPS  H11B 9354   2.934   0.602   6.317  0.7912  0.0974  0.0812
   95SAPS     P 9355   2.795   0.848   6.341  0.2247  0.4362 -0.5051
   95SAPS   O13 9356   2.931   0.878   6.294  0.0963 -0.4883 -0.5805
   95SAPS   O14 9357   2.696   0.836   6.234  0.5701 -0.3082 -0.0458
   95SAPS   O12 9358   2.805   0.723   6.433  0.3969 -0.2245  0.4297
   95SAPS   O11 9359   2.748   0.953   6.445 -0.0213  0.1290 -0.2761
   95SAPS    C1 9360   2.841   1.043   6.498  0.5071 -0.6132  0.4991
   95SAPS    HA 9361   2.940   0.998   6.517  1.2216 -0.0244 -1.5933
   95SAPS    HB 9362   2.853   1.122   6.420  1.6197 -2.2497 -1.0820
   95SAPS    C2 9363   2.789   1.108   6.627  0.8057  0.3365  0.0621
   95SAPS    HS 9364   2.773   1.022   6.695 -1.9475  1.6253  1.2396
   95SAPS   O21 9365   2.666   1.183   6.591  0.0456  0.4217 -0.0329
   95SAPS   C21 9366   2.576   1.190   6.685  0.0010  0.1058 -0.7236
   95SAPS   O22 9367   2.588   1.148   6.801 -0.1579 -0.1722 -0.4250
   95SAPS   C22 9368   2.453   1.255   6.642 -0.6324 -1.3967 -0.3405
   95SAPS   H2R 9369   2.446   1.359   6.681  3.2346 -1.4701  0.9662
   95SAPS   H2S 9370   2.453   1.266   6.531  1.7668 -0.5825 -0.3049
   95SAPS    C3 9371   2.898   1.207   6.685  0.3108  0.6700 -0.0952
   95SAPS    HX 9372   2.919   1.282   6.606 -1.2757 -0.7175 -1.8988
   95SAPS    HY 9373   2.993   1.149   6.695  0.8331  1.6689  1.0282
   95SAPS   O31 9374   2.850   1.272   6.804 -0.5922  0.7917  0.1417
   95SAPS   C31 9375   2.871   1.200   6.917 -1.0468 -0.8767  0.2156
   95SAPS   O32 9376   2.926   1.094   6.919  0.0878 -0.0027  0.4759
   95SAPS   C32 9377   2.835   1.287   7.038  0.3473  0.2249  0.6624
   95SAPS   H2X 9378   2.725   1.282   7.049  0.5412 -2.5810  2.2112
   95SAPS   H2Y 9379   2.858   1.391   7.005 -0.5355  0.6523  1.3361
   95SAPS   C23 9380   2.332   1.163   6.683 -0.7264  0.1135 -0.4646
   95SAPS   H3R 9381   2.316   1.150   6.792  0.5436  0.5272 -0.2083
   95SAPS   H3S 9382   2.352   1.062   6.643 -0.0379 -0.4678  1.2836
   95SAPS   C24 9383   2.212   1.225   6.625  0.6812 -0.3389 -0.4709
   95SAPS   H4R 9384   2.225   1.239   6.516 -2.5568 -1.8816 -1.1829
   95SAPS   H4S 9385   2.202   1.330   6.659 -0.7499 -1.2594  2.2500
   95SAPS   C25 9386   2.084   1.144   6.659 -0.5422  0.2568 -0.2500
   95SAPS   H5R 9387   2.084   1.061   6.587  3.7598  0.9812 -1.4144
   95SAPS   C26 9388   1.993   1.160   6.751 -0.0751  0.3638 -0.5087
   95SAPS   H6R 9389   1.923   1.079   6.774 -2.5090  2.7167  0.8631
   95SAPS   C27 9390   2.005   1.251   6.867 -0.5562 -0.4566 -0.4652
   95SAPS   H7R 9391   2.111   1.258   6.900 -1.0152 -1.3146  1.3551
   95SAPS   H7S 9392   1.946   1.215   6.955 -1.8676  0.4403 -0.9453
   95SAPS   C28 9393   1.955   1.393   6.828  0.6218 -0.0900 -0.1691
   95SAPS   H8R 9394   2.000   1.430   6.735  1.8755  1.0824  0.8596
   95SAPS   C29 9395   1.848   1.456   6.885 -0.6632  0.0643 -0.0771
   95SAPS   H9R 9396   1.820   1.550   6.834  0.4770  0.4908  0.0540
   95SAPS  C210 9397   1.758   1.412   6.994 -0.0470  0.6802 -0.7751
   95SAPS  H10R 9398   1.808   1.437   7.090  0.4249  3.7825 -1.7135
   95SAPS  H10S 9399   1.746   1.302   6.990 -0.9880  0.8155 -2.5856
   95SAPS  C211 9400   1.632   1.490   6.997  0.1514  0.4075  1.1047
   95SAPS  H11R 9401   1.628   1.583   6.938  2.8339 -0.6877 -0.9671
   95SAPS  C212 9402   1.528   1.466   7.073  0.6549 -0.0581  0.2202
   95SAPS  H12R 9403   1.433   1.520   7.055  0.6149 -0.7405 -1.9139
   95SAPS  C213 9404   1.515   1.346   7.164  0.4611 -0.0437 -0.0923
   95SAPS  H13R 9405   1.528   1.388   7.266  0.5632  2.8864 -1.2247
   95SAPS  H13S 9406   1.589   1.265   7.148 -0.9652 -1.2489 -0.7930
   95SAPS  C214 9407   1.375   1.288   7.142 -0.1268 -0.5730 -0.8198
   95SAPS  H14R 9408   1.350   1.263   7.038 -0.2497  0.7074 -1.1161
   95SAPS  C215 9409   1.274   1.244   7.227  0.2648  0.2622  1.3104
   95SAPS  H15R 9410   1.176   1.218   7.184  1.2960 -0.3360 -0.8062
   95SAPS  C216 9411   1.291   1.253   7.377  0.3900 -0.7597  0.5970
   95SAPS  H16R 9412   1.199   1.293   7.425  0.5260 -1.1781  1.2103
   95SAPS  H16S 9413   1.382   1.312   7.398  1.6884 -1.5246 -2.3428
   95SAPS  C217 9414   1.314   1.114   7.430  0.0088 -0.3247 -0.6342
   95SAPS  H17R 9415   1.367   1.049   7.356 -1.1623 -0.4912 -1.3577
   95SAPS  H17S 9416   1.211   1.072   7.435 -1.2054  2.3172 -1.6513
   95SAPS  C218 9417   1.390   1.107   7.565 -0.3721  0.3346  0.2973
   95SAPS  H18R 9418   1.485   1.164   7.565  0.3665 -0.8448  1.5679
   95SAPS  H18S 9419   1.415   1.000   7.585 -0.2271  0.2658 -0.2402
   95SAPS  C219 9420   1.305   1.155   7.675 -0.0291  0.1340 -0.0099
   95SAPS  H19R 9421   1.205   1.106   7.676 -0.4735  0.9999  1.3392
   95SAPS  H19S 9422   1.278   1.259   7.646  0.6081  0.1556 -0.5384
   95SAPS  C220 9423   1.374   1.146   7.814  0.5285  0.4344  0.2528
   95SAPS  H20R 9424   1.479   1.182   7.809  0.5136  0.3584 -1.1125
   95SAPS  H20S 9425   1.367   1.044   7.856 -0.8780  0.7933  0.9340
   95SAPS  H20T 9426   1.317   1.206   7.888  1.5051  0.0530  1.3551
   95SAPS   C33 9427   2.911   1.242   7.163  0.2778 -0.0910 -0.4407
   95SAPS   H3X 9428   3.020   1.254   7.144  0.2722  1.6372  0.4478
   95SAPS   H3Y 9429   2.882   1.136   7.178 -0.7778 -0.0069 -1.7087
   95SAPS   C34 9430   2.872   1.311   7.283  0.2959 -0.3594  0.6308
   95SAPS   H4X 9431   2.764   1.335   7.278  0.8697  2.4989  0.0771
   95SAPS   H4Y 9432   2.921   1.411   7.281 -1.1321  0.3840  1.3294
   95SAPS   C35 9433   2.897   1.254   7.426 -0.5107  0.5446 -0.3088
   95SAPS   H5X 9434   3.003   1.228   7.444 -0.5344  2.0314  2.6662
   95SAPS   H5Y 9435   2.836   1.161   7.433 -1.3296  1.1584  1.1703
   95SAPS   C36 9436   2.847   1.354   7.539 -0.3738  0.2005  0.0801
   95SAPS   H6X 9437   2.745   1.383   7.505  0.9005  3.6455 -1.3059
   95SAPS   H6Y 9438   2.912   1.444   7.537  0.4232 -0.3798 -0.5353
   95SAPS   C37 9439   2.840   1.276   7.674 -0.0441 -0.4225  0.0668
   95SAPS   H7X 9440   2.939   1.241   7.712 -0.6955 -1.5260  0.7897
   95SAPS   H7Y 9441   2.782   1.182   7.672 -0.0948 -0.3873 -0.4042
   95SAPS   C38 9442   2.785   1.360   7.793 -0.1858  0.3298 -0.2568
   95SAPS   H8X 9443   2.787   1.294   7.882  2.7342  0.7545  0.0628
   95SAPS   H8Y 9444   2.681   1.390   7.768  0.2566 -0.0615 -2.9582
   95SAPS   C39 9445   2.873   1.480   7.824 -0.0599 -0.2427 -1.0005
   95SAPS   H9X 9446   2.879   1.550   7.738  0.3963  1.2028  0.1632
   95SAPS   H9Y 9447   2.979   1.450   7.842 -0.2940 -0.8423 -0.5983
   95SAPS  C310 9448   2.809   1.547   7.950 -0.9966  0.1176 -0.5412
   95SAPS  H10X 9449   2.699   1.544   7.940 -1.1434 -0.7560  1.1233
   95SAPS  H10Y 9450   2.850   1.650   7.955  1.6331 -0.9129  2.0573
   95SAPS  C311 9451   2.857   1.474   8.074  0.0395  1.0004  0.4824
   95SAPS  H11X 9452   2.968   1.476   8.085  0.0567  3.1035  0.4542
   95SAPS  H11Y 9453   2.829   1.367   8.076  1.4546  0.5956 -0.1886
   95SAPS  C312 9454   2.797   1.542   8.197  1.0104  0.3675  0.5850
   95SAPS  H12X 9455   2.688   1.560   8.185  0.8077 -0.7143  0.6464
   95SAPS  H12Y 9456   2.858   1.632   8.217  0.7468  0.6820 -0.0054
   95SAPS  C313 9457   2.816   1.447   8.315 -0.5980 -0.2037  0.0727
   95SAPS  H13X 9458   2.925   1.435   8.327 -0.6936 -1.0329  0.1784
   95SAPS  H13Y 9459   2.762   1.353   8.291 -1.3793 -0.1601  1.5154
   95SAPS  C314 9460   2.771   1.522   8.439  0.3913 -0.0666 -0.6296
   95SAPS  H14X 9461   2.840   1.608   8.452  1.9863 -1.2338 -1.0421
   95SAPS  H14Y 9462   2.799   1.461   8.528  0.7636 -0.7345 -1.1996
   95SAPS  C315 9463   2.624   1.573   8.426 -0.5379 -0.3157 -0.0986
   95SAPS  H15X 9464   2.575   1.482   8.384  0.0519 -1.3193  1.3017
   95SAPS  H15Y 9465   2.601   1.658   8.359 -0.6475 -0.6438 -0.4777
   95SAPS  C316 9466   2.573   1.611   8.568  0.2758  0.0909  0.3717
   95SAPS  H16X 9467   2.595   1.518   8.624  2.2613  0.0218 -0.4788
   95SAPS  H16Y 9468   2.462   1.617   8.568  0.2780  0.1397  0.5563
   95SAPS  C317 9469   2.632   1.734   8.620 -0.3108 -0.8581 -0.0396
   95SAPS  H17X 9470   2.630   1.809   8.538  1.7489 -1.4905 -0.7474
   95SAPS  H17Y 9471   2.739   1.705   8.628 -0.5766 -1.8300  0.0845
   95SAPS  C318 9472   2.575   1.793   8.750 -0.1101  0.1153  0.0304
   95SAPS  H18X 9473   2.622   1.888   8.783 -1.0506  1.0755 -1.2814
   95SAPS  H18Y 9474   2.583   1.719   8.833  0.8417 -0.3223 -0.4362
   95SAPS  H18Z 9475   2.469   1.807   8.720 -0.0324  0.7248  0.0315
   96SAPS     N 9476   3.835   2.276   6.031 -0.0489 -0.7042  0.4308
   96SAPS   HN1 9477   3.753   2.328   6.069  0.7769 -1.4440  3.4779
   96SAPS   HN2 9478   3.895   2.338   5.973 -1.2270 -0.3943 -0.4924
   96SAPS   HN3 9479   3.807   2.199   5.968  0.1906  0.5516 -1.2844
   96SAPS   C12 9480   3.908   2.220   6.149 -0.7358  0.4094 -0.5096
   96SAPS  H12A 9481   3.983   2.148   6.120 -0.7871 -0.1429  0.6799
   96SAPS   C13 9482   3.967   2.325   6.243  0.0695 -0.0896 -0.1328
   96SAPS  O13A 9483   3.929   2.443   6.233 -0.5229 -0.2700  0.0985
   96SAPS  O13B 9484   4.072   2.283   6.298  0.1398 -0.2525  0.3812
   96SAPS   C11 9485   3.805   2.132   6.222  0.4653  0.4643  0.0946
   96SAPS  H11A 9486   3.860   2.086   6.307 -0.3666 -0.3210  0.2134
   96SAPS  H11B 9487   3.786   2.052   6.148  2.2700  0.5587 -0.5218
   96SAPS     P 9488   3.573   2.119   6.350  0.4003  0.3093 -0.0781
   96SAPS   O13 9489   3.443   2.170   6.313  0.9066 -0.2664 -0.2925
   96SAPS   O14 9490   3.607   1.980   6.314 -0.2725  0.0596 -0.0856
   96SAPS   O12 9491   3.685   2.197   6.274  0.1534  0.2998  0.2515
   96SAPS   O11 9492   3.598   2.154   6.506 -0.2508  0.2901  0.3673
   96SAPS    C1 9493   3.616   2.293   6.527  0.0167 -0.2492 -0.3671
   96SAPS    HA 9494   3.724   2.321   6.522 -0.1468  0.8875  1.3719
   96SAPS    HB 9495   3.553   2.358   6.464  0.8682 -1.0527 -2.0987
   96SAPS    C2 9496   3.553   2.335   6.662 -0.4723 -0.4209  0.5659
   96SAPS    HS 9497   3.557   2.445   6.675 -3.1284 -0.4582  2.4720
   96SAPS   O21 9498   3.613   2.274   6.775  0.0049  0.4037 -0.1489
   96SAPS   C21 9499   3.734   2.326   6.812 -0.4362  0.4417 -0.1117
   96SAPS   O22 9500   3.793   2.418   6.758 -0.1633  0.0252 -0.1774
   96SAPS   C22 9501   3.770   2.267   6.945 -0.3853  0.2378  0.0274
   96SAPS   H2R 9502   3.842   2.336   6.994  0.2703  0.0710 -0.6742
   96SAPS   H2S 9503   3.679   2.286   7.007 -0.9325  0.5323 -0.8517
   96SAPS    C3 9504   3.405   2.300   6.659 -0.3697 -0.4822  0.9287
   96SAPS    HX 9505   3.406   2.190   6.640  0.3207 -0.1361 -1.2706
   96SAPS    HY 9506   3.367   2.354   6.569 -0.5929 -0.0798  1.2626
   96SAPS   O31 9507   3.331   2.334   6.778 -0.0391  0.0701  0.0665
   96SAPS   C31 9508   3.310   2.463   6.791  0.4133 -0.2149 -0.1469
   96SAPS   O32 9509   3.364   2.551   6.725  0.0106  0.0675 -0.3727
   96SAPS   C32 9510   3.205   2.498   6.888  0.5345  0.4342 -0.0759
   96SAPS   H2X 9511   3.117   2.448   6.843  0.8495  0.7112 -1.0068
   96SAPS   H2Y 9512   3.180   2.607   6.886 -2.4112 -0.1483  0.0450
   96SAPS   C23 9513   3.819   2.127   6.954  0.2836 -0.1161 -0.1655
   96SAPS   H3R 9514   3.915   2.111   6.900 -0.1388 -1.6877 -0.4929
   96SAPS   H3S 9515   3.740   2.052   6.934  0.6467 -0.3377 -0.7957
   96SAPS   C24 9516   3.851   2.077   7.093  0.2683 -0.2276 -0.0776
   96SAPS   H4R 9517   3.898   1.976   7.087  2.1812  0.5032  1.5799
   96SAPS   H4S 9518   3.754   2.059   7.144 -0.9664  1.9442 -1.5104
   96SAPS   C25 9519   3.925   2.162   7.184  0.9819 -0.1067  0.4394
   96SAPS   H5R 9520   4.017   2.202   7.138 -0.4296  1.4127 -1.1707
   96SAPS   C26 9521   3.912   2.184   7.317 -0.1505  0.1583 -0.2629
   96SAPS   H6R 9522   3.985   2.250   7.366  1.2780  0.5829 -2.7520
   96SAPS   C27 9523   3.813   2.126   7.417 -0.6632  0.4138 -0.3729
   96SAPS   H7R 9524   3.873   2.069   7.491 -0.9729 -1.1275 -1.2519
   96SAPS   H7S 9525   3.744   2.058   7.362 -3.4301  0.5155  2.6603
   96SAPS   C28 9526   3.722   2.229   7.479  0.1717  0.1729 -0.9404
   96SAPS   H8R 9527   3.649   2.275   7.409  0.2287 -0.5678 -1.5030
   96SAPS   C29 9528   3.727   2.287   7.603 -0.1076 -0.1871  0.4110
   96SAPS   H9R 9529   3.650   2.362   7.626 -0.4374 -0.1883 -0.6600
   96SAPS  C210 9530   3.827   2.261   7.716  0.8572 -0.0084  0.0475
   96SAPS  H10R 9531   3.820   2.156   7.749  0.1063 -1.0547 -3.1042
   96SAPS  H10S 9532   3.814   2.328   7.804 -1.4376  0.3445 -0.4872
   96SAPS  C211 9533   3.966   2.283   7.675  0.6581 -0.1229  0.5670
   96SAPS  H11R 9534   3.982   2.360   7.598  2.6863  1.7190  2.6793
   96SAPS  C212 9535   4.073   2.237   7.749  0.2769  0.4328  0.1558
   96SAPS  H12R 9536   4.173   2.248   7.704  0.2795 -1.1230 -0.2948
   96SAPS  C213 9537   4.068   2.163   7.878  0.0999 -0.5881 -0.3682
   96SAPS  H13R 9538   4.150   2.088   7.881 -0.6508 -1.4018  0.9245
   96SAPS  H13S 9539   3.975   2.104   7.886  1.6211 -2.9401  1.4568
   96SAPS  C214 9540   4.060   2.252   8.000  0.0734  0.5282  0.0868
   96SAPS  H14R 9541   3.955   2.281   8.019  0.0211  2.1280 -2.2308
   96SAPS  C215 9542   4.151   2.265   8.104  0.0732  0.3879  0.0848
   96SAPS  H15R 9543   4.125   2.334   8.185  1.0253  0.7761  0.0693
   96SAPS  C216 9544   4.287   2.199   8.114 -0.1953 -0.3715  0.3414
   96SAPS  H16R 9545   4.360   2.281   8.134 -1.3862  0.9127 -0.3687
   96SAPS  H16S 9546   4.317   2.144   8.022  0.6840  1.1798 -0.3437
   96SAPS  C217 9547   4.300   2.089   8.221 -0.7899  0.0269 -0.0766
   96SAPS  H17R 9548   4.280   2.133   8.321 -0.7928 -1.1119  0.4389
   96SAPS  H17S 9549   4.406   2.058   8.230 -0.8334  0.1115  0.8160
   96SAPS  C218 9550   4.218   1.962   8.203  0.0337  0.4009 -0.3172
   96SAPS  H18R 9551   4.209   1.947   8.094 -1.5190  1.3398 -0.3479
   96SAPS  H18S 9552   4.111   1.963   8.234  0.0347  0.4507 -0.3169
   96SAPS  C219 9553   4.282   1.827   8.253  0.2124 -0.5332  0.2454
   96SAPS  H19R 9554   4.281   1.838   8.364  0.3971  0.1671  0.1834
   96SAPS  H19S 9555   4.389   1.836   8.227 -0.4515  0.8491 -2.3397
   96SAPS  C220 9556   4.212   1.703   8.201  0.4789 -0.0876  0.0810
   96SAPS  H20R 9557   4.102   1.718   8.212  0.5895  1.3167 -0.4648
   96SAPS  H20S 9558   4.245   1.609   8.249  1.7173 -0.9459 -2.2576
   96SAPS  H20T 9559   4.220   1.705   8.090 -0.5733  3.6349 -0.0785
   96SAPS   C33 9560   3.259   2.439   7.026 -0.3189 -0.2448  0.4921
   96SAPS   H3X 9561   3.351   2.490   7.063 -0.0794 -2.1420  2.7685
   96SAPS   H3Y 9562   3.285   2.331   7.028 -0.8379 -0.3983 -0.5668
   96SAPS   C34 9563   3.158   2.476   7.142 -0.0305  0.1118 -0.1460
   96SAPS   H4X 9564   3.128   2.583   7.134  1.2672  0.8056  3.0019
   96SAPS   H4Y 9565   3.202   2.460   7.242 -0.9416 -1.1575  0.0691
   96SAPS   C35 9566   3.032   2.385   7.144 -0.3213 -1.1278  0.0231
   96SAPS   H5X 9567   3.066   2.285   7.177  2.0790 -0.2001  0.5387
   96SAPS   H5Y 9568   3.001   2.387   7.037  0.1076 -0.4901 -0.0999
   96SAPS   C36 9569   2.916   2.427   7.235 -0.2524 -0.0929 -0.4178
   96SAPS   H6X 9570   2.829   2.363   7.208  0.3582 -0.7270 -0.9293
   96SAPS   H6Y 9571   2.868   2.524   7.212  2.0678  0.9380 -1.1989
   96SAPS   C37 9572   2.953   2.416   7.382 -0.0086 -0.0030 -0.7137
   96SAPS   H7X 9573   3.040   2.483   7.394 -1.8317  2.2693  0.7839
   96SAPS   H7Y 9574   2.987   2.316   7.418  0.7629  0.7025  0.5756
   96SAPS   C38 9575   2.832   2.462   7.468 -0.3337  0.7172  0.3166
   96SAPS   H8X 9576   2.759   2.380   7.451  0.1265  0.1730  0.9346
   96SAPS   H8Y 9577   2.790   2.564   7.450 -0.5123  0.4750 -0.6815
   96SAPS   C39 9578   2.871   2.463   7.615 -0.0905  0.0217  0.9076
   96SAPS   H9X 9579   2.937   2.548   7.641 -0.9029  0.7443  0.6417
   96SAPS   H9Y 9580   2.927   2.370   7.638  1.3324 -0.1285 -2.5289
   96SAPS  C310 9581   2.751   2.465   7.712 -0.0112  0.3189 -0.5056
   96SAPS  H10X 9582   2.683   2.387   7.673  0.0370  0.7510 -1.4792
   96SAPS  H10Y 9583   2.701   2.564   7.712  2.4012  1.6357  0.9192
   96SAPS  C311 9584   2.791   2.430   7.857  0.5672  0.8272  0.2952
   96SAPS  H11X 9585   2.840   2.331   7.864 -0.9901  0.1535  3.1180
   96SAPS  H11Y 9586   2.701   2.415   7.920  0.1412  1.3720 -0.1744
   96SAPS  C312 9587   2.875   2.520   7.942 -0.5640  0.1297  0.2297
   96SAPS  H12X 9588   2.820   2.613   7.968 -0.0748  0.1072  1.4144
   96SAPS  H12Y 9589   2.974   2.553   7.904 -1.4735  2.7794 -0.0422
   96SAPS  C313 9590   2.899   2.454   8.078  0.7081 -0.7702  0.1383
   96SAPS  H13X 9591   2.938   2.350   8.069 -0.9193 -1.4373  0.3987
   96SAPS  H13Y 9592   2.805   2.429   8.131 -0.3190 -3.2493 -2.5722
   96SAPS  C314 9593   2.999   2.532   8.172  0.3232  0.5373 -0.6304
   96SAPS  H14X 9594   2.961   2.635   8.190  0.5890  0.1137  3.1949
   96SAPS  H14Y 9595   3.096   2.537   8.120  1.6890  0.7961  1.7760
   96SAPS  C315 9596   3.026   2.455   8.304 -0.0985 -0.5325  0.4704
   96SAPS  H15X 9597   3.048   2.349   8.281  0.7450 -1.0135  3.1620
   96SAPS  H15Y 9598   2.940   2.461   8.374  1.8048  0.6046  2.8661
   96SAPS  C316 9599   3.159   2.511   8.371  0.2746 -0.5521  0.2451
   96SAPS  H16X 9600   3.168   2.500   8.482 -0.6637 -0.0613  0.3808
   96SAPS  H16Y 9601   3.166   2.620   8.349  0.9440 -0.4150  1.0829
   96SAPS  C317 9602   3.284   2.439   8.312  0.4972 -0.6534  0.2871
   96SAPS  H17X 9603   3.270   2.436   8.202 -0.1459 -1.6645  0.3750
   96SAPS  H17Y 9604   3.292   2.330   8.335  1.1455 -0.8513 -0.8002
   96SAPS  C318 9605   3.415   2.513   8.346 -0.4046 -0.7605 -0.4027
   96SAPS  H18X 9606   3.443   2.496   8.453 -0.2577  1.0275 -0.1334
   96SAPS  H18Y 9607   3.421   2.621   8.322 -1.5658 -1.1226 -2.5174
   96SAPS  H18Z 9608   3.498   2.474   8.283 -0.0514  2.0773 -1.8118
   97SAPS     N 9609   4.290   6.406   6.538 -0.5484  0.2764  0.2588
   97SAPS   HN1 9610   4.298   6.500   6.582  1.8232 -0.6140  2.0093
   97SAPS   HN2 9611   4.229   6.341   6.592 -0.6133 -0.6924 -0.9494
   97SAPS   HN3 9612   4.389   6.373   6.542 -1.0148 -1.3911 -0.7851
   97SAPS   C12 9613   4.229   6.400   6.398 -0.3203  0.2793 -0.7761
   97SAPS  H12A 9614   4.263   6.490   6.350 -0.1127  0.8840  0.4834
   97SAPS   C13 9615   4.280   6.276   6.321  0.3474  0.5281 -0.6624
   97SAPS  O13A 9616   4.371   6.205   6.370  0.6095 -0.0760 -0.2973
   97SAPS  O13B 9617   4.237   6.255   6.198  0.2717  0.4659 -0.6285
   97SAPS   C11 9618   4.076   6.402   6.399 -0.9366  0.3900 -0.0172
   97SAPS  H11A 9619   4.035   6.306   6.437  0.2507  0.0672  0.4965
   97SAPS  H11B 9620   4.046   6.395   6.292 -3.7325 -0.0851  0.7444
   97SAPS     P 9621   3.878   6.569   6.423  0.2827  0.2336 -0.1700
   97SAPS   O13 9622   3.878   6.713   6.391  0.1818 -0.0403  0.0537
   97SAPS   O14 9623   3.813   6.475   6.329 -0.4656  0.2818  0.2572
   97SAPS   O12 9624   4.028   6.519   6.456 -0.1056  0.0293 -0.3170
   97SAPS   O11 9625   3.801   6.540   6.560  0.1661 -0.0137 -0.0474
   97SAPS    C1 9626   3.839   6.427   6.635  0.5685 -0.1563 -0.1078
   97SAPS    HA 9627   3.761   6.369   6.687  1.5167 -3.5353 -2.1216
   97SAPS    HB 9628   3.888   6.344   6.579  0.3709 -0.1269 -0.3303
   97SAPS    C2 9629   3.943   6.476   6.742 -0.2290 -0.7559 -0.2956
   97SAPS    HS 9630   4.038   6.508   6.694 -1.1326 -2.2213 -3.2988
   97SAPS   O21 9631   3.977   6.369   6.833 -0.1346 -0.6754 -0.5685
   97SAPS   C21 9632   4.048   6.269   6.784  0.9482  0.1627 -0.1712
   97SAPS   O22 9633   4.084   6.254   6.670 -0.1881  0.2942  0.6179
   97SAPS   C22 9634   4.083   6.180   6.899  0.3760 -0.2219  0.6041
   97SAPS   H2R 9635   3.995   6.115   6.919  0.3088 -1.0572 -2.0412
   97SAPS   H2S 9636   4.170   6.113   6.882  0.0340 -0.8022  1.0836
   97SAPS    C3 9637   3.899   6.596   6.827  0.2207  0.2738  0.4649
   97SAPS    HX 9638   3.811   6.575   6.892 -1.1838  1.1021 -1.1009
   97SAPS    HY 9639   3.857   6.666   6.752  0.3594 -0.4523 -0.2968
   97SAPS   O31 9640   4.009   6.655   6.887 -0.8367 -0.1952 -0.0865
   97SAPS   C31 9641   3.967   6.764   6.956  0.1655  0.9276  0.5071
   97SAPS   O32 9642   3.852   6.795   6.967  0.5503 -0.0266  0.1243
   97SAPS   C32 9643   4.085   6.834   7.026  0.7879  0.1001  0.4188
   97SAPS   H2X 9644   4.060   6.941   7.016  0.9324  0.1100  0.1418
   97SAPS   H2Y 9645   4.177   6.816   6.967  0.2233  0.6311 -0.6494
   97SAPS   C23 9646   4.116   6.262   7.022 -0.6706  0.4537  0.8987
   97SAPS   H3R 9647   4.023   6.309   7.061 -2.9418 -0.9007 -2.4059
   97SAPS   H3S 9648   4.191   6.341   7.003  0.8098 -1.0975  0.0141
   97SAPS   C24 9649   4.170   6.173   7.138  0.1609  0.1777  0.6736
   97SAPS   H4R 9650   4.176   6.252   7.216  2.2878 -0.1646  0.9134
   97SAPS   H4S 9651   4.272   6.131   7.128  0.2323  0.4072  0.4447
   97SAPS   C25 9652   4.085   6.062   7.191 -0.2257 -0.5200 -0.1527
   97SAPS   H5R 9653   4.058   5.980   7.124 -1.4540  0.2651 -0.6452
   97SAPS   C26 9654   4.034   6.054   7.313  0.6775  0.6789 -0.6688
   97SAPS   H6R 9655   3.974   5.964   7.331  1.0335  0.1765 -1.9287
   97SAPS   C27 9656   4.041   6.151   7.423 -0.0188  0.2920 -0.4312
   97SAPS   H7R 9657   4.059   6.257   7.395 -1.8036  0.2814 -1.7349
   97SAPS   H7S 9658   4.126   6.125   7.490 -0.5283  0.0210  0.1127
   97SAPS   C28 9659   3.903   6.157   7.488  0.5023  0.4481 -0.2387
   97SAPS   H8R 9660   3.814   6.164   7.423 -0.8742  0.5982  1.5924
   97SAPS   C29 9661   3.882   6.145   7.620 -0.0701  0.5175  0.4970
   97SAPS   H9R 9662   3.777   6.156   7.649 -1.1400 -2.0818 -1.9637
   97SAPS  C210 9663   3.979   6.112   7.724 -0.0818 -0.2666 -0.2787
   97SAPS  H10R 9664   4.055   6.051   7.671  0.8400  0.2400  0.4358
   97SAPS  H10S 9665   3.930   6.043   7.796 -1.3586  1.9996  1.1470
   97SAPS  C211 9666   4.052   6.230   7.792 -0.1285  0.5202  0.2180
   97SAPS  H11R 9667   4.068   6.308   7.717 -1.2060 -0.7410 -1.4210
   97SAPS  C212 9668   4.087   6.253   7.921  0.4822 -0.1277 -0.8057
   97SAPS  H12R 9669   4.126   6.353   7.946 -1.9246  0.7401 -0.2918
   97SAPS  C213 9670   4.056   6.157   8.034 -0.2358 -0.2154  0.4038
   97SAPS  H13R 9671   4.011   6.064   7.993  1.1425 -0.8553  0.3076
   97SAPS  H13S 9672   3.982   6.196   8.108  0.2264 -1.8841  1.8050
   97SAPS  C214 9673   4.173   6.098   8.110 -0.6034 -0.2750  0.5815
   97SAPS  H14R 9674   4.222   6.021   8.048 -2.9595 -3.3184  2.2089
   97SAPS  C215 9675   4.216   6.129   8.234  0.2489  0.1150  0.5792
   97SAPS  H15R 9676   4.305   6.083   8.278 -0.3079 -1.1556  0.4148
   97SAPS  C216 9677   4.143   6.222   8.333  0.0251  0.3240  0.9109
   97SAPS  H16R 9678   4.034   6.221   8.310  0.3990  0.5684 -1.0724
   97SAPS  H16S 9679   4.191   6.321   8.315 -1.5536  0.6078 -2.6600
   97SAPS  C217 9680   4.135   6.199   8.488 -0.2268  0.3181 -1.0195
   97SAPS  H17R 9681   4.086   6.288   8.534  0.7125  0.0316  0.6387
   97SAPS  H17S 9682   4.238   6.211   8.527  0.1327  0.2800 -1.9497
   97SAPS  C218 9683   4.073   6.066   8.533  0.3677 -0.6348  0.2361
   97SAPS  H18R 9684   4.132   5.976   8.503  0.5613 -0.9643  1.5186
   97SAPS  H18S 9685   3.979   6.067   8.474  1.5952  1.8564 -1.8838
   97SAPS  C219 9686   4.035   6.058   8.679  0.7020  0.0511 -0.0086
   97SAPS  H19R 9687   3.976   6.142   8.721  1.0495 -0.4102  1.4566
   97SAPS  H19S 9688   4.132   6.058   8.733 -0.6699 -0.1112  2.6203
   97SAPS  C220 9689   3.969   5.928   8.712  0.5218  0.2609 -0.1742
   97SAPS  H20R 9690   4.035   5.847   8.673  1.7231  0.7189  0.8240
   97SAPS  H20S 9691   3.877   5.921   8.650  1.7430  0.4404 -2.0979
   97SAPS  H20T 9692   3.944   5.921   8.820 -2.5622  1.5381 -0.7270
   97SAPS   C33 9693   4.097   6.792   7.172  0.1343 -0.6238 -0.3467
   97SAPS   H3X 9694   4.003   6.817   7.225  1.2881  1.7613  0.7322
   97SAPS   H3Y 9695   4.169   6.860   7.222  1.1386 -2.4689  0.8600
   97SAPS   C34 9696   4.144   6.650   7.184  0.8112  0.5931  0.3279
   97SAPS   H4X 9697   4.216   6.622   7.104 -0.7168  1.9743 -1.6168
   97SAPS   H4Y 9698   4.057   6.585   7.165  0.4380  1.1367  0.1526
   97SAPS   C35 9699   4.200   6.605   7.320 -0.0430 -0.4721 -0.8316
   97SAPS   H5X 9700   4.280   6.676   7.349  2.7469 -3.3397 -1.0038
   97SAPS   H5Y 9701   4.248   6.505   7.324 -1.0192 -1.0332 -2.1646
   97SAPS   C36 9702   4.080   6.622   7.422 -0.0400 -0.2415 -0.3468
   97SAPS   H6X 9703   3.992   6.561   7.390 -0.7967 -0.0736  1.2999
   97SAPS   H6Y 9704   4.048   6.728   7.434 -0.2151 -0.1899 -1.1710
   97SAPS   C37 9705   4.134   6.579   7.561 -0.2774  0.0869  0.0487
   97SAPS   H7X 9706   4.222   6.643   7.586 -1.5774  2.6027 -1.3574
   97SAPS   H7Y 9707   4.168   6.475   7.542 -0.5625  0.1570 -0.8876
   97SAPS   C38 9708   4.024   6.589   7.674  0.2367 -0.6354  0.1654
   97SAPS   H8X 9709   3.954   6.503   7.665 -0.1797 -0.2061 -0.7882
   97SAPS   H8Y 9710   3.967   6.679   7.646 -0.1916 -0.6914  0.8503
   97SAPS   C39 9711   4.062   6.599   7.814  0.3222 -0.2931  0.8596
   97SAPS   H9X 9712   4.121   6.692   7.826 -0.4142  0.3090 -0.1037
   97SAPS   H9Y 9713   4.126   6.515   7.850 -0.2741 -1.0375  0.2340
   97SAPS  C310 9714   3.937   6.610   7.902 -0.4589 -0.0278 -0.1352
   97SAPS  H10X 9715   3.900   6.506   7.917 -0.4483 -0.2859 -1.7463
   97SAPS  H10Y 9716   3.864   6.675   7.849  1.8462  0.2767 -3.2354
   97SAPS  C311 9717   3.964   6.682   8.035 -0.3152  0.1929 -0.0219
   97SAPS  H11X 9718   3.873   6.713   8.090 -0.4777  0.8272 -0.6391
   97SAPS  H11Y 9719   4.017   6.779   8.023 -0.3850  0.3196  0.6404
   97SAPS  C312 9720   4.066   6.610   8.117  0.3872 -0.0514 -0.2783
   97SAPS  H12X 9721   4.168   6.618   8.075 -0.4983 -0.3918 -2.6416
   97SAPS  H12Y 9722   4.031   6.504   8.118  0.4035 -0.0586 -0.4598
   97SAPS  C313 9723   4.085   6.652   8.268  0.2648 -0.5956  0.8258
   97SAPS  H13X 9724   4.170   6.600   8.318  2.2367 -0.1011 -1.7849
   97SAPS  H13Y 9725   3.993   6.621   8.322  0.1774 -1.1090  0.3814
   97SAPS  C314 9726   4.114   6.802   8.283  0.5002 -0.0728 -0.2793
   97SAPS  H14X 9727   4.031   6.852   8.230  1.9144  0.4293 -2.1315
   97SAPS  H14Y 9728   4.192   6.834   8.211 -0.0925  0.9333 -0.4958
   97SAPS  C315 9729   4.154   6.857   8.418 -0.2059 -0.2762 -0.0736
   97SAPS  H15X 9730   4.249   6.804   8.437 -0.1815  0.1052  0.9501
   97SAPS  H15Y 9731   4.087   6.812   8.494  0.9414  0.5094  1.4628
   97SAPS  C316 9732   4.166   7.006   8.430 -0.4806 -0.6744  0.0345
   97SAPS  H16X 9733   4.073   7.059   8.399  1.6489  2.1620 -2.1348
   97SAPS  H16Y 9734   4.243   7.035   8.356  0.7606  1.1550  1.9045
   97SAPS  C317 9735   4.219   7.054   8.566 -0.3859 -0.3669  0.7682
   97SAPS  H17X 9736   4.293   6.976   8.597  0.2913 -0.6928 -1.4610
   97SAPS  H17Y 9737   4.132   7.052   8.635 -2.4677  0.9255 -1.6806
   97SAPS  C318 9738   4.281   7.194   8.555 -0.3845  0.1767 -0.0032
   97SAPS  H18X 9739   4.294   7.225   8.660 -1.1564 -0.7785  0.3874
   97SAPS  H18Y 9740   4.218   7.273   8.510  0.6579  0.8910 -0.2488
   97SAPS  H18Z 9741   4.375   7.188   8.496 -1.1113  0.2742 -1.2116
   98SAPS     N 9742   2.078   0.624   6.074 -0.2313  0.2303  0.2236
   98SAPS   HN1 9743   2.106   0.565   5.993 -4.7963 -0.2629 -1.2596
   98SAPS   HN2 9744   2.002   0.681   6.033 -1.6413 -2.3811 -1.0055
   98SAPS   HN3 9745   2.160   0.683   6.102 -0.9136  2.5847 -2.3093
   98SAPS   C12 9746   2.035   0.543   6.197  0.3955  0.6629  0.0292
   98SAPS  H12A 9747   2.020   0.613   6.278  0.5515  1.7373 -0.8289
   98SAPS   C13 9748   1.905   0.466   6.186  0.2773  0.0728  0.0729
   98SAPS  O13A 9749   1.829   0.483   6.083  0.1866 -0.3090 -0.7414
   98SAPS  O13B 9750   1.850   0.429   6.293  0.1501 -0.1909  0.2403
   98SAPS   C11 9751   2.140   0.439   6.244 -0.3765 -0.7757  0.0939
   98SAPS  H11A 9752   2.164   0.360   6.169  0.2058 -0.2149 -0.3199
   98SAPS  H11B 9753   2.104   0.387   6.335 -0.3606 -0.6426  0.1747
   98SAPS     P 9754   2.397   0.441   6.288  0.0336 -0.0501 -0.1256
   98SAPS   O13 9755   2.364   0.294   6.302  0.0506 -0.2160 -0.1209
   98SAPS   O14 9756   2.471   0.498   6.170  0.1668 -0.2758  0.3944
   98SAPS   O12 9757   2.256   0.506   6.297  0.4019  0.6035 -0.0860
   98SAPS   O11 9758   2.469   0.477   6.421 -0.3815 -0.2749  0.1402
   98SAPS    C1 9759   2.481   0.612   6.478  0.7034 -0.6486  0.7834
   98SAPS    HA 9760   2.578   0.659   6.451  0.3329  0.3673  1.1486
   98SAPS    HB 9761   2.401   0.682   6.446 -0.1032 -0.8889  2.1934
   98SAPS    C2 9762   2.479   0.611   6.633 -0.8167  0.5496  0.4283
   98SAPS    HS 9763   2.565   0.543   6.654 -0.8510  0.2738 -0.2917
   98SAPS   O21 9764   2.348   0.587   6.688 -0.0305  0.1135  0.4835
   98SAPS   C21 9765   2.350   0.470   6.744 -0.3619 -0.4543 -0.0336
   98SAPS   O22 9766   2.453   0.407   6.771  0.0864 -0.7643 -0.1987
   98SAPS   C22 9767   2.213   0.427   6.782  0.3020  0.2297 -0.0248
   98SAPS   H2R 9768   2.165   0.504   6.846  0.4526 -0.8035  1.3961
   98SAPS   H2S 9769   2.158   0.415   6.686  0.8959  2.5050 -0.7146
   98SAPS    C3 9770   2.530   0.752   6.682 -0.2345 -0.1866  0.0722
   98SAPS    HX 9771   2.454   0.827   6.651  0.8676  0.7754 -0.3572
   98SAPS    HY 9772   2.632   0.772   6.642  0.9764 -2.4895  1.7425
   98SAPS   O31 9773   2.541   0.749   6.833 -0.0919 -0.5282 -0.3203
   98SAPS   C31 9774   2.664   0.738   6.876 -0.3095  0.7348  0.4123
   98SAPS   O32 9775   2.763   0.708   6.813  0.1841 -0.1431 -0.5029
   98SAPS   C32 9776   2.657   0.756   7.033 -0.5383 -0.0049 -0.0298
   98SAPS   H2X 9777   2.614   0.658   7.061  0.5360 -0.5639 -0.3042
   98SAPS   H2Y 9778   2.581   0.831   7.065 -0.9993 -1.4373  2.5234
   98SAPS   C23 9779   2.216   0.299   6.867  0.4805 -0.4723 -0.2090
   98SAPS   H3R 9780   2.278   0.214   6.831 -1.6528 -2.0172 -0.4900
   98SAPS   H3S 9781   2.112   0.264   6.848 -0.1442  1.7268 -1.1879
   98SAPS   C24 9782   2.237   0.317   7.020  0.6351 -0.2657  0.5730
   98SAPS   H4R 9783   2.341   0.351   7.035  0.6262  1.0395 -1.8805
   98SAPS   H4S 9784   2.228   0.218   7.071  0.0500  0.7885  2.6397
   98SAPS   C25 9785   2.135   0.410   7.073  0.0101 -0.1487  0.1035
   98SAPS   H5R 9786   2.054   0.421   6.999  0.2245 -0.1210 -0.1276
   98SAPS   C26 9787   2.149   0.483   7.186  0.0888  0.6601  0.2206
   98SAPS   H6R 9788   2.076   0.564   7.203  1.6531  1.6461  2.8154
   98SAPS   C27 9789   2.264   0.495   7.284 -0.0617  0.0071  0.0052
   98SAPS   H7R 9790   2.238   0.583   7.347  0.2720 -0.0944  0.2929
   98SAPS   H7S 9791   2.356   0.524   7.228  1.0944 -0.9171  1.3290
   98SAPS   C28 9792   2.309   0.373   7.364  1.0648 -0.5729  0.1786
   98SAPS   H8R 9793   2.308   0.279   7.307 -4.1455 -1.8639  1.8554
   98SAPS   C29 9794   2.326   0.359   7.499 -0.3791 -0.4582  0.4078
   98SAPS   H9R 9795   2.330   0.255   7.536 -3.0466 -0.6363  0.3976
   98SAPS  C210 9796   2.323   0.463   7.607 -0.0297  0.4088  0.6588
   98SAPS  H10R 9797   2.251   0.418   7.679 -1.3122  2.5624  0.7967
   98SAPS  H10S 9798   2.282   0.558   7.568 -1.4306 -0.2912  0.3719
   98SAPS  C211 9799   2.454   0.501   7.682  0.0520  0.2147 -0.4796
   98SAPS  H11R 9800   2.538   0.524   7.614 -0.0134  0.2335 -0.5537
   98SAPS  C212 9801   2.475   0.510   7.815  0.0258 -0.3025 -0.8468
   98SAPS  H12R 9802   2.577   0.518   7.855  0.1040  1.1276 -1.2751
   98SAPS  C213 9803   2.374   0.475   7.924 -0.1253 -0.7218  0.3701
   98SAPS  H13R 9804   2.365   0.366   7.940 -1.9415 -0.3742  2.2673
   98SAPS  H13S 9805   2.274   0.507   7.886 -0.6486  1.1437  2.9870
   98SAPS  C214 9806   2.422   0.551   8.049 -0.2621 -0.5320 -0.2900
   98SAPS  H14R 9807   2.466   0.650   8.029 -1.0153 -0.5263 -2.1747
   98SAPS  C215 9808   2.400   0.521   8.175 -0.5803  0.2880 -0.6060
   98SAPS  H15R 9809   2.455   0.572   8.256 -2.5587 -0.1988  1.1290
   98SAPS  C216 9810   2.327   0.403   8.224  0.3484  0.4952 -0.4510
   98SAPS  H16R 9811   2.398   0.317   8.234  0.0639  0.4503  1.7488
   98SAPS  H16S 9812   2.250   0.377   8.149 -0.5132  1.3392  0.1204
   98SAPS  C217 9813   2.249   0.406   8.357  0.4476 -0.0698 -0.2530
   98SAPS  H17R 9814   2.205   0.308   8.387 -0.3471  1.4909  4.6432
   98SAPS  H17S 9815   2.162   0.475   8.350 -0.3205 -0.7323  1.7918
   98SAPS  C218 9816   2.337   0.439   8.481  0.3077  0.2555 -1.4957
   98SAPS  H18R 9817   2.271   0.449   8.570  0.2510  2.8639 -1.7653
   98SAPS  H18S 9818   2.380   0.539   8.463 -0.7462  0.9826 -0.1932
   98SAPS  C219 9819   2.447   0.334   8.503  0.1477  0.5033  0.5228
   98SAPS  H19R 9820   2.517   0.334   8.416 -1.3268 -0.3899 -0.7121
   98SAPS  H19S 9821   2.397   0.235   8.500 -0.3714  0.7219  1.7195
   98SAPS  C220 9822   2.519   0.332   8.638 -0.1967  0.3455 -0.6475
   98SAPS  H20R 9823   2.596   0.253   8.651 -0.8049 -0.0524  0.7700
   98SAPS  H20S 9824   2.450   0.330   8.725 -0.6543 -0.7688 -1.0209
   98SAPS  H20T 9825   2.568   0.432   8.650 -2.0444  1.4014 -1.5223
   98SAPS   C33 9826   2.790   0.768   7.106 -0.4239 -0.8842 -0.3607
   98SAPS   H3X 9827   2.841   0.860   7.072  0.6367 -0.5435  1.9427
   98SAPS   H3Y 9828   2.860   0.684   7.085  0.6095 -0.3508  0.8198
   98SAPS   C34 9829   2.777   0.799   7.254 -0.0433 -0.3073  0.1234
   98SAPS   H4X 9830   2.740   0.710   7.309  0.8330 -1.1248 -0.5779
   98SAPS   H4Y 9831   2.705   0.882   7.271  0.7234  0.7100 -1.3744
   98SAPS   C35 9832   2.910   0.838   7.319 -0.3746 -0.6782  0.7759
   98SAPS   H5X 9833   2.951   0.928   7.269  0.8454 -0.9646  1.2270
   98SAPS   H5Y 9834   2.977   0.752   7.297 -1.1852 -1.0189 -0.4772
   98SAPS   C36 9835   2.913   0.867   7.466 -0.7248 -0.1185 -0.4564
   98SAPS   H6X 9836   2.865   0.791   7.531  1.6455  0.1154  1.7430
   98SAPS   H6Y 9837   2.849   0.955   7.489 -1.5935 -0.9063  0.2131
   98SAPS   C37 9838   3.061   0.882   7.515 -0.7693 -0.5098  0.1433
   98SAPS   H7X 9839   3.119   0.954   7.453 -0.2535 -2.8232 -2.2208
   98SAPS   H7Y 9840   3.100   0.779   7.530 -2.9408 -1.1461  1.9273
   98SAPS   C38 9841   3.070   0.934   7.656 -0.0875 -0.4584 -0.1370
   98SAPS   H8X 9842   2.974   0.905   7.705 -1.2680 -0.5990 -2.4182
   98SAPS   H8Y 9843   3.076   1.045   7.644 -0.6173 -0.2328  1.4400
   98SAPS   C39 9844   3.178   0.878   7.755  0.5709  0.4356 -0.5357
   98SAPS   H9X 9845   3.279   0.903   7.717  1.0308  0.5548  0.7050
   98SAPS   H9Y 9846   3.171   0.769   7.775  1.7816  0.2798 -0.8873
   98SAPS  C310 9847   3.162   0.951   7.896  0.7567  0.1366  0.0621
   98SAPS  H10X 9848   3.061   0.935   7.941  0.3329 -1.2894 -1.3061
   98SAPS  H10Y 9849   3.168   1.060   7.879  1.1582  0.2120  0.6318
   98SAPS  C311 9850   3.282   0.916   7.990  0.7316 -0.2143  0.0372
   98SAPS  H11X 9851   3.380   0.952   7.952  1.8372 -2.6630  0.4163
   98SAPS  H11Y 9852   3.291   0.806   8.003  3.3778 -0.1869 -1.0720
   98SAPS  C312 9853   3.262   0.986   8.135 -0.6799  0.2362 -0.3247
   98SAPS  H12X 9854   3.176   0.937   8.185 -0.6203 -1.3880 -1.7083
   98SAPS  H12Y 9855   3.238   1.093   8.119  1.3423  0.8091  0.1755
   98SAPS  C313 9856   3.392   0.980   8.217  0.2686  0.3996 -0.2151
   98SAPS  H13X 9857   3.473   1.024   8.156  0.1114 -2.7280 -2.9424
   98SAPS  H13Y 9858   3.409   0.882   8.266  0.7552  0.8545  0.5516
   98SAPS  C314 9859   3.375   1.077   8.340 -0.4324 -0.8590  0.0504
   98SAPS  H14X 9860   3.286   1.049   8.401 -0.8058 -0.7145 -0.4191
   98SAPS  H14Y 9861   3.375   1.177   8.292  0.7923 -0.6541  0.4570
   98SAPS  C315 9862   3.498   1.063   8.433 -0.6836 -0.0576 -0.0416
   98SAPS  H15X 9863   3.581   1.085   8.363 -1.6604  1.7819 -0.6860
   98SAPS  H15Y 9864   3.502   0.957   8.467  2.3779 -0.3248 -0.9818
   98SAPS  C316 9865   3.503   1.157   8.553  0.4233  0.3713  0.4271
   98SAPS  H16X 9866   3.603   1.138   8.596  0.8113  1.4274  0.0004
   98SAPS  H16Y 9867   3.415   1.132   8.616  1.6830 -0.2958  1.9695
   98SAPS  C317 9868   3.487   1.308   8.518  0.1540  0.1265  0.0144
   98SAPS  H17X 9869   3.386   1.325   8.476  0.5343 -2.1110 -2.0581
   98SAPS  H17Y 9870   3.554   1.325   8.431 -0.2866  0.9157 -0.1750
   98SAPS  C318 9871   3.523   1.405   8.627 -0.3838 -0.9197 -0.5130
   98SAPS  H18X 9872   3.632   1.401   8.648 -0.3660 -0.4692 -0.5116
   98SAPS  H18Y 9873   3.473   1.371   8.720 -1.5134 -0.8443 -1.0800
   98SAPS  H18Z 9874   3.489   1.509   8.610  1.5987 -0.0908  0.2103
   99SAPS     N 9875   0.934   6.654   6.491  0.1774 -0.1928  0.0332
   99SAPS   HN1 9876   0.900   6.598   6.572 -2.3682  4.5402  2.6601
   99SAPS   HN2 9877   1.035   6.674   6.509  0.6690 -1.9901 -0.4516
   99SAPS   HN3 9878   0.878   6.741   6.484  0.7386  0.3684  1.8372
   99SAPS   C12 9879   0.927   6.599   6.347 -0.1847 -0.6241 -0.2113
   99SAPS  H12A 9880   0.828   6.575   6.312 -0.6558 -1.2523  1.4538
   99SAPS   C13 9881   0.973   6.692   6.235 -0.0390 -0.0146 -0.6717
   99SAPS  O13A 9882   1.023   6.806   6.262 -0.1040  0.0771  0.1898
   99SAPS  O13B 9883   0.938   6.665   6.117 -0.0368 -0.0337  0.4170
   99SAPS   C11 9884   1.001   6.462   6.335  0.4061 -0.9628 -0.2223
   99SAPS  H11A 9885   0.975   6.415   6.238  0.2975  0.0109 -0.6810
   99SAPS  H11B 9886   0.960   6.383   6.402  0.8310  0.0460  1.2827
   99SAPS     P 9887   1.233   6.348   6.383 -0.0097  0.2494 -0.0828
   99SAPS   O13 9888   1.196   6.239   6.295 -0.1018 -0.0003 -0.6889
   99SAPS   O14 9889   1.376   6.388   6.375 -0.3415  0.1441  0.5261
   99SAPS   O12 9890   1.140   6.476   6.357 -0.0352 -0.5038  0.0935
   99SAPS   O11 9891   1.205   6.311   6.530  0.2137 -0.2251 -0.1711
   99SAPS    C1 9892   1.214   6.412   6.632  0.8248  0.2121 -0.3623
   99SAPS    HA 9893   1.255   6.508   6.594  0.6301  0.3012 -0.3494
   99SAPS    HB 9894   1.111   6.430   6.669  1.1545  1.7805 -0.1156
   99SAPS    C2 9895   1.302   6.359   6.750  0.0078 -0.0629 -0.0059
   99SAPS    HS 9896   1.391   6.316   6.699 -0.5118 -3.1878  1.4635
   99SAPS   O21 9897   1.232   6.264   6.828 -0.1504  0.5233 -0.4678
   99SAPS   C21 9898   1.300   6.152   6.864 -0.3175  0.1525 -0.0974
   99SAPS   O22 9899   1.412   6.130   6.830  0.2094 -0.4359  0.0446
   99SAPS   C22 9900   1.214   6.058   6.955 -0.3367  0.3209  0.4274
   99SAPS   H2R 9901   1.138   6.123   7.004  1.6806  2.5498  0.7805
   99SAPS   H2S 9902   1.161   5.982   6.894  0.4199 -0.4733  0.7543
   99SAPS    C3 9903   1.337   6.478   6.845 -0.0288  0.0537  0.4114
   99SAPS    HX 9904   1.237   6.503   6.887  0.6302  0.1889  1.9726
   99SAPS    HY 9905   1.375   6.564   6.787  2.1962 -0.9259  0.3168
   99SAPS   O31 9906   1.438   6.437   6.946 -0.4385  0.2251 -0.2984
   99SAPS   C31 9907   1.450   6.525   7.043  0.1508 -0.4641  0.2614
   99SAPS   O32 9908   1.382   6.626   7.060 -0.2858  0.5157 -0.2669
   99SAPS   C32 9909   1.573   6.500   7.123  0.3353 -0.1432 -0.1944
   99SAPS   H2X 9910   1.651   6.530   7.049 -0.3508 -0.8864 -1.2468
   99SAPS   H2Y 9911   1.587   6.397   7.161  1.0580  0.7347  2.1435
   99SAPS   C23 9912   1.300   5.978   7.051 -0.2015  0.2443 -0.1598
   99SAPS   H3R 9913   1.352   5.903   6.988 -0.1270  1.9983 -2.3207
   99SAPS   H3S 9914   1.232   5.919   7.116 -0.6285 -0.3254 -1.1038
   99SAPS   C24 9915   1.400   6.045   7.140  0.3861 -0.8269 -1.5433
   99SAPS   H4R 9916   1.487   6.080   7.081  0.3790  3.4709  0.5430
   99SAPS   H4S 9917   1.447   5.968   7.205  0.9618  0.0212 -0.9362
   99SAPS   C25 9918   1.346   6.159   7.226 -0.5121 -0.9999  0.3579
   99SAPS   H5R 9919   1.359   6.259   7.181  1.9102 -1.1247  0.6683
   99SAPS   C26 9920   1.302   6.151   7.355  0.3148  0.2375 -0.0586
   99SAPS   H6R 9921   1.270   6.240   7.411  2.7503  0.8348  0.5013
   99SAPS   C27 9922   1.280   6.023   7.430 -0.1211 -1.1950 -0.5398
   99SAPS   H7R 9923   1.270   5.938   7.359  1.0778 -1.1161 -0.8268
   99SAPS   H7S 9924   1.196   6.027   7.503  0.3316 -0.6103 -0.0429
   99SAPS   C28 9925   1.408   5.987   7.499  0.1161  0.0239  0.8752
   99SAPS   H8R 9926   1.491   5.972   7.428  0.9411  0.5801  1.7049
   99SAPS   C29 9927   1.437   5.950   7.623 -0.4943  0.3143  0.6849
   99SAPS   H9R 9928   1.537   5.921   7.660  0.3431  0.8179 -1.0416
   99SAPS  C210 9929   1.343   5.938   7.730  0.0252  0.2139 -1.1105
   99SAPS  H10R 9930   1.350   5.843   7.787  1.7195  2.0094  1.9545
   99SAPS  H10S 9931   1.237   5.937   7.696 -1.0943  0.6746  1.9807
   99SAPS  C211 9932   1.373   6.048   7.828  0.2132  0.4239 -0.1118
   99SAPS  H11R 9933   1.315   6.139   7.807 -1.0900  0.0468  1.5990
   99SAPS  C212 9934   1.450   6.053   7.933  0.5434 -0.2035  0.1135
   99SAPS  H12R 9935   1.448   6.146   7.992 -1.7854  1.1453 -1.8948
   99SAPS  C213 9936   1.531   5.938   7.982  0.5879  0.0835 -0.5284
   99SAPS  H13R 9937   1.566   5.865   7.906 -2.0582  0.8540 -2.6266
   99SAPS  H13S 9938   1.464   5.888   8.056  0.2308  0.8524 -0.3214
   99SAPS  C214 9939   1.656   5.989   8.045  0.4598  0.3168  0.1155
   99SAPS  H14R 9940   1.729   6.012   7.966 -1.5360  0.6688 -1.7280
   99SAPS  C215 9941   1.681   5.988   8.176  0.0175 -0.0977 -0.5546
   99SAPS  H15R 9942   1.777   6.030   8.211  1.1353 -2.5804 -0.4496
   99SAPS  C216 9943   1.592   5.937   8.277 -0.3320 -0.1426  0.3941
   99SAPS  H16R 9944   1.582   5.827   8.261 -0.8608 -0.1882  1.0217
   99SAPS  H16S 9945   1.496   5.993   8.272  0.4598  1.1924 -3.9895
   99SAPS  C217 9946   1.671   5.949   8.416  0.4819  0.3817  0.4881
   99SAPS  H17R 9947   1.769   5.897   8.405  0.8059  1.0854 -0.0994
   99SAPS  H17S 9948   1.603   5.904   8.491 -0.3944 -1.9640 -1.5620
   99SAPS  C218 9949   1.693   6.097   8.461  0.2819  0.1023 -0.2504
   99SAPS  H18R 9950   1.594   6.136   8.493  0.0917  0.6854 -1.5192
   99SAPS  H18S 9951   1.727   6.150   8.370  0.1909  0.0737 -0.3007
   99SAPS  C219 9952   1.795   6.109   8.569 -0.7910 -0.8909 -0.6624
   99SAPS  H19R 9953   1.765   6.038   8.649 -0.9398  0.3154  0.3830
   99SAPS  H19S 9954   1.803   6.214   8.605  0.2734 -0.4553 -2.0864
   99SAPS  C220 9955   1.942   6.054   8.546  0.5006 -0.1132 -0.2829
   99SAPS  H20R 9956   1.941   5.943   8.545  0.1193 -0.1118 -1.8048
   99SAPS  H20S 9957   2.002   6.076   8.637 -0.0738 -0.1750  0.1217
   99SAPS  H20T 9958   1.983   6.103   8.455 -1.9952  0.9009 -0.9673
   99SAPS   C33 9959   1.580   6.595   7.248  0.1044  0.2488  0.2452
   99SAPS   H3X 9960   1.576   6.704   7.226  3.7311  1.0992  2.8101
   99SAPS   H3Y 9961   1.684   6.586   7.285 -0.0089  0.0917  0.5347
   99SAPS   C34 9962   1.478   6.569   7.359  0.2911 -0.3049 -0.0563
   99SAPS   H4X 9963   1.473   6.461   7.384  0.6521 -0.0877  1.0074
   99SAPS   H4Y 9964   1.376   6.598   7.328 -0.1032 -0.9936  0.5710
   99SAPS   C35 9965   1.505   6.650   7.489  0.3142 -0.7014  0.3822
   99SAPS   H5X 9966   1.408   6.663   7.541  1.1257  2.5183  1.3730
   99SAPS   H5Y 9967   1.537   6.755   7.470 -0.5540 -0.1276  1.9268
   99SAPS   C36 9968   1.603   6.585   7.593  0.3562  0.2810  0.4176
   99SAPS   H6X 9969   1.610   6.650   7.682  2.0995  1.2723 -0.3844
   99SAPS   H6Y 9970   1.703   6.565   7.547  0.1323  1.3183 -0.5692
   99SAPS   C37 9971   1.539   6.453   7.636 -0.3586 -0.1953  0.1749
   99SAPS   H7X 9972   1.517   6.386   7.550  1.1293 -0.0095 -0.3775
   99SAPS   H7Y 9973   1.437   6.467   7.678 -1.1217 -2.9556 -0.5856
   99SAPS   C38 9974   1.615   6.365   7.733  0.3647  0.4643 -0.0741
   99SAPS   H8X 9975   1.716   6.343   7.693 -0.3979 -0.2010 -1.7313
   99SAPS   H8Y 9976   1.555   6.273   7.751  1.2132  0.1804  1.4483
   99SAPS   C39 9977   1.637   6.443   7.868  0.4539  0.3074 -0.3367
   99SAPS   H9X 9978   1.543   6.439   7.927  1.3418 -1.5044  1.0817
   99SAPS   H9Y 9979   1.657   6.551   7.853  0.8190  0.2528 -0.2406
   99SAPS  C310 9980   1.732   6.378   7.961  0.2281 -0.0709 -0.2333
   99SAPS  H10X 9981   1.826   6.353   7.907 -0.6605 -1.0530 -1.3629
   99SAPS  H10Y 9982   1.691   6.284   8.002  1.7422 -0.9384 -0.6425
   99SAPS  C311 9983   1.755   6.480   8.078  0.2258  0.1921 -0.0788
   99SAPS  H11X 9984   1.694   6.572   8.073 -0.0536  0.0837  0.9877
   99SAPS  H11Y 9985   1.860   6.507   8.051  0.7224 -1.2729  0.2869
   99SAPS  C312 9986   1.745   6.432   8.223  0.4055 -0.3726  0.5147
   99SAPS  H12X 9987   1.793   6.335   8.244  1.8580 -0.1342 -1.3592
   99SAPS  H12Y 9988   1.636   6.408   8.225  0.4123 -0.4231  0.2966
   99SAPS  C313 9989   1.797   6.533   8.317  1.0352 -0.0955  0.1095
   99SAPS  H13X 9990   1.769   6.633   8.278 -4.1879 -1.0248  0.7522
   99SAPS  H13Y 9991   1.906   6.521   8.302  0.7044 -0.2249 -2.8024
   99SAPS  C314 9992   1.751   6.509   8.462  0.2067 -0.4456  0.2294
   99SAPS  H14X 9993   1.820   6.580   8.513  1.2192 -0.7740 -0.6371
   99SAPS  H14Y 9994   1.763   6.401   8.486 -3.3266 -1.1359 -0.5551
   99SAPS  C315 9995   1.612   6.554   8.500 -1.1194  0.2181 -0.4217
   99SAPS  H15X 9996   1.530   6.489   8.461 -1.4257 -0.6017  1.4463
   99SAPS  H15Y 9997   1.587   6.653   8.456  0.5978  0.6103 -0.5795
   99SAPS  C316 9998   1.592   6.543   8.654  0.7022 -0.0375 -0.4831
   99SAPS  H16X 9999   1.678   6.599   8.697  1.6504  0.0726 -2.3886
   99SAPS  H16Y10000   1.601   6.435   8.678  0.5259 -0.7369 -3.1800
   99SAPS  C31710001   1.455   6.590   8.710 -0.5175 -0.7229  0.4671
   99SAPS  H17X10002   1.436   6.697   8.686  1.3103 -0.6284 -0.7393
   99SAPS  H17Y10003   1.463   6.581   8.820  0.8958  0.1767  0.4576
   99SAPS  C31810004   1.340   6.501   8.662  0.3569 -0.0658 -0.1539
   99SAPS  H18X10005   1.294   6.454   8.751  0.2339  0.4411  0.0564
   99SAPS  H18Y10006   1.388   6.421   8.602  0.8412  0.4970 -0.5290
   99SAPS  H18Z10007   1.260   6.550   8.601  0.7667 -0.2523 -0.8431
  100SAPS     N10008   4.201   6.057   6.043 -0.0790  0.3872 -0.8127
  100SAPS   HN110009   4.119   6.103   5.998 -0.6826  0.4674  0.3275
  100SAPS   HN210010   4.233   6.131   6.109  1.0869  0.5983 -1.5921
  100SAPS   HN310011   4.276   6.019   5.982  0.9488 -0.0408  0.6700
  100SAPS   C1210012   4.154   5.943   6.128 -0.0955  0.7749  0.1291
  100SAPS  H12A10013   4.087   5.882   6.070  3.0138  0.3848 -3.3991
  100SAPS   C1310014   4.273   5.854   6.173 -0.3614 -0.6041  0.0659
  100SAPS  O13A10015   4.389   5.871   6.125 -0.2383  0.3355 -0.2420
  100SAPS  O13B10016   4.244   5.740   6.216 -0.0213 -0.0016 -0.4593
  100SAPS   C1110017   4.087   5.985   6.263  0.1715 -0.0058 -0.5342
  100SAPS  H11A10018   4.157   6.045   6.325  0.0552  0.4838 -0.8730
  100SAPS  H11B10019   4.068   5.894   6.324  0.8728  2.1996  3.3766
  100SAPS     P10020   3.830   6.009   6.260  0.2461  0.4205 -0.2962
  100SAPS   O1310021   3.730   6.113   6.268 -0.1770 -0.5008  0.1397
  100SAPS   O1410022   3.801   5.887   6.171  0.8034 -0.1459 -0.3280
  100SAPS   O1210023   3.976   6.061   6.231 -0.3032 -0.5772 -0.5993
  100SAPS   O1110024   3.841   5.951   6.406  0.2775 -0.3322 -0.2270
  100SAPS    C110025   3.848   6.044   6.510  0.2868 -0.2101  0.7405
  100SAPS    HA10026   3.921   6.127   6.505 -1.7435  1.6596  0.5259
  100SAPS    HB10027   3.746   6.085   6.527 -0.5204 -0.9280 -1.9254
  100SAPS    C210028   3.873   5.966   6.643 -0.0499  0.3436 -0.0277
  100SAPS    HS10029   3.807   5.878   6.640 -0.0733  0.3784 -1.0691
  100SAPS   O2110030   3.845   6.054   6.754 -0.1145 -0.3227 -0.2347
  100SAPS   C2110031   3.710   6.057   6.789 -0.5816 -0.4426 -0.9652
  100SAPS   O2210032   3.620   6.014   6.720  0.4739  0.0050 -0.9012
  100SAPS   C2210033   3.696   6.132   6.924  0.0221 -0.6553 -0.3750
  100SAPS   H2R10034   3.776   6.208   6.935 -0.2875 -0.1998 -1.1342
  100SAPS   H2S10035   3.604   6.195   6.917  0.7112  0.7648  1.9804
  100SAPS    C310036   4.018   5.914   6.640 -0.3097 -0.0501  0.3221
  100SAPS    HX10037   4.074   6.006   6.610 -3.6775  2.8205  2.0902
  100SAPS    HY10038   4.030   5.831   6.568 -0.6672 -0.4220  0.6874
  100SAPS   O3110039   4.064   5.870   6.772 -0.4434 -1.2008 -0.7407
  100SAPS   C3110040   4.196   5.840   6.766  0.6230  0.1985  0.1752
  100SAPS   O3210041   4.270   5.853   6.675  0.4332 -0.3520  0.4551
  100SAPS   C3210042   4.245   5.790   6.905  0.1491 -0.4615  0.0315
  100SAPS   H2X10043   4.198   5.691   6.923 -2.0508  0.2059 -1.5666
  100SAPS   H2Y10044   4.197   5.861   6.976 -0.2724 -0.4573 -0.2571
  100SAPS   C2310045   3.707   6.039   7.046 -0.9600  0.7804  0.2461
  100SAPS   H3R10046   3.814   6.008   7.055 -1.8618 -2.6294  0.7666
  100SAPS   H3S10047   3.665   5.938   7.024 -0.7224  0.9470 -1.0436
  100SAPS   C2410048   3.652   6.104   7.175 -0.1865 -0.2400 -0.2228
  100SAPS   H4R10049   3.685   6.209   7.188 -1.3100  0.1468 -0.3999
  100SAPS   H4S10050   3.696   6.041   7.255  0.1629 -0.2419 -0.4143
  100SAPS   C2510051   3.504   6.082   7.184 -0.0244 -0.3374  0.7067
  100SAPS   H5R10052   3.454   6.145   7.108  1.8150 -0.5963 -0.7765
  100SAPS   C2610053   3.436   5.986   7.246 -0.3722 -0.1046 -0.4839
  100SAPS   H6R10054   3.328   5.971   7.232 -0.6292  0.9757  0.1630
  100SAPS   C2710055   3.495   5.886   7.341 -0.5700 -0.1640 -0.6821
  100SAPS   H7R10056   3.420   5.858   7.417  0.2520 -0.9738 -0.1552
  100SAPS   H7S10057   3.569   5.942   7.403  0.2440 -0.4107 -1.4139
  100SAPS   C2810058   3.555   5.767   7.278  0.0365 -0.2383  0.0963
  100SAPS   H8R10059   3.600   5.785   7.179 -2.6177  1.3699 -0.9108
  100SAPS   C2910060   3.560   5.641   7.329 -0.5730 -0.8046  0.0173
  100SAPS   H9R10061   3.611   5.564   7.268 -1.1336  0.2655 -1.8890
  100SAPS  C21010062   3.505   5.590   7.462  0.1481 -0.6753  0.3879
  100SAPS  H10R10063   3.465   5.676   7.520  1.3319  2.5557 -3.1723
  100SAPS  H10S10064   3.587   5.548   7.525  0.2054  1.2262  1.6676
  100SAPS  C21110065   3.390   5.490   7.432 -0.2164 -0.0733  0.6632
  100SAPS  H11R10066   3.328   5.514   7.344  2.3467  0.0008 -1.2523
  100SAPS  C21210067   3.371   5.371   7.501  0.4283  0.2140  1.0587
  100SAPS  H12R10068   3.296   5.294   7.481  0.3404 -0.1564  2.7279
  100SAPS  C21310069   3.452   5.325   7.617 -0.1348  0.0553  0.1548
  100SAPS  H13R10070   3.535   5.397   7.637 -0.2374  0.2812 -0.2208
  100SAPS  H13S10071   3.506   5.234   7.584 -0.5772 -0.5355  1.0268
  100SAPS  C21410072   3.382   5.304   7.747 -0.2645  0.4394  0.7518
  100SAPS  H14R10073   3.302   5.373   7.778  0.9027  1.3623  1.8276
  100SAPS  C21510074   3.401   5.199   7.827 -0.3477  0.6644 -0.1478
  100SAPS  H15R10075   3.339   5.194   7.918  0.5083  3.3093  0.6715
  100SAPS  C21610076   3.492   5.075   7.797  0.5370 -0.5995  0.3333
  100SAPS  H16R10077   3.536   5.046   7.894  0.4829  1.0742  0.8950
  100SAPS  H16S10078   3.569   5.101   7.721  0.5506  0.7156  0.7750
  100SAPS  C21710079   3.421   4.952   7.741  0.1477  1.2465  0.4215
  100SAPS  H17R10080   3.331   4.921   7.797  1.1122 -3.6578 -0.3135
  100SAPS  H17S10081   3.484   4.862   7.754 -2.8633 -0.9521  0.7735
  100SAPS  C21810082   3.379   4.961   7.592 -0.5866  0.1348  1.0048
  100SAPS  H18R10083   3.469   4.997   7.538  0.2540  0.2714  2.4387
  100SAPS  H18S10084   3.300   5.040   7.597 -0.4589  0.3504 -0.0349
  100SAPS  C21910085   3.340   4.825   7.532 -0.0889  0.3168 -0.4671
  100SAPS  H19R10086   3.251   4.771   7.571 -0.7662  1.7132 -0.0205
  100SAPS  H19S10087   3.425   4.756   7.552 -0.5395 -0.6588 -1.7628
  100SAPS  C22010088   3.315   4.851   7.380 -0.0824  0.3764 -0.0466
  100SAPS  H20R10089   3.309   4.752   7.330  1.3525 -0.4750  1.3728
  100SAPS  H20S10090   3.391   4.922   7.339  0.6275 -0.9222 -1.0480
  100SAPS  H20T10091   3.214   4.890   7.358  0.6085  0.7368 -2.8973
  100SAPS   C3310092   4.400   5.784   6.917 -0.6818 -0.1822  0.6969
  100SAPS   H3X10093   4.432   5.889   6.898 -2.1745  0.0228 -0.8676
  100SAPS   H3Y10094   4.447   5.727   6.834 -0.2964  0.3789  0.5226
  100SAPS   C3410095   4.447   5.744   7.052  0.5512 -0.3011 -0.4145
  100SAPS   H4X10096   4.552   5.710   7.059  0.2207 -1.4004 -0.5989
  100SAPS   H4Y10097   4.403   5.646   7.080  1.6806 -0.5987  0.3711
  100SAPS   C3510098   4.419   5.856   7.170  0.0501 -0.2404 -0.0413
  100SAPS   H5X10099   4.308   5.859   7.169  0.0475 -0.2979  0.0904
  100SAPS   H5Y10100   4.463   5.950   7.132 -1.5254  0.3693 -0.4371
  100SAPS   C3610101   4.475   5.805   7.301 -0.0475 -0.4431 -0.6072
  100SAPS   H6X10102   4.580   5.769   7.298 -0.0060 -0.3072 -0.8555
  100SAPS   H6Y10103   4.413   5.713   7.310  0.8641 -1.0216 -0.0293
  100SAPS   C3710104   4.448   5.915   7.406  0.4243 -0.0352 -0.3796
  100SAPS   H7X10105   4.346   5.951   7.383  0.8900  1.2875 -0.4815
  100SAPS   H7Y10106   4.518   6.000   7.388  0.5714  0.1200  0.8202
  100SAPS   C3810107   4.457   5.861   7.548 -0.6507 -0.6463  0.5887
  100SAPS   H8X10108   4.561   5.831   7.574 -0.3663  0.8524  1.3015
  100SAPS   H8Y10109   4.396   5.768   7.546  0.8194 -1.6544  1.0725
  100SAPS   C3910110   4.411   5.947   7.663  0.0947 -0.4898 -0.4893
  100SAPS   H9X10111   4.314   5.988   7.628  0.5328  0.1196 -1.0157
  100SAPS   H9Y10112   4.482   6.031   7.679 -1.4739  1.1105 -1.5394
  100SAPS  C31010113   4.395   5.878   7.806 -0.6609  0.6419 -0.4651
  100SAPS  H10X10114   4.342   5.781   7.813  2.5685 -1.1406  1.7994
  100SAPS  H10Y10115   4.336   5.949   7.868 -1.3558 -0.9657  0.7750
  100SAPS  C31110116   4.530   5.849   7.877 -0.2161  0.6920 -0.4019
  100SAPS  H11X10117   4.597   5.937   7.875  1.4143 -0.4530  0.8564
  100SAPS  H11Y10118   4.597   5.773   7.833 -1.1883 -1.0934  1.0328
  100SAPS  C31210119   4.497   5.801   8.018 -0.1039 -0.3741 -0.0903
  100SAPS  H12X10120   4.436   5.709   8.012  0.7725 -0.8899 -1.4958
  100SAPS  H12Y10121   4.446   5.880   8.078 -1.4797 -1.8839  0.8118
  100SAPS  C31310122   4.618   5.759   8.098  0.3616  0.3373  0.1189
  100SAPS  H13X10123   4.706   5.817   8.063  0.4657  0.5626  0.7424
  100SAPS  H13Y10124   4.638   5.650   8.101 -1.2747 -0.1604 -3.0732
  100SAPS  C31410125   4.609   5.802   8.241  0.7360 -0.2584  0.3106
  100SAPS  H14X10126   4.595   5.909   8.265 -1.2187 -0.7472  1.5919
  100SAPS  H14Y10127   4.703   5.771   8.292  0.5334 -0.0030  0.8428
  100SAPS  C31510128   4.503   5.718   8.314  0.2947 -0.0850 -0.3281
  100SAPS  H15X10129   4.525   5.609   8.308 -1.0880 -0.4408  0.4932
  100SAPS  H15Y10130   4.404   5.739   8.267  1.5824 -0.7248 -3.5369
  100SAPS  C31610131   4.495   5.757   8.462  0.1104  0.0139 -0.4048
  100SAPS  H16X10132   4.451   5.859   8.464  0.3499  0.1132  0.5493
  100SAPS  H16Y10133   4.596   5.760   8.509 -0.5629  0.1116  1.0876
  100SAPS  C31710134   4.412   5.662   8.555  0.0963  0.5224  0.4315
  100SAPS  H17X10135   4.485   5.581   8.576 -0.2832 -0.1721 -0.8112
  100SAPS  H17Y10136   4.329   5.623   8.492 -0.1433  2.0145 -0.2189
  100SAPS  C31810137   4.357   5.730   8.679 -0.1112  0.8103  1.6440
  100SAPS  H18X10138   4.306   5.656   8.745 -0.5539 -0.2614  0.1509
  100SAPS  H18Y10139   4.288   5.809   8.641  0.6066  2.9979  4.5624
  100SAPS  H18Z10140   4.438   5.777   8.738  0.9300  1.6296 -0.3722
  101OSM      N10141   3.364   6.235  10.965  0.1639 -0.2764  0.0923
  101OSM    C1510142   3.451   6.199  11.075 -0.6063  0.0333 -0.1315
  101OSM   H15A10143   3.524   6.276  11.099 -1.4085  0.1768  2.0517
  101OSM   H15B10144   3.500   6.103  11.062 -1.1384 -0.1575 -0.7485
  101OSM   H15C10145   3.395   6.196  11.166  1.6607 -0.1379  1.3471
  101OSM    C1410146   3.434   6.210  10.834  0.6181 -0.0167  1.4411
  101OSM   H14A10147   3.363   6.229  10.755  0.3929 -3.7319  0.5462
  101OSM   H14B10148   3.457   6.105  10.821  2.4359  0.5584 -0.4501
  101OSM   H14C10149   3.519   6.276  10.828 -0.2479  0.9907 -0.8892
  101OSM    C1310150   3.248   6.140  10.956  0.5231 -0.2512 -0.1229
  101OSM   H13A10151   3.276   6.036  10.944 -1.1687 -0.7053 -0.5813
  101OSM   H13B10152   3.185   6.162  10.870 -0.2523  0.1769  0.5408
  101OSM   H13C10153   3.187   6.141  11.045 -1.0582  3.2897 -1.0643
  101OSM    C1210154   3.325   6.383  10.958 -0.6479  0.4459  0.3175
  101OSM   H12A10155   3.279   6.390  10.861 -0.6515 -1.0088  0.1918
  101OSM   H12B10156   3.409   6.451  10.962 -0.3071 -0.0316  2.1365
  101OSM    C1110157   3.224   6.427  11.062 -0.0530 -0.9949 -0.4442
  101OSM   H11A10158   3.223   6.538  11.060 -0.3724 -1.0090 -1.6955
  101OSM   H11B10159   3.257   6.393  11.163  1.4889  0.8156 -0.2905
  101OSM      P10160   2.978   6.464  10.973 -0.0391 -0.2105 -0.0427
  101OSM    O1310161   2.860   6.375  10.953  0.3024  0.2771 -0.4336
  101OSM    O1410162   2.961   6.596  11.035 -0.1483 -0.5246  0.0952
  101OSM    O1110163   3.036   6.497  10.833 -0.3110 -0.2999  0.2011
  101OSM    O1210164   3.093   6.378  11.030  0.1356 -1.1480  0.1784
  101OSM    C1S10165   2.947   6.543  10.727  0.0448 -0.1810 -0.0510
  101OSM    H1S10166   2.881   6.624  10.763  2.1505  1.0862  1.1994
  101OSM    H1T10167   2.889   6.460  10.680 -0.1453  1.0665 -2.1430
  101OSM     NF10168   2.954   6.667  10.517 -0.1709  0.0570  0.1801
  101OSM    HNF10169   2.934   6.622  10.430 -1.5524 -0.6495  0.8337
  101OSM    C2S10170   3.033   6.596  10.609 -0.4178  0.5067 -0.1969
  101OSM    H2S10171   3.112   6.664  10.649  0.2102 -0.9699  1.1991
  101OSM    C3S10172   3.110   6.473  10.549  0.3924  0.0084  0.2699
  101OSM    H3S10173   3.027   6.421  10.497 -0.3422 -0.1898  1.5896
  101OSM     O310174   3.161   6.369  10.631  0.1769 -0.0096 -0.3625
  101OSM    HO310175   3.148   6.393  10.723  1.9580 -3.9258  1.0982
  101OSM    C4S10176   3.208   6.528  10.447 -0.7138  0.5678 -0.2868
  101OSM    H4S10177   3.170   6.552  10.347 -0.1953 -0.2170 -0.6837
  101OSM    C5S10178   3.346   6.547  10.453 -0.1610  0.5604 -0.3745
  101OSM    H5S10179   3.400   6.509  10.541  1.5211  0.2088 -1.5098
  101OSM    C6S10180   3.427   6.594  10.345 -0.1609 -0.3826  0.5311
  101OSM    H6S10181   3.507   6.664  10.378  0.9736 -1.1682 -0.4584
  101OSM    H6T10182   3.366   6.639  10.264 -1.2662 -1.0321  0.9821
  101OSM    C7S10183   3.497   6.473  10.266 -0.2602 -0.4266  0.5508
  101OSM    H7S10184   3.412   6.403  10.253 -1.5609  1.1136  0.4663
  101OSM    H7T10185   3.568   6.437  10.344 -0.4088  0.2599  1.0169
  101OSM    C8S10186   3.576   6.514  10.132  0.2314 -0.2214 -0.3906
  101OSM    H8S10187   3.618   6.420  10.089  0.4969 -0.6606  0.7908
  101OSM    H8T10188   3.663   6.580  10.150  0.9537 -1.7703  2.3546
  101OSM    C9S10189   3.484   6.564  10.019 -0.8560 -0.2358  0.0621
  101OSM    H9S10190   3.447   6.665  10.048 -1.5643  0.7310 -3.7351
  101OSM    H9T10191   3.390   6.507  10.003  0.5579 -2.5769 -0.4223
  101OSM   C10S10192   3.554   6.591   9.889  0.0054  0.4218  0.0168
  101OSM   H10S10193   3.628   6.510   9.875  0.3959  1.1474 -2.6450
  101OSM   H10T10194   3.613   6.686   9.883  0.4542  0.1808  0.4935
  101OSM   C11S10195   3.455   6.587   9.773  0.0852  0.3810 -0.4925
  101OSM   H11S10196   3.365   6.651   9.785  1.0798  1.8996 -0.7875
  101OSM   H11T10197   3.410   6.487   9.759 -0.5322  0.2018  2.2263
  101OSM   C12S10198   3.521   6.620   9.636  0.1068 -0.0133  0.0315
  101OSM   H12S10199   3.620   6.570   9.645 -0.7868 -2.1992 -1.3248
  101OSM   H12T10200   3.536   6.729   9.628 -0.5737  0.2604  1.9611
  101OSM   C13S10201   3.441   6.570   9.517  0.1489  0.3239 -0.2808
  101OSM   H13S10202   3.355   6.637   9.494  0.2734  0.6868  0.2812
  101OSM   H13T10203   3.393   6.475   9.550 -1.6325  1.5188  0.7833
  101OSM   C14S10204   3.529   6.555   9.386  0.3687 -0.6438 -0.4153
  101OSM   H14S10205   3.464   6.493   9.320 -0.7953  0.8391 -0.7199
  101OSM   H14T10206   3.626   6.501   9.398  0.6009  0.0300  0.8353
  101OSM   C15S10207   3.552   6.695   9.319  0.1301 -0.4343 -0.3298
  101OSM   H15S10208   3.649   6.693   9.264  0.8383 -1.2988  0.9014
  101OSM   H15T10209   3.575   6.768   9.399  1.3466 -0.3552 -0.7328
  101OSM   C16S10210   3.446   6.742   9.224  0.3098  0.7498 -0.3013
  101OSM   H16S10211   3.342   6.754   9.261  0.5350  1.8503  0.0092
  101OSM   H16T10212   3.450   6.665   9.144 -0.5150  0.8700 -0.4694
  101OSM   C17S10213   3.492   6.873   9.164 -0.0827 -0.2523 -0.1396
  101OSM   H17S10214   3.467   6.876   9.056 -0.5664  0.8776 -0.0024
  101OSM   H17T10215   3.602   6.882   9.177  0.2862 -3.0824 -0.6091
  101OSM   C18S10216   3.423   6.998   9.219 -0.0687  0.2092 -0.0295
  101OSM   H18S10217   3.461   7.093   9.176  0.9895  0.8900  2.2328
  101OSM   H18T10218   3.430   6.994   9.330  0.1048 -0.2536 -0.0529
  101OSM   H18U10219   3.316   6.989   9.194 -1.0707  0.7825  3.4596
  101OSM    C1F10220   2.897   6.787  10.540  0.1290 -0.5346  0.1634
  101OSM     OF10221   2.918   6.843  10.647  0.0746  0.9568  0.0659
  101OSM    C2F10222   2.809   6.838  10.432 -0.2658  0.4120 -0.2444
  101OSM    H2F10223   2.703   6.815  10.455  0.1842 -0.3938  1.0686
  101OSM    H2G10224   2.833   6.783  10.338 -1.0547  0.7982 -0.6863
  101OSM    C3F10225   2.827   6.990  10.404 -0.1026  0.5166  0.0404
  101OSM    H3F10226   2.933   7.018  10.383 -0.0584 -1.1877 -2.4049
  101OSM    H3G10227   2.801   7.047  10.496  1.5779 -0.6224  1.3027
  101OSM    C4F10228   2.738   7.034  10.290 -0.8442  0.0126 -0.6386
  101OSM    H4F10229   2.759   7.143  10.293 -0.6589 -0.0295  1.6215
  101OSM    H4G10230   2.628   7.028  10.307 -0.4477 -1.9798  1.7493
  101OSM    C5F10231   2.794   6.975  10.159  0.0186 -0.2120  0.2115
  101OSM    H5F10232   2.753   6.873  10.143  1.5404 -1.0661  1.4947
  101OSM    H5G10233   2.903   6.964  10.140 -0.0555 -0.6062 -0.0137
  101OSM    C6F10234   2.734   7.068  10.047 -0.3741 -0.3768  0.7535
  101OSM    H6F10235   2.775   7.027   9.952 -1.8111  0.7548 -0.4064
  101OSM    H6G10236   2.773   7.170  10.065 -1.0602  0.4843 -2.1081
  101OSM    C7F10237   2.586   7.068  10.043  0.2860 -0.2477 -0.6361
  101OSM    H7F10238   2.540   7.103  10.138 -0.7752 -1.9587 -0.4731
  101OSM    H7G10239   2.542   6.966  10.038 -2.1098  0.7125 -0.7783
  101OSM    C8F10240   2.540   7.159   9.934 -0.0631  0.3181  1.5310
  101OSM    H8F10241   2.578   7.139   9.831 -1.2115  0.4612  1.0597
  101OSM    H8G10242   2.568   7.265   9.949 -2.6251  1.6296 -1.7393
  101OSM    C9F10243   2.382   7.150   9.936  0.1036 -0.6562 -0.3584
  101OSM    H9F10244   2.346   7.180  10.036 -0.0026 -1.2115 -0.2283
  101OSM   C10F10245   2.293   7.129   9.836 -0.3475 -0.3645 -0.3837
  101OSM   H10F10246   2.189   7.148   9.865 -0.4198  0.3933 -1.0971
  101OSM   C11F10247   2.318   7.106   9.687  0.1697 -0.5108  0.0349
  101OSM   H11F10248   2.262   7.014   9.660 -1.6317  0.0437  1.6673
  101OSM   H11G10249   2.427   7.102   9.664  0.5581 -1.1775  1.7952
  101OSM   C12F10250   2.258   7.216   9.600  1.1099 -0.2014  0.2512
  101OSM   H12F10251   2.150   7.234   9.621  1.1281 -0.1584  0.3063
  101OSM   H12G10252   2.263   7.165   9.501  0.7335 -1.6345  0.9471
  101OSM   C13F10253   2.333   7.346   9.606  0.2975  0.1821  0.4643
  101OSM   H13F10254   2.443   7.329   9.604  0.2649 -0.2492 -2.9963
  101OSM   H13G10255   2.298   7.399   9.697 -0.8032  1.7872 -0.8614
  101OSM   C14F10256   2.296   7.444   9.497 -0.1397  0.1539  0.1539
  101OSM   H14F10257   2.190   7.429   9.466  0.3081  1.1394 -2.0171
  101OSM   H14G10258   2.362   7.443   9.408  0.9418  0.5113  0.9415
  101OSM   C15F10259   2.307   7.593   9.552  0.0444  0.0382 -0.0629
  101OSM   H15F10260   2.238   7.593   9.639  0.5632  1.3689  0.3720
  101OSM   H15G10261   2.268   7.658   9.471  1.5848  1.4802  0.3227
  101OSM   C16F10262   2.444   7.633   9.588 -0.6533 -0.2334  0.2468
  101OSM   H16F10263   2.458   7.737   9.553  0.1748  0.2396  1.8896
  101OSM   H16G10264   2.518   7.568   9.535 -0.4465  0.2778 -0.0975
  101OSM   C17F10265   2.468   7.630   9.744 -0.0958  0.1137 -0.0177
  101OSM   H17F10266   2.439   7.530   9.783  1.2305 -1.2370 -2.2438
  101OSM   H17G10267   2.401   7.705   9.792 -1.8641 -0.5457 -1.3604
  101OSM   C18F10268   2.620   7.651   9.771 -0.0217  0.0767 -0.0891
  101OSM   H18F10269   2.627   7.704   9.868  4.4926 -1.2502  0.5422
  101OSM   H18G10270   2.663   7.706   9.684  2.1971 -2.0700 -0.4631
  101OSM   H18H10271   2.662   7.548   9.773 -1.7352 -0.6408  0.5293
  102OSM      N10272   2.134   5.903  10.782 -0.1751 -0.1402 -0.2919
  102OSM    C1510273   2.130   6.047  10.785 -0.4545  0.4704  0.1377
  102OSM   H15A10274   2.197   6.082  10.862 -0.0717 -0.9863  0.4925
  102OSM   H15B10275   2.030   6.085  10.802 -1.7414 -2.7668  0.4945
  102OSM   H15C10276   2.174   6.084  10.693 -0.9564 -2.3061 -1.3040
  102OSM    C1410277   2.093   5.838  10.908  0.2206  1.2645  0.1622
  102OSM   H14A10278   2.100   5.731  10.898  0.2710  1.3093 -0.2692
  102OSM   H14B10279   1.994   5.862  10.943  0.5631  1.2759  1.1596
  102OSM   H14C10280   2.154   5.863  10.994  2.2334  1.2108 -1.1896
  102OSM    C1310281   2.059   5.845  10.670 -0.0550 -0.2777  0.3344
  102OSM   H13A10282   1.954   5.849  10.691 -0.0934  0.3304  0.0334
  102OSM   H13B10283   2.089   5.741  10.659  0.3591 -0.1300  0.0145
  102OSM   H13C10284   2.084   5.886  10.573  0.6410 -2.0746 -0.3013
  102OSM    C1210285   2.277   5.860  10.774 -0.0496  0.1351  0.3072
  102OSM   H12A10286   2.324   5.896  10.683  0.5717 -2.2261 -0.3843
  102OSM   H12B10287   2.289   5.754  10.757  1.6025  0.0831  1.5303
  102OSM    C1110288   2.367   5.891  10.901 -0.1944 -0.8014  0.7554
  102OSM   H11A10289   2.461   5.838  10.875  1.0431  2.6114 -2.7195
  102OSM   H11B10290   2.328   5.840  10.992  0.5098 -2.2943  0.2396
  102OSM      P10291   2.509   6.108  10.852 -0.0203 -0.2150  0.1839
  102OSM    O1310292   2.515   6.244  10.901 -0.4849 -0.9918  0.2067
  102OSM    O1410293   2.631   6.020  10.879  0.2945 -0.4850 -0.2630
  102OSM    O1110294   2.470   6.103  10.695  0.1552 -0.3436  0.3469
  102OSM    O1210295   2.392   6.031  10.923  0.2251  0.4161  0.3018
  102OSM    C1S10296   2.508   6.217  10.614 -0.4231  0.4182  0.0199
  102OSM    H1S10297   2.618   6.228  10.607 -0.1734  0.7704  3.1330
  102OSM    H1T10298   2.474   6.316  10.651  0.4916  0.6579  0.2271
  102OSM     NF10299   2.528   6.305  10.391 -0.0710  0.2726  0.3428
  102OSM    HNF10300   2.470   6.386  10.387 -0.8323 -0.2942 -0.5450
  102OSM    C2S10301   2.469   6.196  10.461  0.3219  0.6612  0.1416
  102OSM    H2S10302   2.512   6.099  10.429  1.8327  0.6405  2.0895
  102OSM    C3S10303   2.316   6.185  10.439  0.2387 -0.0534 -0.1331
  102OSM    H3S10304   2.266   6.270  10.491 -0.5993 -1.7093  1.9016
  102OSM     O310305   2.254   6.079  10.513  0.1490  0.1280 -0.1139
  102OSM    HO310306   2.316   6.069  10.586 -0.7748  2.4216  1.1020
  102OSM    C4S10307   2.275   6.185  10.289 -0.5451 -0.0068 -0.0971
  102OSM    H4S10308   2.302   6.274  10.231 -0.2647 -0.7843 -1.1876
  102OSM    C5S10309   2.233   6.082  10.220  0.0155 -0.2329  0.3224
  102OSM    H5S10310   2.216   5.981  10.261  0.8809 -1.4857 -2.1918
  102OSM    C6S10311   2.207   6.088  10.067 -0.3452  0.5020 -0.5140
  102OSM    H6S10312   2.098   6.082  10.048 -0.4751 -2.2645  0.6598
  102OSM    H6T10313   2.255   5.994  10.030 -0.8174  0.9400 -2.3252
  102OSM    C7S10314   2.272   6.197   9.986 -0.4203  0.4032 -0.3194
  102OSM    H7S10315   2.372   6.208  10.033 -1.0585 -0.4410  1.3101
  102OSM    H7T10316   2.215   6.290  10.012 -1.1416 -0.4115  1.1769
  102OSM    C8S10317   2.280   6.171   9.838 -0.0282 -0.6222 -0.4660
  102OSM    H8S10318   2.174   6.156   9.807 -0.4934 -0.6365  1.0674
  102OSM    H8T10319   2.324   6.070   9.825 -1.6918 -1.4112 -0.1844
  102OSM    C9S10320   2.372   6.276   9.767  0.3949  0.3560  0.6514
  102OSM    H9S10321   2.474   6.287   9.809  1.0461 -1.3135 -0.4305
  102OSM    H9T10322   2.314   6.368   9.790 -0.0471 -0.0645  1.2774
  102OSM   C10S10323   2.379   6.258   9.617  0.0223 -0.6181  0.1073
  102OSM   H10S10324   2.289   6.304   9.569 -0.9542 -0.3446  2.0816
  102OSM   H10T10325   2.382   6.149   9.595 -1.8272 -0.4268 -1.4206
  102OSM   C11S10326   2.508   6.313   9.562 -0.1856  0.5176  0.5110
  102OSM   H11S10327   2.594   6.257   9.604 -0.1521  1.2643  1.4788
  102OSM   H11T10328   2.530   6.419   9.583  0.1585  0.7796 -1.0749
  102OSM   C12S10329   2.504   6.291   9.414  0.5809 -0.3512  0.3812
  102OSM   H12S10330   2.419   6.350   9.373 -0.1995 -0.4544  1.7944
  102OSM   H12T10331   2.484   6.185   9.386 -1.5568 -0.2571  1.3575
  102OSM   C13S10332   2.630   6.344   9.344 -0.0641 -0.8475  0.2125
  102OSM   H13S10333   2.716   6.275   9.360  1.4490  0.9422  0.2776
  102OSM   H13T10334   2.665   6.436   9.395  0.8351 -1.9131  1.5860
  102OSM   C14S10335   2.620   6.374   9.199 -0.1242 -0.6556  0.8476
  102OSM   H14S10336   2.529   6.437   9.188  0.2056 -0.3313 -0.1875
  102OSM   H14T10337   2.593   6.285   9.138  1.1975  0.4918 -1.5407
  102OSM   C15S10338   2.741   6.454   9.141  0.5060 -0.2168  0.1229
  102OSM   H15S10339   2.831   6.393   9.166 -0.4245 -1.7027 -0.0330
  102OSM   H15T10340   2.760   6.542   9.205 -0.5241 -1.0806  1.6781
  102OSM   C16S10341   2.735   6.497   8.995 -0.2458  0.0552  0.4084
  102OSM   H16S10342   2.742   6.405   8.934  1.2880  0.2408  0.2774
  102OSM   H16T10343   2.826   6.556   8.972 -0.4856  0.0433 -0.6231
  102OSM   C17S10344   2.613   6.594   8.957 -0.7495  0.4300  0.3981
  102OSM   H17S10345   2.619   6.681   9.026 -1.2944  0.2062  0.7370
  102OSM   H17T10346   2.522   6.531   8.970  1.1043 -2.5637 -0.2021
  102OSM   C18S10347   2.641   6.653   8.817  0.2001 -0.0882 -0.3829
  102OSM   H18S10348   2.552   6.712   8.787  0.7478  0.6418 -0.6012
  102OSM   H18T10349   2.650   6.568   8.746  0.4808 -0.5302  0.1763
  102OSM   H18U10350   2.730   6.719   8.815 -0.5514  1.0461  1.3324
  102OSM    C1F10351   2.651   6.298  10.333  0.3164  0.0116  0.2416
  102OSM     OF10352   2.711   6.196  10.358 -0.3838 -0.4370  0.3618
  102OSM    C2F10353   2.695   6.421  10.269 -0.4202 -0.5098 -0.1776
  102OSM    H2F10354   2.792   6.456  10.310 -1.3609 -0.4204  2.0691
  102OSM    H2G10355   2.626   6.504  10.294  1.0659  1.0599 -1.0121
  102OSM    C3F10356   2.718   6.418  10.117  0.2008  0.5749 -0.4810
  102OSM    H3F10357   2.621   6.384  10.074  0.1390  0.6171 -0.3749
  102OSM    H3G10358   2.787   6.337  10.086 -0.6016 -0.0735 -0.6364
  102OSM    C4F10359   2.763   6.551  10.058 -0.1600  0.3618 -0.2551
  102OSM    H4F10360   2.868   6.576  10.084 -0.0005 -0.6359  0.1015
  102OSM    H4G10361   2.714   6.633  10.115  0.0653  0.7210 -0.5698
  102OSM    C5F10362   2.734   6.577   9.907  0.0123  0.0956  0.0793
  102OSM    H5F10363   2.627   6.549   9.891  0.3265 -1.2250  0.2022
  102OSM    H5G10364   2.794   6.508   9.844  2.0448  1.4197  0.4676
  102OSM    C6F10365   2.766   6.721   9.876  0.6556  0.4066  0.9941
  102OSM    H6F10366   2.863   6.749   9.922  2.2157 -3.4189  0.3544
  102OSM    H6G10367   2.681   6.778   9.920  1.4244  1.7331  0.8115
  102OSM    C7F10368   2.786   6.740   9.723 -0.3607  0.2947 -0.3112
  102OSM    H7F10369   2.881   6.689   9.697 -0.7286 -0.2349 -0.6258
  102OSM    H7G10370   2.804   6.849   9.714 -0.0668  0.1738 -1.3115
  102OSM    C8F10371   2.660   6.705   9.640 -0.7936 -0.3532  0.4640
  102OSM    H8F10372   2.573   6.749   9.692  0.1105  1.7691  0.2936
  102OSM    H8G10373   2.645   6.595   9.649  1.9085 -0.9423 -1.0631
  102OSM    C9F10374   2.680   6.742   9.495  0.5371 -0.0545  1.1108
  102OSM    H9F10375   2.782   6.766   9.464  0.4178 -1.0120 -0.0770
  102OSM   C10F10376   2.578   6.744   9.399  0.2813 -0.3599  0.1404
  102OSM   H10F10377   2.601   6.763   9.294 -1.1378 -0.2521 -0.1701
  102OSM   C11F10378   2.431   6.716   9.424  0.8934  0.0680  0.4582
  102OSM   H11F10379   2.418   6.701   9.533  0.5116  1.2348  0.5830
  102OSM   H11G10380   2.403   6.620   9.375 -3.1772  0.8458  0.9334
  102OSM   C12F10381   2.371   6.831   9.345  1.2365 -0.2128  1.1531
  102OSM   H12F10382   2.422   6.930   9.349  0.1768  0.4830 -1.0301
  102OSM   H12G10383   2.273   6.853   9.393  1.3245 -1.3712  1.8872
  102OSM   C13F10384   2.341   6.794   9.197 -0.0168 -0.0378 -0.5901
  102OSM   H13F10385   2.310   6.689   9.182 -1.4634 -0.0484  1.8625
  102OSM   H13G10386   2.429   6.816   9.133 -0.9434  2.8102 -1.0384
  102OSM   C14F10387   2.229   6.876   9.135 -0.0615  0.2726  0.2353
  102OSM   H14F10388   2.233   6.984   9.161 -2.6555  0.1769  1.2781
  102OSM   H14G10389   2.134   6.829   9.167 -0.4333  0.1978 -0.9289
  102OSM   C15F10390   2.224   6.859   8.984  0.1895  0.0568 -0.7613
  102OSM   H15F10391   2.237   6.753   8.952 -1.6440  0.1003 -1.7902
  102OSM   H15G10392   2.301   6.920   8.934  2.3834 -1.4013  0.6208
  102OSM   C16F10393   2.084   6.905   8.936  0.3052 -0.2569  0.5226
  102OSM   H16F10394   2.054   7.001   8.982 -2.1248 -1.6730  2.1364
  102OSM   H16G10395   2.004   6.832   8.960  0.6353 -1.6606 -2.2104
  102OSM   C17F10396   2.054   6.897   8.783  0.4936 -0.1481 -0.3502
  102OSM   H17F10397   1.944   6.891   8.769  0.5214  0.6653 -0.9276
  102OSM   H17G10398   2.104   6.803   8.751  1.1865 -0.2210  0.8618
  102OSM   C18F10399   2.100   7.016   8.698  0.4452 -0.1096 -0.8189
  102OSM   H18F10400   2.056   7.113   8.731  0.7927 -0.7036  1.6243
  102OSM   H18G10401   2.080   7.003   8.590 -1.1675  0.5829 -0.6301
  102OSM   H18H10402   2.209   7.026   8.717 -0.2214  1.0723  3.7457
  103OSM      N10403   4.058   3.411  11.332  0.5913 -0.6542  0.1212
  103OSM    C1510404   3.934   3.497  11.342  0.7768 -0.0163  0.7115
  103OSM   H15A10405   3.970   3.595  11.366  0.3706 -0.3367  2.8568
  103OSM   H15B10406   3.891   3.466  11.437  2.0080 -1.5974  0.8091
  103OSM   H15C10407   3.865   3.500  11.259  0.1307 -1.7163  1.1296
  103OSM    C1410408   4.133   3.460  11.212  0.6664  0.4893  0.3024
  103OSM   H14A10409   4.147   3.567  11.201  0.7068  0.4406 -0.1479
  103OSM   H14B10410   4.075   3.426  11.128  0.9504  2.4112 -0.7386
  103OSM   H14C10411   4.229   3.411  11.206  0.7263  0.7131 -0.8868
  103OSM    C1310412   4.129   3.425  11.458 -0.1746 -0.1043 -0.3959
  103OSM   H13A10413   4.154   3.530  11.468 -2.4298  0.5297 -0.7194
  103OSM   H13B10414   4.222   3.372  11.458 -0.1228 -0.0139 -0.2939
  103OSM   H13C10415   4.073   3.408  11.548  1.0677  1.9420  0.8305
  103OSM    C1210416   4.018   3.265  11.303  0.8859  0.3830 -0.2263
  103OSM   H12A10417   3.956   3.234  11.386 -0.6116  0.4528 -1.2810
  103OSM   H12B10418   4.105   3.202  11.305  1.8611  1.6611 -0.6805
  103OSM    C1110419   3.937   3.242  11.172  0.4074 -0.4762 -0.5585
  103OSM   H11A10420   3.862   3.323  11.163  0.9225  0.4600  2.4908
  103OSM   H11B10421   3.873   3.152  11.179  0.1193 -0.3771 -1.6468
  103OSM      P10422   4.112   3.118  11.034  0.0349 -0.0027  0.1447
  103OSM    O1310423   4.220   3.148  10.941  0.1028  0.4288 -0.2123
  103OSM    O1410424   4.158   3.064  11.165  0.4595  0.7318  0.1858
  103OSM    O1110425   4.028   3.008  10.961  0.0858 -0.0978  0.5762
  103OSM    O1210426   4.023   3.242  11.053  0.2797 -0.5455  0.5309
  103OSM    C1S10427   3.998   3.026  10.819  0.7519  0.9091 -0.0176
  103OSM    H1S10428   4.042   3.116  10.773  1.5455  0.9958  0.8781
  103OSM    H1T10429   3.886   3.028  10.819  0.6962 -0.7195 -0.2929
  103OSM     NF10430   4.000   2.916  10.601 -1.4730  0.3888  0.6664
  103OSM    HNF10431   3.919   2.874  10.561 -0.2405 -1.9122  0.4026
  103OSM    C2S10432   4.043   2.899  10.739 -0.1504 -0.2150 -0.1160
  103OSM    H2S10433   4.153   2.885  10.746 -0.0864  0.8599  1.5680
  103OSM    C3S10434   3.983   2.772  10.810 -0.4905  0.2407 -0.2339
  103OSM    H3S10435   3.875   2.795  10.818 -0.3755  1.0327 -0.8421
  103OSM     O310436   4.022   2.747  10.952 -0.3248 -0.9317  0.1517
  103OSM    HO310437   4.069   2.828  10.975 -3.7865  0.6547  2.4432
  103OSM    C4S10438   4.006   2.644  10.738 -0.4673  0.6831  0.1342
  103OSM    H4S10439   4.113   2.621  10.731 -0.5287  0.6644 -0.9482
  103OSM    C5S10440   3.907   2.563  10.687  0.3153 -0.2114 -0.4952
  103OSM    H5S10441   3.804   2.599  10.701 -0.4044 -1.4161 -2.2519
  103OSM    C6S10442   3.925   2.437  10.611  0.5228  0.6373 -0.6138
  103OSM    H6S10443   3.867   2.357  10.660 -1.7412  2.1337 -0.7205
  103OSM    H6T10444   4.032   2.409  10.627  0.1286  0.1956  1.4747
  103OSM    C7S10445   3.877   2.447  10.466 -0.2906 -0.2400 -0.1882
  103OSM    H7S10446   3.767   2.460  10.456 -0.2960 -0.6966 -0.7366
  103OSM    H7T10447   3.904   2.349  10.422  0.0209  0.7592 -2.3418
  103OSM    C8S10448   3.941   2.552  10.373 -0.3397  0.4320 -0.4084
  103OSM    H8S10449   4.044   2.512  10.360 -0.5092 -1.2440  2.4974
  103OSM    H8T10450   3.957   2.655  10.413  0.9424  0.3204 -0.5873
  103OSM    C9S10451   3.862   2.565  10.241 -0.6410 -0.1860 -0.4480
  103OSM    H9S10452   3.758   2.592  10.270 -0.6716  0.9838 -1.5564
  103OSM    H9T10453   3.856   2.464  10.194  1.1018  0.8337 -3.0814
  103OSM   C10S10454   3.917   2.676  10.153 -0.5566 -0.3542 -0.0824
  103OSM   H10S10455   4.028   2.665  10.155 -0.4774  0.4016 -0.0582
  103OSM   H10T10456   3.904   2.765  10.218 -0.2634 -1.3571  1.4150
  103OSM   C11S10457   3.852   2.691  10.016 -0.1388  0.8316 -0.3094
  103OSM   H11S10458   3.876   2.786   9.964  0.1555  0.4135 -0.9604
  103OSM   H11T10459   3.744   2.691  10.039 -0.1399  1.3172 -0.3233
  103OSM   C12S10460   3.890   2.570   9.925 -0.5468 -0.2544 -0.2417
  103OSM   H12S10461   3.846   2.477   9.968  0.0261 -0.3776  0.0867
  103OSM   H12T10462   4.001   2.570   9.930 -0.5747 -1.6748  1.4109
  103OSM   C13S10463   3.851   2.592   9.779 -0.1226  0.3421 -0.2401
  103OSM   H13S10464   3.886   2.693   9.748  0.1826  0.1170 -0.6418
  103OSM   H13T10465   3.741   2.583   9.782 -0.0432 -1.0217 -0.8028
  103OSM   C14S10466   3.918   2.481   9.691  0.1767 -0.0172 -0.0002
  103OSM   H14S10467   3.892   2.383   9.738 -1.0568  0.4587  0.3311
  103OSM   H14T10468   4.028   2.495   9.704 -0.0325 -0.0310  2.1588
  103OSM   C15S10469   3.880   2.473   9.546 -0.6235  0.1799  0.4826
  103OSM   H15S10470   3.915   2.559   9.485  0.2998 -0.9769 -0.6877
  103OSM   H15T10471   3.769   2.466   9.548 -0.7702  2.0835  1.9624
  103OSM   C16S10472   3.929   2.346   9.475  0.1191  0.6493  0.9554
  103OSM   H16S10473   3.890   2.267   9.542  0.7641 -0.4059  0.1306
  103OSM   H16T10474   4.040   2.342   9.481  0.0295 -0.7499  2.1161
  103OSM   C17S10475   3.872   2.326   9.329  0.5713  0.3969  0.2672
  103OSM   H17S10476   3.783   2.391   9.328  1.4537  1.6367  0.4840
  103OSM   H17T10477   3.841   2.222   9.302 -1.2833  0.7430  0.9329
  103OSM   C18S10478   3.975   2.372   9.226  0.0403  0.0219  0.9743
  103OSM   H18S10479   4.072   2.318   9.226  0.4321  0.5296 -2.0144
  103OSM   H18T10480   4.000   2.477   9.254 -3.8913  1.7535 -1.1229
  103OSM   H18U10481   3.932   2.367   9.124 -0.5662  2.6132  1.0388
  103OSM    C1F10482   4.073   2.986  10.519 -0.3771  0.2355  0.0700
  103OSM     OF10483   4.171   3.043  10.553 -0.6174  0.5575  0.0494
  103OSM    C2F10484   4.018   2.984  10.379 -0.2088  1.0068 -0.0411
  103OSM    H2F10485   3.920   2.933  10.369  0.4443 -0.4045  0.3765
  103OSM    H2G10486   4.089   2.923  10.319 -2.5444  1.0490 -3.0199
  103OSM    C3F10487   3.997   3.129  10.326 -0.0741  0.1666  0.1813
  103OSM    H3F10488   4.091   3.187  10.331  0.1798 -0.2269  0.0301
  103OSM    H3G10489   3.921   3.171  10.396  1.9868 -1.9634  4.0238
  103OSM    C4F10490   3.940   3.141  10.181 -0.0950 -0.1496  0.1931
  103OSM    H4F10491   3.938   3.250  10.158 -0.3237 -0.1489  0.2084
  103OSM    H4G10492   3.838   3.098  10.170  0.2757 -0.8703 -0.4774
  103OSM    C5F10493   4.037   3.071  10.076  0.0332 -0.0361 -0.0771
  103OSM    H5F10494   4.036   2.962  10.096  0.8982  0.1469  1.0510
  103OSM    H5G10495   4.141   3.104  10.097  0.1287 -0.6072  0.3600
  103OSM    C6F10496   3.993   3.076   9.926  0.4655  0.1656  0.0586
  103OSM    H6F10497   3.914   3.002   9.901  0.1025  0.6494 -0.2641
  103OSM    H6G10498   4.084   3.036   9.878 -0.6961 -0.3678 -1.8174
  103OSM    C7F10499   3.951   3.214   9.867 -0.0394 -1.5180 -0.0995
  103OSM    H7F10500   3.888   3.272   9.937  0.7698 -1.4371  0.5723
  103OSM    H7G10501   3.886   3.190   9.779  0.9902  2.2894 -2.1002
  103OSM    C8F10502   4.074   3.285   9.821 -1.3163 -0.4704  0.1571
  103OSM    H8F10503   4.121   3.231   9.736 -0.5515 -0.9565  0.8742
  103OSM    H8G10504   4.143   3.284   9.908 -3.1244 -0.5727  1.6338
  103OSM    C9F10505   4.017   3.425   9.771 -0.2539  0.6604 -0.0980
  103OSM    H9F10506   3.977   3.485   9.854  1.8209 -0.8660  2.1409
  103OSM   C10F10507   4.030   3.463   9.644  0.2095 -0.1004  1.0598
  103OSM   H10F10508   3.999   3.565   9.620  0.5813 -0.6135 -1.9817
  103OSM   C11F10509   4.070   3.379   9.527  0.4343  0.4622  0.4627
  103OSM   H11F10510   4.060   3.270   9.549  0.2440  0.5298  0.7167
  103OSM   H11G10511   4.175   3.414   9.514 -0.9288  3.9857 -2.6631
  103OSM   C12F10512   3.981   3.415   9.405  0.2317 -0.2720 -0.3984
  103OSM   H12F10513   3.978   3.526   9.402 -2.2117 -0.3156 -1.7308
  103OSM   H12G10514   3.876   3.383   9.421  0.4019 -0.2499  0.8880
  103OSM   C13F10515   4.039   3.364   9.271  0.0643  0.4440  0.0208
  103OSM   H13F10516   3.983   3.407   9.185 -1.7599 -1.5991  0.0994
  103OSM   H13G10517   4.143   3.403   9.265 -0.0047  1.1482  2.3450
  103OSM   C14F10518   4.035   3.216   9.261 -0.0514  0.4675  1.1146
  103OSM   H14F10519   3.943   3.169   9.303 -0.7375  1.9805  1.3805
  103OSM   H14G10520   4.120   3.178   9.321  0.2660  1.4831  1.3378
  103OSM   C15F10521   4.050   3.163   9.110 -0.1461 -0.3933 -0.7681
  103OSM   H15F10522   4.092   3.060   9.117  3.1937  0.6686 -2.7943
  103OSM   H15G10523   4.137   3.214   9.063 -0.1479  0.7849  0.4610
  103OSM   C16F10524   3.927   3.181   9.035  0.6379  0.1123  0.9772
  103OSM   H16F10525   3.882   3.283   9.042  0.0190  0.0600 -1.3004
  103OSM   H16G10526   3.865   3.101   9.081  2.8181 -1.3579  1.4631
  103OSM   C17F10527   3.931   3.155   8.878  0.1562  0.1455  0.1289
  103OSM   H17F10528   3.941   3.047   8.859 -0.7598  0.3789 -1.8923
  103OSM   H17G10529   4.021   3.203   8.835 -0.1360 -0.0718 -0.7341
  103OSM   C18F10530   3.803   3.199   8.807 -0.3079  0.0430 -0.1957
  103OSM   H18F10531   3.718   3.183   8.876  1.1944 -0.5752  1.6057
  103OSM   H18G10532   3.781   3.134   8.720 -1.4334  2.1743 -1.5832
  103OSM   H18H10533   3.802   3.308   8.785  2.3256  0.5948  1.8359
  104OSM      N10534   0.463   3.118  11.346 -0.0148  0.2143  0.8008
  104OSM    C1510535   0.444   2.973  11.372 -0.1618 -0.1791 -0.8698
  104OSM   H15A10536   0.481   2.910  11.292  1.3386 -0.4227 -0.0125
  104OSM   H15B10537   0.340   2.953  11.393 -0.3246 -0.5042 -1.9173
  104OSM   H15C10538   0.490   2.934  11.461 -1.9554 -3.4000 -1.2220
  104OSM    C1410539   0.429   3.197  11.468 -0.3819  0.6114  0.3328
  104OSM   H14A10540   0.362   3.139  11.529 -0.4592  1.7788  1.4156
  104OSM   H14B10541   0.379   3.289  11.441  0.3923  1.3527  1.3195
  104OSM   H14C10542   0.519   3.215  11.526  2.1305 -1.9835 -2.4293
  104OSM    C1310543   0.610   3.138  11.304 -0.1842 -0.6013  0.6104
  104OSM   H13A10544   0.627   3.119  11.200  2.2773  0.9347  0.6648
  104OSM   H13B10545   0.684   3.079  11.356 -0.5892 -0.1226  1.7833
  104OSM   H13C10546   0.643   3.240  11.321 -1.7390  0.0984 -0.3192
  104OSM    C1210547   0.375   3.153  11.222  0.0730  0.1349 -0.5302
  104OSM   H12A10548   0.377   3.260  11.208 -0.4737  0.0547 -1.2507
  104OSM   H12B10549   0.273   3.142  11.253 -0.1020 -0.5281 -1.3247
  104OSM    C1110550   0.389   3.060  11.100  0.2614 -0.7725 -0.2069
  104OSM   H11A10551   0.299   3.077  11.037  0.3524 -0.9550 -0.3905
  104OSM   H11B10552   0.387   2.954  11.135  0.1134 -0.4027  0.9272
  104OSM      P10553   0.613   3.006  10.965 -0.1694  0.0230 -0.1723
  104OSM    O1310554   0.691   3.096  10.875  0.2016 -0.4857  0.1908
  104OSM    O1410555   0.684   2.932  11.070  0.0393  0.2148 -0.3594
  104OSM    O1110556   0.517   2.901  10.890 -0.5895  0.4098 -0.0105
  104OSM    O1210557   0.503   3.099  11.027  0.2139  0.5288  0.3266
  104OSM    C1S10558   0.436   2.945  10.773 -0.2599  0.2261 -0.6703
  104OSM    H1S10559   0.494   2.954  10.679  1.0074  0.6337  0.1153
  104OSM    H1T10560   0.376   3.038  10.787 -0.7667 -0.2722  0.6709
  104OSM     NF10561   0.271   2.883  10.610  0.0604 -0.9001 -0.1356
  104OSM    HNF10562   0.183   2.930  10.612 -0.1140 -1.2394  0.9483
  104OSM    C2S10563   0.334   2.848  10.738  0.3292  0.1943 -0.4603
  104OSM    H2S10564   0.388   2.752  10.723  1.2029  0.8223 -1.4844
  104OSM    C3S10565   0.234   2.819  10.860  0.1806 -0.0422  0.2173
  104OSM    H3S10566   0.191   2.918  10.887  2.3659  0.9417  0.3855
  104OSM     O310567   0.300   2.782  10.978  0.4022  0.5771  0.1457
  104OSM    HO310568   0.394   2.788  10.958  0.7979  0.0660  1.7225
  104OSM    C4S10569   0.132   2.705  10.832  0.2308 -0.1364  0.4576
  104OSM    H4S10570   0.034   2.742  10.799  0.6141  1.1018  0.6527
  104OSM    C5S10571   0.141   2.574  10.854 -0.0173 -0.1029 -0.8305
  104OSM    H5S10572   0.231   2.526  10.896 -1.2604  0.6907  3.1542
  104OSM    C6S10573   0.034   2.488  10.810 -0.2119  0.2241 -0.0380
  104OSM    H6S10574  -0.063   2.539  10.795 -1.2011 -0.8637  2.2933
  104OSM    H6T10575   0.017   2.408  10.884 -1.1597  1.7959  1.5211
  104OSM    C7S10576   0.067   2.429  10.669  1.0801  0.0485  0.6085
  104OSM    H7S10577  -0.006   2.350  10.643  0.5579  0.1071  1.8287
  104OSM    H7T10578   0.161   2.370  10.672  1.1012  0.0964  0.9818
  104OSM    C8S10579   0.075   2.541  10.560 -0.2925 -0.3386 -0.6167
  104OSM    H8S10580   0.162   2.605  10.583  0.4683 -0.7713 -2.1893
  104OSM    H8T10581  -0.018   2.602  10.567 -0.4246 -0.2284 -2.6333
  104OSM    C9S10582   0.098   2.476  10.421  0.0023  1.0698  0.6152
  104OSM    H9S10583   0.052   2.375  10.418  2.6097 -0.1942  0.6186
  104OSM    H9T10584   0.207   2.459  10.405 -0.4782 -0.3679 -1.6663
  104OSM   C10S10585   0.025   2.564  10.304  0.0053  0.6046 -0.1214
  104OSM   H10S10586   0.062   2.668  10.306 -0.6670  0.9692 -2.7576
  104OSM   H10T10587  -0.077   2.568  10.348 -0.2700 -0.3285 -0.6234
  104OSM   C11S10588   0.032   2.491  10.173  0.3265  0.1325  0.1399
  104OSM   H11S10589  -0.024   2.396  10.183 -1.7216  1.4817  2.6615
  104OSM   H11T10590   0.137   2.466  10.147 -0.0498 -0.5257 -0.7988
  104OSM   C12S10591  -0.056   2.557  10.072  0.4946 -0.0437 -0.0206
  104OSM   H12S10592  -0.000   2.648  10.044 -1.4192  0.9903 -0.6140
  104OSM   H12T10593  -0.159   2.573  10.111  0.5538  1.0158 -0.2935
  104OSM   C13S10594  -0.069   2.475   9.937  1.1777 -0.3142 -0.1055
  104OSM   H13S10595  -0.163   2.416   9.925 -0.8596  2.5964  0.5315
  104OSM   H13T10596   0.008   2.395   9.936 -0.2315 -1.7615  0.8064
  104OSM   C14S10597  -0.059   2.568   9.816 -0.4505  0.1543 -0.3951
  104OSM   H14S10598   0.039   2.619   9.825 -0.1596 -0.0747 -1.9962
  104OSM   H14T10599  -0.136   2.649   9.817 -2.4328 -1.6623  0.5183
  104OSM   C15S10600  -0.087   2.499   9.684  0.0721  0.3341  0.5887
  104OSM   H15S10601  -0.159   2.417   9.705  0.9238 -0.3187  1.0243
  104OSM   H15T10602   0.013   2.461   9.654 -1.0592 -1.0408 -1.6299
  104OSM   C16S10603  -0.143   2.589   9.574 -0.3884  0.2455  0.6094
  104OSM   H16S10604  -0.080   2.676   9.543  0.0124 -0.8739 -1.8896
  104OSM   H16T10605  -0.243   2.632   9.594 -2.0934 -1.2105 -3.7695
  104OSM   C17S10606  -0.151   2.516   9.441 -0.1711  0.2752  0.0150
  104OSM   H17S10607  -0.211   2.568   9.364  1.3196 -1.9078 -2.7839
  104OSM   H17T10608  -0.201   2.418   9.456  0.0515  0.2253  0.4564
  104OSM   C18S10609  -0.015   2.490   9.376 -0.4339 -0.1062 -0.4502
  104OSM   H18S10610  -0.019   2.476   9.266  3.7483 -0.0039 -0.8031
  104OSM   H18T10611   0.046   2.411   9.424  1.3557  1.2884 -0.2945
  104OSM   H18U10612   0.051   2.579   9.392 -0.9482  0.2304 -0.1883
  104OSM    C1F10613   0.324   2.869  10.488  0.2727  0.0613  0.1451
  104OSM     OF10614   0.436   2.820  10.481 -0.3536 -0.2767 -0.2566
  104OSM    C2F10615   0.238   2.902  10.372 -0.4403 -0.2419 -0.0889
  104OSM    H2F10616   0.213   3.011  10.374 -0.5546 -0.2752  1.1251
  104OSM    H2G10617   0.145   2.847  10.397 -1.8094  1.7645 -0.5637
  104OSM    C3F10618   0.306   2.868  10.239 -0.0922  0.2282  0.1484
  104OSM    H3F10619   0.345   2.765  10.230 -2.1996 -0.5582 -0.6426
  104OSM    H3G10620   0.388   2.942  10.229  1.1306 -0.9781  1.0547
  104OSM    C4F10621   0.207   2.890  10.126  0.3250  0.1098 -0.1074
  104OSM    H4F10622   0.149   2.985  10.134 -2.3682 -1.5058  0.6991
  104OSM    H4G10623   0.128   2.813  10.122  0.0679  0.3749 -0.1333
  104OSM    C5F10624   0.284   2.887   9.985  0.2452 -0.1688 -0.0228
  104OSM    H5F10625   0.334   2.789   9.971  1.6502  0.5903 -0.5284
  104OSM    H5G10626   0.366   2.962   9.996 -1.7362  2.2584 -0.8865
  104OSM    C6F10627   0.192   2.898   9.865  0.5407 -0.7259  0.0916
  104OSM    H6F10628   0.160   3.000   9.837  2.0808 -0.2081  0.1385
  104OSM    H6G10629   0.099   2.840   9.884  0.0325  0.3052  0.8144
  104OSM    C7F10630   0.254   2.839   9.742  0.3426 -0.3390  0.4494
  104OSM    H7F10631   0.251   2.729   9.756 -3.1053 -0.7721 -2.2020
  104OSM    H7G10632   0.363   2.858   9.743  0.1955  0.9598 -1.6835
  104OSM    C8F10633   0.191   2.881   9.605 -0.2601 -0.0519 -0.5960
  104OSM    H8F10634   0.217   2.989   9.610 -0.0617 -0.0669 -1.1724
  104OSM    H8G10635   0.081   2.870   9.613 -0.0823 -1.3604  0.3866
  104OSM    C9F10636   0.253   2.830   9.477 -0.3123 -0.4284  0.5942
  104OSM    H9F10637   0.340   2.763   9.482 -0.9419 -1.8914 -3.8898
  104OSM   C10F10638   0.213   2.851   9.351 -0.6117  0.5051 -0.5405
  104OSM   H10F10639   0.262   2.796   9.270  0.0808 -0.1699  0.3175
  104OSM   C11F10640   0.090   2.927   9.313  0.3695  0.1931 -0.4633
  104OSM   H11F10641   0.116   3.005   9.238  1.3219  0.5414  0.2143
  104OSM   H11G10642   0.050   2.978   9.403  2.3698 -0.8540  1.0804
  104OSM   C12F10643  -0.024   2.839   9.259  0.3190  0.0882  0.0747
  104OSM   H12F10644  -0.113   2.902   9.239  0.4233  0.2808  0.2144
  104OSM   H12G10645  -0.068   2.758   9.321  0.1879 -1.2903 -1.7343
  104OSM   C13F10646   0.022   2.782   9.118  0.1364 -0.9109  0.0745
  104OSM   H13F10647   0.093   2.698   9.124 -0.1841 -1.4464 -2.3146
  104OSM   H13G10648   0.072   2.869   9.071  0.5034 -1.3379 -0.3374
  104OSM   C14F10649  -0.103   2.732   9.032  0.3143  0.2255  0.3696
  104OSM   H14F10650  -0.196   2.786   9.058 -0.4320  0.9162 -3.1958
  104OSM   H14G10651  -0.116   2.624   9.058 -0.9483  0.6006  1.3651
  104OSM   C15F10652  -0.096   2.746   8.879  0.1160 -0.6163  0.1596
  104OSM   H15F10653  -0.085   2.854   8.859 -0.1654 -0.5267  0.4877
  104OSM   H15G10654  -0.189   2.713   8.828  0.7316 -0.2744 -1.2502
  104OSM   C16F10655   0.030   2.684   8.817  0.4113  0.3602  0.5579
  104OSM   H16F10656   0.026   2.574   8.830 -0.4478  0.3395  0.1944
  104OSM   H16G10657   0.124   2.724   8.862  1.2155 -2.0245  1.1679
  104OSM   C17F10658   0.054   2.706   8.661  1.3418  0.3534  0.1966
  104OSM   H17F10659   0.027   2.812   8.641 -0.8403  0.2082  1.9237
  104OSM   H17G10660  -0.030   2.651   8.613  0.6897  0.6946  0.9290
  104OSM   C18F10661   0.195   2.664   8.609  0.1770  0.6153  0.4932
  104OSM   H18F10662   0.196   2.553   8.611 -0.6124  0.6072  1.1544
  104OSM   H18G10663   0.272   2.707   8.676  1.7134  0.8567 -1.3509
  104OSM   H18H10664   0.210   2.687   8.502  2.9032  0.8163  0.8388
  105OSM      N10665   5.881   3.429  10.865 -0.8690  0.2405  0.0105
  105OSM    C1510666   6.023   3.474  10.862  0.0834 -0.0751 -0.3329
  105OSM   H15A10667   6.092   3.397  10.893 -2.0117 -2.9240 -2.1909
  105OSM   H15B10668   6.035   3.551  10.937 -0.6343 -1.1518  0.9109
  105OSM   H15C10669   6.045   3.501  10.759  1.3791 -1.9382 -0.5906
  105OSM    C1410670   5.838   3.396  10.997 -0.5050 -0.7739  0.4772
  105OSM   H14A10671   5.877   3.477  11.057  0.1525 -0.3710 -0.4710
  105OSM   H14B10672   5.883   3.302  11.025 -0.3062 -0.7261  0.3119
  105OSM   H14C10673   5.731   3.400  11.012 -0.2530  1.3471  2.2896
  105OSM    C1310674   5.789   3.535  10.816  0.3950  0.0493  0.9336
  105OSM   H13A10675   5.815   3.583  10.723 -1.2471 -0.8816 -0.0517
  105OSM   H13B10676   5.801   3.618  10.885 -0.3070  0.2677  0.7995
  105OSM   H13C10677   5.683   3.517  10.818  0.4836 -0.4396  1.4271
  105OSM    C1210678   5.871   3.312  10.774 -1.1841 -0.2422 -0.2065
  105OSM   H12A10679   5.919   3.351  10.685 -0.2460  1.3131  0.9292
  105OSM   H12B10680   5.767   3.287  10.762 -1.9353  0.2013  3.8737
  105OSM    C1110681   5.956   3.184  10.812 -0.2209  0.2640  0.3925
  105OSM   H11A10682   6.058   3.214  10.846  0.4815  1.2805 -2.3490
  105OSM   H11B10683   5.959   3.122  10.719  1.6758 -0.6579  1.0053
  105OSM      P10684   5.791   3.003  10.900 -0.1328 -0.0385 -0.0420
  105OSM    O1310685   5.766   2.942  11.037 -0.5238  0.1864  0.7185
  105OSM    O1410686   5.670   3.046  10.831  0.0044 -0.6340  0.1723
  105OSM    O1110687   5.864   2.888  10.822  0.0150 -0.8240  0.1583
  105OSM    O1210688   5.894   3.118  10.920 -0.0565 -0.0665 -0.3737
  105OSM    C1S10689   6.003   2.849  10.818 -0.0135  0.6793  0.7845
  105OSM    H1S10690   6.020   2.779  10.902  2.7461 -0.1530 -0.3500
  105OSM    H1T10691   6.072   2.933  10.842 -0.4989  1.4213 -0.2981
  105OSM     NF10692   6.176   2.733  10.707  0.6777  0.4473  0.3627
  105OSM    HNF10693   6.248   2.771  10.650  1.0411 -1.9118 -0.8323
  105OSM    C2S10694   6.043   2.785  10.683 -0.1372 -0.6145  0.1736
  105OSM    H2S10695   5.971   2.704  10.660  1.9074 -1.9994 -1.7696
  105OSM    C3S10696   6.024   2.892  10.565 -0.0347  0.6451 -0.1687
  105OSM    H3S10697   6.090   2.975  10.599 -0.0316  0.3403  0.6036
  105OSM     O310698   5.889   2.937  10.554 -0.3871 -0.4400 -0.6427
  105OSM    HO310699   5.861   2.913  10.642  3.2343 -1.4702  0.4112
  105OSM    C4S10700   6.074   2.840  10.436 -0.1743 -0.2541  0.6210
  105OSM    H4S10701   6.180   2.864  10.419 -0.7429  3.6129  1.7440
  105OSM    C5S10702   6.005   2.770  10.343 -0.4709  0.1984  0.0365
  105OSM    H5S10703   5.897   2.752  10.350  0.1015 -4.4906 -0.1018
  105OSM    C6S10704   6.071   2.721  10.219  0.0012  0.3041  0.7611
  105OSM    H6S10705   6.048   2.613  10.208 -1.7879  0.8887 -2.5766
  105OSM    H6T10706   6.180   2.725  10.238  0.0959  2.6621  0.0898
  105OSM    C7S10707   6.051   2.792  10.082 -0.0238 -0.0126 -0.2172
  105OSM    H7S10708   6.091   2.733   9.997 -0.4534  0.1439 -0.5307
  105OSM    H7T10709   6.108   2.888  10.082 -1.7810  1.1398 -3.0762
  105OSM    C8S10710   5.903   2.808  10.051 -0.0334  0.9445 -0.4901
  105OSM    H8S10711   5.840   2.856  10.128 -1.9127  3.1162 -3.1967
  105OSM    H8T10712   5.858   2.709  10.026 -1.1771  1.9980 -2.9101
  105OSM    C9S10713   5.871   2.885   9.920  0.2703 -0.0805  0.4729
  105OSM    H9S10714   5.937   2.974   9.906  1.0831 -0.7380  0.0590
  105OSM    H9T10715   5.765   2.919   9.923 -0.1058 -0.5941 -2.9279
  105OSM   C10S10716   5.884   2.801   9.792 -0.4200  0.0931  0.0429
  105OSM   H10S10717   5.800   2.728   9.782 -0.3636  0.0312  0.0225
  105OSM   H10T10718   5.978   2.742   9.795  2.6466  4.4747 -0.2699
  105OSM   C11S10719   5.883   2.891   9.670 -0.2393 -0.1225 -0.0092
  105OSM   H11S10720   5.958   2.970   9.691 -1.2074  0.9832 -0.5729
  105OSM   H11T10721   5.779   2.930   9.658 -0.9660 -1.3576  1.8140
  105OSM   C12S10722   5.910   2.820   9.538 -0.8194 -0.1317  0.3647
  105OSM   H12S10723   5.835   2.738   9.538  0.7654 -1.6419  0.2205
  105OSM   H12T10724   6.004   2.761   9.536 -0.5704  0.1790  1.7913
  105OSM   C13S10725   5.894   2.915   9.424 -0.1775  0.2466  0.5683
  105OSM   H13S10726   5.966   2.998   9.439  1.0595 -0.4963 -1.0494
  105OSM   H13T10727   5.789   2.951   9.434 -0.4106 -0.4815  0.8616
  105OSM   C14S10728   5.893   2.842   9.288 -0.2589 -0.0368 -0.3856
  105OSM   H14S10729   5.811   2.767   9.289  1.8992 -2.5660  1.2052
  105OSM   H14T10730   5.987   2.784   9.274 -0.1370  0.1497 -0.3519
  105OSM   C15S10731   5.870   2.928   9.168  0.0427  0.2926  0.0244
  105OSM   H15S10732   5.946   3.007   9.183  0.1914  0.4944 -1.6114
  105OSM   H15T10733   5.776   2.982   9.145  0.2623  1.0198  0.8183
  105OSM   C16S10734   5.903   2.846   9.041 -0.9042  1.0292 -0.3598
  105OSM   H16S10735   5.836   2.757   9.039  0.2572  0.1248  0.1463
  105OSM   H16T10736   6.003   2.803   9.063 -1.1742  0.8140  0.4631
  105OSM   C17S10737   5.907   2.920   8.913 -0.0327  0.7688  0.0069
  105OSM   H17S10738   6.002   2.978   8.919  1.8262 -2.1247  0.6517
  105OSM   H17T10739   5.819   2.987   8.911 -1.6816 -1.2714  0.4605
  105OSM   C18S10740   5.891   2.826   8.791 -0.3726 -0.2754  0.4467
  105OSM   H18S10741   5.989   2.777   8.776  0.1168  1.2491 -1.9097
  105OSM   H18T10742   5.868   2.885   8.700  0.0592 -1.7480 -0.6635
  105OSM   H18U10743   5.805   2.756   8.806 -0.1706 -0.7573 -0.5754
  105OSM    C1F10744   6.199   2.619  10.775  0.6171 -0.4660  0.7235
  105OSM     OF10745   6.102   2.555  10.818 -0.3405  0.4457 -0.0562
  105OSM    C2F10746   6.338   2.576  10.782 -0.8226  0.0445  0.0532
  105OSM    H2F10747   6.383   2.612  10.877 -0.3219  2.8289 -1.1312
  105OSM    H2G10748   6.404   2.611  10.700 -1.4988 -1.1182 -1.0300
  105OSM    C3F10749   6.341   2.423  10.760  0.0752  0.3523  0.0450
  105OSM    H3F10750   6.299   2.379  10.853  1.8322 -0.6057  0.4455
  105OSM    H3G10751   6.451   2.406  10.756  0.4392  2.2036  1.0929
  105OSM    C4F10752   6.273   2.369  10.629 -0.1756 -0.2889  0.7241
  105OSM    H4F10753   6.163   2.387  10.627 -0.4502 -1.4098  2.8157
  105OSM    H4G10754   6.277   2.259  10.634 -1.3822 -0.2854  3.1854
  105OSM    C5F10755   6.351   2.420  10.506  0.6228 -0.2811  0.1233
  105OSM    H5F10756   6.458   2.390  10.504  0.9381  0.8356 -1.0533
  105OSM    H5G10757   6.340   2.529  10.493  1.9907 -0.3389 -1.8377
  105OSM    C6F10758   6.291   2.350  10.375 -0.1556 -0.3693  0.1551
  105OSM    H6F10759   6.181   2.354  10.365  0.0100 -0.9770 -2.4682
  105OSM    H6G10760   6.320   2.243  10.378  1.0107 -0.0550  1.0299
  105OSM    C7F10761   6.348   2.409  10.250 -0.3203  0.3466  0.2585
  105OSM    H7F10762   6.458   2.412  10.269 -0.3471  0.8757  0.3527
  105OSM    H7G10763   6.311   2.512  10.234 -2.5386 -0.6434 -1.4310
  105OSM    C8F10764   6.324   2.328  10.124 -0.1498  0.4209 -0.1277
  105OSM    H8F10765   6.391   2.240  10.130  0.6447  0.8576 -1.7946
  105OSM    H8G10766   6.371   2.375  10.035  1.0026 -2.0244 -0.8863
  105OSM    C9F10767   6.183   2.284  10.093 -0.2237 -0.2415  0.1612
  105OSM    H9F10768   6.154   2.205  10.164 -0.7307 -1.1533 -1.0219
  105OSM   C10F10769   6.097   2.324   9.994 -0.1235  0.5001  0.1544
  105OSM   H10F10770   5.996   2.281   9.992  0.2579 -0.3945 -1.0091
  105OSM   C11F10771   6.117   2.433   9.887  0.3017  0.9648 -0.1657
  105OSM   H11F10772   6.205   2.497   9.909  0.7592  0.1087  0.5755
  105OSM   H11G10773   6.021   2.489   9.887 -3.1889 -4.3639  0.2746
  105OSM   C12F10774   6.143   2.377   9.741  0.8518  0.0853  0.8473
  105OSM   H12F10775   6.061   2.316   9.699  1.7505  0.0665 -0.9440
  105OSM   H12G10776   6.237   2.317   9.738  0.3447 -0.7236  0.9329
  105OSM   C13F10777   6.157   2.499   9.645 -0.1804 -0.9745  0.4155
  105OSM   H13F10778   6.229   2.574   9.683 -0.1489  0.1271 -1.6499
  105OSM   H13G10779   6.063   2.558   9.643 -0.0839 -0.7112  2.3593
  105OSM   C14F10780   6.188   2.448   9.505 -0.7246 -0.2846  0.3705
  105OSM   H14F10781   6.110   2.391   9.449 -1.5771  0.2120  1.0329
  105OSM   H14G10782   6.272   2.376   9.515 -0.9836 -1.0990 -2.3802
  105OSM   C15F10783   6.233   2.554   9.404  0.5659 -0.3091 -0.4150
  105OSM   H15F10784   6.318   2.610   9.449 -0.5687  2.0988 -1.0893
  105OSM   H15G10785   6.146   2.623   9.406  0.2913 -0.6246  1.9688
  105OSM   C16F10786   6.261   2.524   9.257 -0.4434  0.2355  0.3322
  105OSM   H16F10787   6.162   2.501   9.214 -0.5267  0.2568  0.5135
  105OSM   H16G10788   6.336   2.442   9.246  0.1214  0.4948  2.0379
  105OSM   C17F10789   6.308   2.649   9.179  0.1615  0.4622  0.5223
  105OSM   H17F10790   6.416   2.657   9.206  0.1567  0.2967  0.5910
  105OSM   H17G10791   6.260   2.737   9.227 -1.6248 -0.9279  1.3751
  105OSM   C18F10792   6.269   2.647   9.030  0.0749 -0.1024  0.0900
  105OSM   H18F10793   6.238   2.742   8.982 -1.4952 -0.0843  1.0698
  105OSM   H18G10794   6.188   2.575   9.009  0.5821 -0.8408  0.5999
  105OSM   H18H10795   6.355   2.598   8.979  0.6657  1.5554 -0.5846
  106OSM      N10796   2.291   6.410  11.170 -0.4195 -0.5659  0.1050
  106OSM    C1510797   2.280   6.264  11.145 -0.4193  0.1528  0.0031
  106OSM   H15A10798   2.368   6.208  11.170 -0.8653 -0.8616 -0.6363
  106OSM   H15B10799   2.250   6.234  11.046 -1.4420 -0.1010  0.3717
  106OSM   H15C10800   2.205   6.216  11.206 -0.0533  0.8027  0.9911
  106OSM    C1410801   2.163   6.472  11.187 -0.2804  0.8962 -0.2259
  106OSM   H14A10802   2.109   6.451  11.278 -0.7233 -1.7325 -1.0071
  106OSM   H14B10803   2.095   6.445  11.108 -2.5053 -1.0690  2.1655
  106OSM   H14C10804   2.178   6.579  11.180  0.6023  0.7086 -1.4871
  106OSM    C1310805   2.381   6.432  11.289  0.0763  0.1692 -0.2365
  106OSM   H13A10806   2.475   6.382  11.277  0.6425  1.3425 -0.8950
  106OSM   H13B10807   2.327   6.397  11.376 -0.2667  2.6039  0.6330
  106OSM   H13C10808   2.411   6.535  11.303  1.5917 -0.3508  0.5116
  106OSM    C1210809   2.353   6.479  11.051 -0.0136 -0.8744  0.7623
  106OSM   H12A10810   2.459   6.458  11.047  0.6985  2.2503  0.7597
  106OSM   H12B10811   2.343   6.585  11.069  0.0072 -0.4580 -1.4380
  106OSM    C1110812   2.282   6.455  10.918 -0.0418  0.0961  0.6714
  106OSM   H11A10813   2.282   6.349  10.884 -0.8052  0.3418 -0.1076
  106OSM   H11B10814   2.337   6.497  10.831 -1.3562 -0.6831 -0.5819
  106OSM      P10815   2.030   6.456  10.843  0.1673  0.0438 -0.1804
  106OSM    O1310816   2.017   6.316  10.890 -0.3050  0.3275 -0.0249
  106OSM    O1410817   1.920   6.552  10.857 -0.5629  0.2816 -0.1083
  106OSM    O1110818   2.074   6.445  10.696 -0.2685 -0.2108 -0.5433
  106OSM    O1210819   2.156   6.518  10.914 -0.5777  0.3090 -0.9600
  106OSM    C1S10820   2.145   6.544  10.636 -0.4347  0.0361  0.3048
  106OSM    H1S10821   2.254   6.522  10.635 -0.9219 -2.8523  1.7392
  106OSM    H1T10822   2.139   6.652  10.664  1.0075  0.6127 -1.3733
  106OSM     NF10823   2.202   6.644  10.413  0.3684  0.6326 -0.2654
  106OSM    HNF10824   2.157   6.726  10.378  2.1522  0.2533 -3.9455
  106OSM    C2S10825   2.116   6.550  10.483  1.4308 -0.0082 -0.1916
  106OSM    H2S10826   2.136   6.452  10.434 -0.6731  0.4433 -2.1677
  106OSM    C3S10827   1.968   6.587  10.463  0.3852  0.7238  0.0616
  106OSM    H3S10828   1.942   6.688  10.500 -2.6894 -0.3822  1.2650
  106OSM     O310829   1.874   6.505  10.539 -0.1698 -0.4167  0.1716
  106OSM    HO310830   1.934   6.465  10.601 -1.2238  1.7385  2.7579
  106OSM    C4S10831   1.935   6.588  10.320  0.0825 -0.1360  0.0841
  106OSM    H4S10832   1.935   6.691  10.279  0.3903 -0.1185  0.1302
  106OSM    C5S10833   1.894   6.488  10.242  0.6428 -0.0684 -0.2974
  106OSM    H5S10834   1.884   6.384  10.274  0.5573  0.3186  0.9832
  106OSM    C6S10835   1.853   6.506  10.101  0.0215  0.1336 -0.2036
  106OSM    H6S10836   1.935   6.469  10.036  0.9149 -0.1046  1.0376
  106OSM    H6T10837   1.825   6.608  10.068 -0.9400 -0.3547 -0.9679
  106OSM    C7S10838   1.727   6.428  10.064  0.1632 -0.6602  0.5491
  106OSM    H7S10839   1.761   6.324  10.085 -0.9266 -1.0487  0.4429
  106OSM    H7T10840   1.712   6.448   9.956 -1.4133  0.1032  0.8897
  106OSM    C8S10841   1.599   6.451  10.150  0.7513 -0.6838  0.1677
  106OSM    H8S10842   1.623   6.438  10.258  0.2123  0.4583  0.4441
  106OSM    H8T10843   1.518   6.380  10.125 -1.6585  2.4424 -1.7649
  106OSM    C9S10844   1.536   6.590  10.119 -0.4011 -0.4825  0.5215
  106OSM    H9S10845   1.625   6.656  10.111  0.1332 -0.9154  2.5667
  106OSM    H9T10846   1.465   6.640  10.189 -0.7324 -0.5221  0.2187
  106OSM   C10S10847   1.462   6.589   9.979  0.2542  0.1251 -0.4779
  106OSM   H10S10848   1.376   6.522  10.000  0.1321  0.5845  0.5512
  106OSM   H10T10849   1.535   6.542   9.910  0.3525  2.7423 -2.3455
  106OSM   C11S10850   1.405   6.726   9.960  0.1836  0.2389 -0.0337
  106OSM   H11S10851   1.493   6.790   9.939 -0.6916  1.2028 -0.8808
  106OSM   H11T10852   1.360   6.760  10.055  0.8916  1.0648  0.0195
  106OSM   C12S10853   1.316   6.726   9.834 -0.6367 -0.1659 -0.6100
  106OSM   H12S10854   1.225   6.667   9.857  0.2219 -0.7534  1.4872
  106OSM   H12T10855   1.385   6.679   9.760  1.5142  0.9324  0.5805
  106OSM   C13S10856   1.291   6.869   9.777  0.4169  0.0410  0.5746
  106OSM   H13S10857   1.388   6.923   9.769 -0.4223  1.4369 -0.7330
  106OSM   H13T10858   1.217   6.921   9.842 -1.3881 -1.7843  0.0673
  106OSM   C14S10859   1.222   6.870   9.643  0.6263  0.3304 -0.1938
  106OSM   H14S10860   1.118   6.832   9.653  0.8486 -0.7255 -1.5192
  106OSM   H14T10861   1.268   6.798   9.572  1.9884 -0.4355  1.3912
  106OSM   C15S10862   1.211   7.010   9.577  0.3780  0.6456 -0.0345
  106OSM   H15S10863   1.308   7.064   9.568 -0.1521  1.5571 -0.4975
  106OSM   H15T10864   1.143   7.061   9.649  0.0249 -1.0617  0.8905
  106OSM   C16S10865   1.148   6.994   9.436  0.9839  0.1448 -0.4583
  106OSM   H16S10866   1.200   6.912   9.382 -0.2341 -0.3514 -0.9231
  106OSM   H16T10867   1.146   7.094   9.388 -0.0876  1.0245  1.3055
  106OSM   C17S10868   0.993   6.962   9.432  0.5326 -0.8125 -0.1767
  106OSM   H17S10869   0.941   7.015   9.515 -0.4419 -1.1159 -0.5843
  106OSM   H17T10870   0.969   6.853   9.438 -3.1995 -0.2347 -2.0169
  106OSM   C18S10871   0.926   7.003   9.301  0.2302  0.6152 -0.3679
  106OSM   H18S10872   0.817   6.984   9.298  0.0754  0.1683  3.4695
  106OSM   H18T10873   0.991   6.945   9.232 -2.6515 -4.5129  0.7538
  106OSM   H18U10874   0.939   7.113   9.286 -1.9679  1.0474  0.5198
  106OSM    C1F10875   2.331   6.645  10.397 -0.0898  0.4687 -0.4033
  106OSM     OF10876   2.409   6.555  10.440  0.1658 -0.4482 -0.3063
  106OSM    C2F10877   2.382   6.759  10.309  0.4868  0.0484  0.1126
  106OSM    H2F10878   2.470   6.807  10.358 -1.6938  2.2221  2.2168
  106OSM    H2G10879   2.306   6.839  10.296  1.2359  0.6026 -0.9671
  106OSM    C3F10880   2.423   6.710  10.164 -0.0683 -0.5737  0.3538
  106OSM    H3F10881   2.502   6.633  10.176  1.4606  0.6977 -1.1005
  106OSM    H3G10882   2.464   6.803  10.120 -2.0550  1.2504  2.0786
  106OSM    C4F10883   2.306   6.645  10.090  0.1578  0.6834  0.9950
  106OSM    H4F10884   2.209   6.697  10.107 -0.2928 -0.2851  1.5046
  106OSM    H4G10885   2.291   6.539  10.122 -0.7072  0.5890  0.3140
  106OSM    C5F10886   2.338   6.647   9.940 -0.3541 -0.2647  0.0580
  106OSM    H5F10887   2.412   6.566   9.919 -1.0182 -0.7434 -0.5182
  106OSM    H5G10888   2.383   6.744   9.911 -0.3216 -0.4840 -0.6499
  106OSM    C6F10889   2.209   6.623   9.863 -0.0447  0.0132 -0.3778
  106OSM    H6F10890   2.128   6.697   9.883 -1.2679 -0.9917 -1.4384
  106OSM    H6G10891   2.166   6.522   9.878  0.7823 -0.0626  1.8975
  106OSM    C7F10892   2.229   6.639   9.709  0.6436 -0.2000  0.3334
  106OSM    H7F10893   2.301   6.566   9.666  0.9342  0.2215  0.0900
  106OSM    H7G10894   2.278   6.739   9.701  1.9741 -0.7103  1.6492
  106OSM    C8F10895   2.095   6.646   9.639  0.6792 -0.4287 -0.0804
  106OSM    H8F10896   2.109   6.708   9.548  1.3593 -0.7864 -0.2238
  106OSM    H8G10897   2.025   6.689   9.714  0.7394  0.4103 -0.5000
  106OSM    C9F10898   2.053   6.510   9.592 -0.3145  0.4005  0.5547
  106OSM    H9F10899   2.054   6.432   9.670  0.4003  0.2461  0.3928
  106OSM   C10F10900   2.017   6.474   9.465  0.5310 -0.5184 -0.2065
  106OSM   H10F10901   1.979   6.371   9.470  3.8866 -1.8349  1.1985
  106OSM   C11F10902   2.007   6.552   9.340  0.4596 -0.4679 -0.0755
  106OSM   H11F10903   2.049   6.486   9.261 -0.1683  0.8596 -1.5644
  106OSM   H11G10904   2.078   6.637   9.342  1.5100 -1.2898 -1.1639
  106OSM   C12F10905   1.866   6.594   9.313  1.1648  0.0437 -0.3612
  106OSM   H12F10906   1.825   6.646   9.403  3.0367 -0.5208  0.8667
  106OSM   H12G10907   1.806   6.502   9.294  1.8390 -0.4933  0.0471
  106OSM   C13F10908   1.850   6.685   9.194 -0.3429 -0.3659 -0.5919
  106OSM   H13F10909   1.909   6.648   9.107 -1.0063  2.1934 -2.2450
  106OSM   H13G10910   1.894   6.781   9.228 -1.2048 -1.0764  2.9063
  106OSM   C14F10911   1.709   6.693   9.139  0.6754  0.1563  0.6420
  106OSM   H14F10912   1.648   6.730   9.224 -0.9380 -0.4144 -0.2218
  106OSM   H14G10913   1.672   6.595   9.102  1.1828 -0.2045  1.0770
  106OSM   C15F10914   1.691   6.799   9.032  0.1448 -0.0070 -0.3566
  106OSM   H15F10915   1.754   6.766   8.946  1.4051  2.0762 -0.3012
  106OSM   H15G10916   1.731   6.896   9.067  0.0868  0.8780 -2.5769
  106OSM   C16F10917   1.548   6.826   8.979 -0.0593  0.0704  0.1644
  106OSM   H16F10918   1.489   6.876   9.058 -0.4947  0.7061 -0.5487
  106OSM   H16G10919   1.494   6.730   8.962 -2.2548  1.2364  0.3012
  106OSM   C17F10920   1.537   6.906   8.845 -0.1024  0.5440  0.0656
  106OSM   H17F10921   1.428   6.924   8.833  0.0582  0.7246 -1.3796
  106OSM   H17G10922   1.579   6.850   8.759 -0.3051  1.3088 -0.5444
  106OSM   C18F10923   1.614   7.046   8.851 -0.1961 -0.4580  0.1389
  106OSM   H18F10924   1.594   7.089   8.952 -1.0555  2.2749 -1.0890
  106OSM   H18G10925   1.574   7.124   8.783  0.4828  1.3201  1.6629
  106OSM   H18H10926   1.720   7.018   8.836  0.1582 -0.1604  1.8473
  107OSM      N10927   2.034   5.057  11.140  0.8552 -0.0918  0.2199
  107OSM    C1510928   1.883   5.079  11.156 -0.7170  0.6297 -0.3962
  107OSM   H15A10929   1.834   4.990  11.192 -0.8737 -0.6030 -3.4455
  107OSM   H15B10930   1.836   5.097  11.061 -1.2492  0.3905 -0.1863
  107OSM   H15C10931   1.857   5.154  11.230  1.6079  2.1761 -1.0321
  107OSM    C1410932   2.052   4.956  11.040  0.1579  0.3796 -0.8088
  107OSM   H14A10933   1.983   4.873  11.050 -0.0767  0.7589  1.2638
  107OSM   H14B10934   2.154   4.920  11.040  1.0723  2.7018  1.1330
  107OSM   H14C10935   2.037   4.992  10.940 -0.3376  1.2305 -0.4339
  107OSM    C1310936   2.088   5.184  11.088 -0.8414 -0.1809 -0.1887
  107OSM   H13A10937   2.106   5.250  11.172  2.9112 -1.2061 -0.0111
  107OSM   H13B10938   2.019   5.233  11.021 -1.1763 -0.8317 -0.3223
  107OSM   H13C10939   2.185   5.171  11.044 -0.6975 -0.3130  0.1619
  107OSM    C1210940   2.090   5.028  11.272  0.7127 -0.0464  0.1031
  107OSM   H12A10941   2.026   4.954  11.319 -0.0277  0.0950 -0.6687
  107OSM   H12B10942   2.085   5.114  11.337 -0.1409 -0.7069  0.9486
  107OSM    C1110943   2.239   4.973  11.268  0.1212 -0.2987 -0.5498
  107OSM   H11A10944   2.274   4.967  11.374 -2.2141  2.7366  0.5503
  107OSM   H11B10945   2.316   5.041  11.225  0.2643 -2.1943 -3.5721
  107OSM      P10946   2.394   4.783  11.176 -0.6763 -0.1278 -0.1586
  107OSM    O1310947   2.482   4.798  11.299  0.0654  0.2709 -0.4729
  107OSM    O1410948   2.375   4.650  11.119 -0.5224 -0.1964 -0.4049
  107OSM    O1110949   2.443   4.886  11.064 -0.3752  0.1034 -0.1326
  107OSM    O1210950   2.251   4.845  11.215  0.5974 -0.8330  0.2745
  107OSM    C1S10951   2.515   4.842  10.946  0.5834 -0.7061 -0.3627
  107OSM    H1S10952   2.536   4.733  10.954  1.0351 -0.5801  0.1695
  107OSM    H1T10953   2.604   4.907  10.955 -0.6065  0.6561  2.9915
  107OSM     NF10954   2.502   4.810  10.705  0.1636  0.5396 -0.1571
  107OSM    HNF10955   2.545   4.866  10.634 -0.2766  1.1509  0.0531
  107OSM    C2S10956   2.436   4.873  10.818 -0.1988 -0.2677 -0.3374
  107OSM    H2S10957   2.339   4.820  10.830  0.0506 -0.0776  3.5106
  107OSM    C3S10958   2.419   5.024  10.806  0.3190 -0.3064  0.0552
  107OSM    H3S10959   2.517   5.075  10.792 -1.0176  3.2738  2.3633
  107OSM     O310960   2.365   5.084  10.924  0.2267  0.5025  0.9391
  107OSM    HO310961   2.365   5.012  10.988  0.1543 -1.5940 -1.2685
  107OSM    C4S10962   2.327   5.043  10.689  0.5014 -0.4199  0.3829
  107OSM    H4S10963   2.380   5.018  10.595 -1.0339  0.9181 -0.9042
  107OSM    C5S10964   2.205   5.097  10.677  0.2416 -0.0298  0.5259
  107OSM    H5S10965   2.157   5.145  10.764 -0.5521 -0.3221  0.2617
  107OSM    C6S10966   2.131   5.121  10.546 -0.3853 -0.6784 -0.1025
  107OSM    H6S10967   2.082   5.221  10.551 -0.5083 -0.7726  3.1378
  107OSM    H6T10968   2.056   5.042  10.527 -0.1006 -0.5112 -2.0940
  107OSM    C7S10969   2.225   5.125  10.423 -0.4893  0.0856 -0.0958
  107OSM    H7S10970   2.275   5.027  10.410 -0.6267 -0.0353  0.2815
  107OSM    H7T10971   2.301   5.204  10.440 -2.8653  2.0871  2.1437
  107OSM    C8S10972   2.151   5.146  10.290 -0.8278 -0.0618  0.1399
  107OSM    H8S10973   2.081   5.232  10.298 -0.8356 -0.1489  1.1719
  107OSM    H8T10974   2.089   5.058  10.262 -3.1843  0.7622  2.3005
  107OSM    C9S10975   2.245   5.165  10.166  0.1965  0.2979  0.1652
  107OSM    H9S10976   2.301   5.075  10.133 -0.1594  0.7744 -1.8685
  107OSM    H9T10977   2.311   5.252  10.185 -1.2153  1.4153  0.1094
  107OSM   C10S10978   2.150   5.194  10.043  0.5441  0.3994 -0.3786
  107OSM   H10S10979   2.097   5.288  10.068  1.4244  0.2716  2.2714
  107OSM   H10T10980   2.081   5.109  10.023  1.2253 -0.2413 -0.0799
  107OSM   C11S10981   2.233   5.204   9.914  0.0867 -0.6912 -0.4169
  107OSM   H11S10982   2.280   5.104   9.903  1.0701 -0.3869  0.7060
  107OSM   H11T10983   2.319   5.266   9.947 -1.7284  1.3790  0.6810
  107OSM   C12S10984   2.166   5.260   9.788 -0.6921 -0.6187  0.3365
  107OSM   H12S10985   2.138   5.366   9.805  1.6040 -0.0985  1.2345
  107OSM   H12T10986   2.084   5.193   9.752  0.9670 -2.2882 -0.5067
  107OSM   C13S10987   2.274   5.270   9.679 -0.4341  0.4140  0.5431
  107OSM   H13S10988   2.307   5.166   9.656 -2.9253 -0.0667 -1.2796
  107OSM   H13T10989   2.363   5.325   9.717  1.0862 -0.0275 -2.1001
  107OSM   C14S10990   2.223   5.350   9.558  0.1608  0.0932  0.8480
  107OSM   H14S10991   2.210   5.455   9.593 -0.2184  0.1224  0.6272
  107OSM   H14T10992   2.127   5.326   9.507 -0.2440  1.7794  0.7521
  107OSM   C15S10993   2.319   5.361   9.443 -0.1745  0.3919 -0.2851
  107OSM   H15S10994   2.329   5.254   9.416  0.3726 -0.5966  3.2108
  107OSM   H15T10995   2.414   5.407   9.480  0.0893 -0.2791 -0.1131
  107OSM   C16S10996   2.274   5.441   9.321 -0.4392 -0.4900 -0.5483
  107OSM   H16S10997   2.255   5.547   9.347  0.1844 -1.0515  2.6287
  107OSM   H16T10998   2.183   5.395   9.276 -0.3253 -0.1459 -1.1272
  107OSM   C17S10999   2.371   5.447   9.199 -0.6563  0.5452 -0.0358
  107OSM   H17S11000   2.383   5.345   9.156 -1.2375  1.2774 -2.0964
  107OSM   H17T11001   2.473   5.479   9.229 -1.7619  1.6217  2.9352
  107OSM   C18S11002   2.326   5.535   9.081 -0.6222  0.6108 -0.7704
  107OSM   H18S11003   2.224   5.495   9.062 -0.4417 -1.5228  2.1267
  107OSM   H18T11004   2.402   5.527   9.000  1.7169 -2.3227  1.4809
  107OSM   H18U11005   2.331   5.642   9.111  2.0553  0.2565  0.3172
  107OSM    C1F11006   2.509   4.673  10.706 -0.4331  0.1997  1.2916
  107OSM     OF11007   2.428   4.612  10.774  0.2866  0.0771  0.4796
  107OSM    C2F11008   2.618   4.612  10.615  0.1046  0.7128  0.0761
  107OSM    H2F11009   2.702   4.591  10.685  0.0865 -0.8884 -0.3422
  107OSM    H2G11010   2.650   4.682  10.536  0.2731  1.7714  1.0526
  107OSM    C3F11011   2.563   4.485  10.552  0.8829  0.4494 -0.0204
  107OSM    H3F11012   2.475   4.506  10.487  1.1353  0.0112 -0.5121
  107OSM    H3G11013   2.546   4.420  10.640 -1.5942  0.9522 -0.0607
  107OSM    C4F11014   2.662   4.419  10.455  0.2916 -0.1719 -0.6488
  107OSM    H4F11015   2.641   4.310  10.458 -1.5634  0.1876  1.0206
  107OSM    H4G11016   2.758   4.425  10.511 -0.5207 -1.6010  0.9896
  107OSM    C5F11017   2.678   4.474  10.320 -0.8888 -0.0194  0.4020
  107OSM    H5F11018   2.776   4.432  10.286  1.2115  2.8821  2.4326
  107OSM    H5G11019   2.701   4.579  10.346  0.6402 -0.7019  2.0313
  107OSM    C6F11020   2.564   4.443  10.219  0.1850  0.5426  0.0024
  107OSM    H6F11021   2.474   4.491  10.263 -1.1090  0.0750 -2.0317
  107OSM    H6G11022   2.547   4.336  10.197  0.9749  0.9026 -2.7892
  107OSM    C7F11023   2.585   4.513  10.088 -0.3591 -0.8398  0.2881
  107OSM    H7F11024   2.632   4.611  10.111 -0.4493 -0.8124  0.3578
  107OSM    H7G11025   2.486   4.540  10.044  0.1345 -1.2385 -1.1175
  107OSM    C8F11026   2.677   4.442   9.984  0.5925  0.4349  0.3150
  107OSM    H8F11027   2.759   4.398  10.046  0.6122  2.7684  2.0823
  107OSM    H8G11028   2.713   4.529   9.925 -3.5187  3.4507  1.8633
  107OSM    C9F11029   2.601   4.334   9.909 -0.7552  1.1062  0.4169
  107OSM    H9F11030   2.567   4.262   9.985 -0.0231 -0.4297 -0.6488
  107OSM   C10F11031   2.567   4.330   9.775  0.6678 -0.3247 -0.9197
  107OSM   H10F11032   2.513   4.240   9.743  0.9883 -0.7402 -0.3118
  107OSM   C11F11033   2.582   4.443   9.670 -0.4356  0.9212 -0.6563
  107OSM   H11F11034   2.690   4.466   9.654  0.2032 -1.0946  0.3299
  107OSM   H11G11035   2.547   4.540   9.710  4.4614  3.1091 -0.9357
  107OSM   C12F11036   2.535   4.395   9.532  0.3005  0.0339 -0.0238
  107OSM   H12F11037   2.520   4.491   9.478  0.4056 -0.3216 -0.6844
  107OSM   H12G11038   2.443   4.335   9.551 -0.1709  0.8777  0.4568
  107OSM   C13F11039   2.647   4.323   9.463  0.2703 -0.7245 -0.1406
  107OSM   H13F11040   2.661   4.225   9.514  0.3819  1.0239  3.5583
  107OSM   H13G11041   2.747   4.369   9.475  0.2450 -0.0563 -2.2092
  107OSM   C14F11042   2.626   4.284   9.314 -0.4441 -0.6689  0.4715
  107OSM   H14F11043   2.542   4.219   9.283  0.7519 -1.6078 -0.9468
  107OSM   H14G11044   2.706   4.210   9.291 -1.7177 -1.4163 -1.8914
  107OSM   C15F11045   2.643   4.407   9.229 -0.1862 -0.0262  0.4693
  107OSM   H15F11046   2.747   4.444   9.238  0.5127 -1.7276 -0.1414
  107OSM   H15G11047   2.592   4.497   9.270 -0.9329  0.6389 -1.7825
  107OSM   C16F11048   2.620   4.393   9.083  0.0262  0.4547 -0.5355
  107OSM   H16F11049   2.515   4.359   9.070 -0.2435  0.5680  1.2078
  107OSM   H16G11050   2.682   4.305   9.056 -2.8771 -2.0971  0.5061
  107OSM   C17F11051   2.654   4.517   9.006 -0.0309 -0.7141 -0.0640
  107OSM   H17F11052   2.763   4.533   8.994 -0.3418  0.5118 -1.5837
  107OSM   H17G11053   2.612   4.608   9.053 -2.8943 -0.8990 -2.0258
  107OSM   C18F11054   2.594   4.519   8.862  0.0381 -0.0607  0.3445
  107OSM   H18F11055   2.612   4.619   8.818 -2.7504  0.0148 -0.8347
  107OSM   H18G11056   2.483   4.514   8.871 -0.2043  0.7630 -1.5933
  107OSM   H18H11057   2.631   4.434   8.801 -0.6642 -0.0845 -0.0656
  108OSM      N11058   6.420   2.061  11.355  0.2615  0.0509  0.0013
  108OSM    C1511059   6.374   1.967  11.456 -0.6076  1.3105 -0.3621
  108OSM   H15A11060   6.326   2.012  11.541  0.4948  0.1193  0.9383
  108OSM   H15B11061   6.441   1.885  11.477 -1.8052  0.1644 -0.8273
  108OSM   H15C11062   6.298   1.908  11.407  1.3282 -0.9616 -0.8369
  108OSM    C1411063   6.309   2.158  11.334 -0.3575 -0.2767  0.1554
  108OSM   H14A11064   6.339   2.244  11.276  1.4718  0.7189  2.4542
  108OSM   H14B11065   6.260   2.200  11.420 -1.6058  1.3725 -1.2730
  108OSM   H14C11066   6.227   2.103  11.290 -1.4203  0.2601  1.4076
  108OSM    C1311067   6.534   2.142  11.411 -0.1032  0.0154  0.3984
  108OSM   H13A11068   6.501   2.181  11.506  1.1929  1.0546  0.4458
  108OSM   H13B11069   6.551   2.230  11.350 -0.3005  0.1462  0.5306
  108OSM   H13C11070   6.620   2.082  11.436  0.5269  0.6246 -0.2547
  108OSM    C1211071   6.457   1.990  11.228 -0.6395 -0.5280 -0.4032
  108OSM   H12A11072   6.540   1.923  11.242 -0.4691  0.0227  1.6736
  108OSM   H12B11073   6.498   2.059  11.156 -0.7819 -1.2828 -1.2097
  108OSM    C1111074   6.350   1.909  11.153 -0.1624  0.0818 -0.1169
  108OSM   H11A11075   6.386   1.870  11.055 -0.3545 -0.6154  0.0846
  108OSM   H11B11076   6.273   1.988  11.136 -0.1533 -0.1634 -1.4060
  108OSM      P11077   6.193   1.711  11.163 -0.1846 -0.1158  0.3238
  108OSM    O1311078   6.172   1.602  11.261 -0.3203  0.4815 -0.0361
  108OSM    O1411079   6.075   1.789  11.123  0.2745  0.0959  0.8912
  108OSM    O1111080   6.267   1.651  11.037 -0.1534  0.0693 -0.4040
  108OSM    O1211081   6.293   1.807  11.235 -0.3583 -0.2192  0.5639
  108OSM    C1S11082   6.204   1.584  10.930 -0.4607  0.7105 -0.3770
  108OSM    H1S11083   6.167   1.662  10.859  0.3367 -0.3952 -2.0814
  108OSM    H1T11084   6.115   1.520  10.947  0.5176 -0.2284  1.4036
  108OSM     NF11085   6.251   1.441  10.730 -0.2348  0.0410 -0.8030
  108OSM    HNF11086   6.214   1.350  10.746 -1.1645  0.7425  1.2543
  108OSM    C2S11087   6.304   1.494  10.861 -0.4260  0.3120 -0.0621
  108OSM    H2S11088   6.395   1.556  10.843 -0.6646  1.2928  1.9013
  108OSM    C3S11089   6.362   1.381  10.965  0.5806 -0.0369  0.5880
  108OSM    H3S11090   6.271   1.323  10.993 -0.2437  0.7679 -0.3227
  108OSM     O311091   6.424   1.428  11.083  0.2993  0.0422  0.0845
  108OSM    HO311092   6.422   1.521  11.060 -1.4304 -0.2673 -1.2269
  108OSM    C4S11093   6.455   1.287  10.899 -1.0413 -0.5918 -0.7003
  108OSM    H4S11094   6.542   1.331  10.847  0.5030 -1.6570  0.8616
  108OSM    C5S11095   6.435   1.158  10.890 -0.0847 -0.1824 -0.1221
  108OSM    H5S11096   6.339   1.110  10.915 -0.7927  0.9390 -0.5962
  108OSM    C6S11097   6.530   1.074  10.807 -0.1344 -0.4690 -0.0525
  108OSM    H6S11098   6.564   0.991  10.873  0.3611  0.6364  1.1378
  108OSM    H6T11099   6.627   1.125  10.785 -0.8148  2.4895  2.9261
  108OSM    C7S11100   6.463   1.031  10.675  0.4604  0.5437  0.4811
  108OSM    H7S11101   6.427   1.123  10.625 -0.1803  0.5685  0.9823
  108OSM    H7T11102   6.374   0.974  10.707  0.8584 -1.0669 -1.1103
  108OSM    C8S11103   6.544   0.942  10.572 -0.1734  0.0929  0.2119
  108OSM    H8S11104   6.575   0.839  10.598 -0.9590 -0.3861 -0.6664
  108OSM    H8T11105   6.640   0.997  10.573  0.0962 -0.2500 -2.0390
  108OSM    C9S11106   6.487   0.934  10.435  0.3908 -0.2226 -0.5424
  108OSM    H9S11107   6.460   1.035  10.395  1.7043 -0.3393 -1.8090
  108OSM    H9T11108   6.392   0.876  10.438  0.1319  0.1392 -1.3467
  108OSM   C10S11109   6.598   0.879  10.340  0.0078 -0.0680  0.7757
  108OSM   H10S11110   6.645   0.784  10.371 -1.6174 -0.9611  0.5777
  108OSM   H10T11111   6.665   0.968  10.331 -1.7881  1.2650  0.0237
  108OSM   C11S11112   6.560   0.853  10.192 -0.5336 -0.0889  0.0200
  108OSM   H11S11113   6.526   0.944  10.137  0.9856  1.0014  0.8196
  108OSM   H11T11114   6.495   0.764  10.175  1.4149 -1.1345 -2.6786
  108OSM   C12S11115   6.682   0.807  10.114 -0.7790  0.1040  0.3775
  108OSM   H12S11116   6.737   0.730  10.171 -2.9571 -0.9600  1.1543
  108OSM   H12T11117   6.744   0.894  10.083  0.3870 -0.8527 -0.0427
  108OSM   C13S11118   6.631   0.724   9.987 -0.1972  0.3467 -0.5001
  108OSM   H13S11119   6.563   0.645  10.026 -0.0618 -0.2476 -1.4343
  108OSM   H13T11120   6.718   0.674   9.939 -0.0901  0.1738 -0.1290
  108OSM   C14S11121   6.546   0.808   9.885  0.1756  0.5635  0.0370
  108OSM   H14S11122   6.603   0.901   9.867  1.5652 -0.1502  0.5570
  108OSM   H14T11123   6.449   0.836   9.931  0.4987  2.4161 -0.3484
  108OSM   C15S11124   6.538   0.735   9.753 -0.1170  0.4473  0.1757
  108OSM   H15S11125   6.475   0.644   9.756 -0.2289  0.4562 -1.2778
  108OSM   H15T11126   6.640   0.709   9.717 -0.8708 -2.1745 -0.2290
  108OSM   C16S11127   6.471   0.815   9.645 -0.1618 -0.4061 -0.4581
  108OSM   H16S11128   6.525   0.911   9.632  0.7767 -0.9191 -0.4138
  108OSM   H16T11129   6.365   0.839   9.666  0.3852  0.4957  1.4613
  108OSM   C17S11130   6.483   0.735   9.515 -0.5812  0.1381  0.3553
  108OSM   H17S11131   6.422   0.645   9.537 -2.1527  0.5644 -1.8809
  108OSM   H17T11132   6.587   0.701   9.494 -0.1925  0.9509  0.8925
  108OSM   C18S11133   6.428   0.812   9.391  0.1707  0.5384  0.1849
  108OSM   H18S11134   6.410   0.750   9.300 -1.1528  0.2273  0.6341
  108OSM   H18T11135   6.501   0.891   9.365 -0.2753  2.7397  4.6569
  108OSM   H18U11136   6.330   0.858   9.417 -1.7089 -3.5368  1.3083
  108OSM    C1F11137   6.209   1.508  10.623  0.2413 -0.4849  0.7585
  108OSM     OF11138   6.200   1.630  10.618 -0.8857 -0.8774 -0.0970
  108OSM    C2F11139   6.175   1.420  10.506 -0.2774 -0.2509  0.0510
  108OSM    H2F11140   6.099   1.344  10.535 -2.4750  2.2083  1.0975
  108OSM    H2G11141   6.260   1.368  10.457 -1.4439 -2.5369  0.2773
  108OSM    C3F11142   6.121   1.514  10.402 -0.2907  0.2751  0.6847
  108OSM    H3F11143   6.200   1.589  10.380  2.0140 -1.9917  0.8197
  108OSM    H3G11144   6.027   1.557  10.444 -1.6977  0.2273 -2.1608
  108OSM    C4F11145   6.080   1.443  10.266 -0.2185 -1.2058 -0.3848
  108OSM    H4F11146   5.994   1.377  10.288 -1.0115 -0.0312  0.1414
  108OSM    H4G11147   6.165   1.381  10.231  1.8670  0.9807  0.4913
  108OSM    C5F11148   6.041   1.542  10.152 -0.6883  0.1998  0.5771
  108OSM    H5F11149   6.118   1.622  10.147  0.1947 -0.7261 -1.6578
  108OSM    H5G11150   5.949   1.591  10.190 -1.0517 -0.3621  0.4222
  108OSM    C6F11151   6.029   1.481  10.015 -0.1951  0.3980  0.4610
  108OSM    H6F11152   6.117   1.430   9.970  1.1695  1.3078  1.9964
  108OSM    H6G11153   6.028   1.565   9.943  2.1861  1.9147  2.0492
  108OSM    C7F11154   5.898   1.407   9.996 -0.0187  0.3521  0.1136
  108OSM    H7F11155   5.822   1.451  10.064 -0.1685 -0.4498  0.4789
  108OSM    H7G11156   5.915   1.304  10.036 -1.4691 -0.1811 -0.5558
  108OSM    C8F11157   5.867   1.399   9.848  0.0696  0.5236 -1.1086
  108OSM    H8F11158   5.964   1.378   9.798 -0.3379 -2.6635 -0.7607
  108OSM    H8G11159   5.830   1.496   9.810  1.1404  1.2437 -0.3811
  108OSM    C9F11160   5.781   1.277   9.821 -0.2642  0.3750 -0.5400
  108OSM    H9F11161   5.711   1.272   9.906  1.0116  2.0995  0.6798
  108OSM   C10F11162   5.781   1.179   9.720  0.1895 -0.4724 -0.2078
  108OSM   H10F11163   5.698   1.107   9.725  1.1587 -1.5554  0.6422
  108OSM   C11F11164   5.876   1.172   9.595 -0.3985  0.5876  0.0873
  108OSM   H11F11165   5.932   1.268   9.589 -2.9337  2.0953 -1.3990
  108OSM   H11G11166   5.820   1.159   9.499  1.0112  1.8501 -0.9465
  108OSM   C12F11167   5.967   1.041   9.598 -0.7580  0.5480 -0.3121
  108OSM   H12F11168   5.905   0.950   9.612  0.2439 -0.0569  0.2878
  108OSM   H12G11169   6.030   1.053   9.688  1.1920 -2.6768 -1.1226
  108OSM   C13F11170   6.066   1.016   9.483 -0.0582 -0.2618  0.5464
  108OSM   H13F11171   6.116   0.917   9.490  0.0342 -0.3510 -1.0535
  108OSM   H13G11172   6.144   1.095   9.487 -1.5392  1.4271 -1.6476
  108OSM   C14F11173   5.995   1.041   9.352  0.3453  0.0677  0.0749
  108OSM   H14F11174   5.970   1.148   9.334 -1.7533 -0.4810 -0.5230
  108OSM   H14G11175   5.902   0.982   9.344 -0.2401  0.7137  1.7143
  108OSM   C15F11176   6.090   0.986   9.242 -0.2073  0.2029 -0.3661
  108OSM   H15F11177   6.097   0.880   9.275 -0.1777  0.6872  1.2569
  108OSM   H15G11178   6.192   1.028   9.248 -0.3499  0.6238 -0.8144
  108OSM   C16F11179   6.059   0.985   9.100 -0.2260  0.0237  1.0390
  108OSM   H16F11180   6.098   1.075   9.049  2.9837 -1.6708  0.2241
  108OSM   H16G11181   5.954   0.972   9.066 -0.1039  2.1809 -0.3292
  108OSM   C17F11182   6.144   0.874   9.022 -0.7024  1.1773 -0.3552
  108OSM   H17F11183   6.098   0.773   9.035  1.1722  0.1644 -1.2760
  108OSM   H17G11184   6.240   0.889   9.075 -1.2124  0.5888  0.7771
  108OSM   C18F11185   6.168   0.905   8.876 -0.3497  0.1082  0.0398
  108OSM   H18F11186   6.205   1.009   8.863  1.1136 -0.4470 -0.4997
  108OSM   H18G11187   6.071   0.910   8.823 -0.5194  0.2214  0.3576
  108OSM   H18H11188   6.236   0.835   8.822 -1.5689 -0.8201 -0.3350
  109OSM      N11189   6.364   2.953  11.158 -0.0863  0.8554 -0.2265
  109OSM    C1511190   6.349   2.944  11.015 -0.0715  0.5507 -0.6328
  109OSM   H15A11191   6.252   2.952  10.969 -0.0069  1.4854 -0.6148
  109OSM   H15B11192   6.388   2.850  10.977 -0.2073  0.0037  0.5392
  109OSM   H15C11193   6.412   3.018  10.967  0.2489  0.8403  0.2163
  109OSM    C1411194   6.269   2.866  11.220  0.4124  0.2345  0.5334
  109OSM   H14A11195   6.277   2.765  11.181  2.1635 -0.0441  1.5092
  109OSM   H14B11196   6.173   2.913  11.224  0.6384  0.6348  1.4760
  109OSM   H14C11197   6.316   2.856  11.317  1.5389 -0.6178 -0.0720
  109OSM    C1311198   6.504   2.909  11.194  0.5567 -0.1666 -0.0583
  109OSM   H13A11199   6.533   2.818  11.144  0.5400 -1.0740  1.4843
  109OSM   H13B11200   6.514   2.880  11.298 -0.2519 -0.8049 -0.1481
  109OSM   H13C11201   6.576   2.988  11.180  0.5581 -0.1912 -0.1808
  109OSM    C1211202   6.336   3.101  11.207  0.1056  0.6007 -0.1820
  109OSM   H12A11203   6.350   3.093  11.313  3.1906 -1.2369 -0.6124
  109OSM   H12B11204   6.235   3.138  11.193 -0.2515 -0.9408 -2.2895
  109OSM    C1111205   6.435   3.210  11.164 -0.8517  0.0964  0.1752
  109OSM   H11A11206   6.541   3.186  11.187 -0.6300 -1.5716 -2.1710
  109OSM   H11B11207   6.414   3.299  11.226  2.8124  0.4475  1.1589
  109OSM      P11208   6.334   3.337  10.965  0.2006  0.2091 -0.4635
  109OSM    O1311209   6.214   3.336  11.049  0.1375  0.4750 -0.1462
  109OSM    O1411210   6.419   3.457  10.968 -0.0693  0.5071  0.0795
  109OSM    O1111211   6.302   3.285  10.823 -0.5150  0.1551  0.1505
  109OSM    O1211212   6.432   3.228  11.024 -0.0535 -0.4939  0.3010
  109OSM    C1S11213   6.386   3.213  10.734 -1.0245 -0.2709  0.8355
  109OSM    H1S11214   6.429   3.122  10.780 -0.5859 -0.2429  0.4939
  109OSM    H1T11215   6.471   3.269  10.688 -2.1011  0.0126 -0.9266
  109OSM     NF11216   6.407   3.104  10.516  0.1699  0.2628 -0.5390
  109OSM    HNF11217   6.456   3.162  10.451  0.6177  0.9981  0.4200
  109OSM    C2S11218   6.314   3.170  10.599  0.2173 -0.2037 -1.1692
  109OSM    H2S11219   6.229   3.105  10.629  0.1477 -0.3753 -1.7331
  109OSM    C3S11220   6.255   3.293  10.530 -0.7456 -0.3294 -0.0622
  109OSM    H3S11221   6.337   3.368  10.520 -1.3388  0.4930  1.0206
  109OSM     O311222   6.157   3.358  10.616  0.0946  0.0033  0.2113
  109OSM    HO311223   6.155   3.312  10.701  0.8435 -0.1255  0.1621
  109OSM    C4S11224   6.187   3.266  10.399 -1.1062 -0.6597 -0.9415
  109OSM    H4S11225   6.094   3.206  10.407 -0.0207 -2.8886 -3.3926
  109OSM    C5S11226   6.244   3.287  10.285 -0.4381  0.3168 -0.0233
  109OSM    H5S11227   6.351   3.312  10.282 -1.0175  3.0353 -1.6213
  109OSM    C6S11228   6.190   3.262  10.145  0.1027 -0.3781 -0.6434
  109OSM    H6S11229   6.080   3.255  10.153  0.2782 -1.8484  0.9665
  109OSM    H6T11230   6.246   3.171  10.116  3.8536  0.3199  3.3465
  109OSM    C7S11231   6.231   3.368  10.038  0.3874  0.1148  1.0778
  109OSM    H7S11232   6.325   3.426  10.048  0.3270  0.5088 -0.4127
  109OSM    H7T11233   6.155   3.449  10.040  0.2277  0.1158 -1.5808
  109OSM    C8S11234   6.241   3.297   9.902  0.1104  0.2723  0.0450
  109OSM    H8S11235   6.169   3.213   9.889 -2.1561  2.1639 -0.3191
  109OSM    H8T11236   6.344   3.256   9.896  1.9383  4.2728  0.9885
  109OSM    C9S11237   6.207   3.393   9.779  0.4105  0.0600 -0.3064
  109OSM    H9S11238   6.273   3.481   9.789  0.9873 -0.3280 -0.6621
  109OSM    H9T11239   6.105   3.438   9.791  0.9665  1.3078 -0.0572
  109OSM   C10S11240   6.232   3.344   9.638 -0.2757 -0.6936  0.2911
  109OSM   H10S11241   6.155   3.273   9.600  0.2838 -0.8722 -0.5475
  109OSM   H10T11242   6.328   3.288   9.646 -0.9184 -1.8040  0.4233
  109OSM   C11S11243   6.249   3.461   9.540  0.1258 -0.1517  0.3393
  109OSM   H11S11244   6.343   3.512   9.568 -1.1772  3.1947 -0.8507
  109OSM   H11T11245   6.170   3.537   9.559 -2.3111 -2.3850 -0.2037
  109OSM   C12S11246   6.247   3.410   9.400 -0.4558 -0.1105 -0.6178
  109OSM   H12S11247   6.152   3.354   9.389 -0.2120 -0.7788  0.5626
  109OSM   H12T11248   6.330   3.337   9.385 -1.0726 -0.2951 -3.8674
  109OSM   C13S11249   6.250   3.514   9.289  0.6681 -0.4415  0.5061
  109OSM   H13S11250   6.341   3.577   9.299  1.3262 -0.9298 -1.8010
  109OSM   H13T11251   6.162   3.578   9.311  0.2952 -0.7489 -0.0597
  109OSM   C14S11252   6.252   3.455   9.153  0.3606 -0.2625  0.2572
  109OSM   H14S11253   6.150   3.413   9.139 -1.1423  3.2189 -0.4000
  109OSM   H14T11254   6.332   3.378   9.159  1.4551  0.9395  2.9424
  109OSM   C15S11255   6.288   3.560   9.042 -0.1966  0.2322  0.2927
  109OSM   H15S11256   6.385   3.608   9.064 -1.2195  2.0622  1.0343
  109OSM   H15T11257   6.211   3.640   9.048 -1.8210 -1.1188 -1.2839
  109OSM   C16S11258   6.297   3.504   8.897 -0.5203  0.7377 -0.0754
  109OSM   H16S11259   6.229   3.419   8.878  2.6088 -2.2457  1.0742
  109OSM   H16T11260   6.398   3.458   8.895  0.2569  2.3057  1.1584
  109OSM   C17S11261   6.279   3.609   8.790  1.4932 -0.1117 -0.3290
  109OSM   H17S11262   6.367   3.675   8.803  1.4000 -0.3899  1.9789
  109OSM   H17T11263   6.188   3.671   8.807  1.1532 -0.9289  0.9602
  109OSM   C18S11264   6.267   3.549   8.650 -0.1266 -0.2050  0.4017
  109OSM   H18S11265   6.329   3.458   8.640 -1.6838 -1.1585 -1.0224
  109OSM   H18T11266   6.293   3.612   8.562  0.9939 -0.3928  0.5832
  109OSM   H18U11267   6.162   3.520   8.628  0.8335 -1.6071 -2.8242
  109OSM    C1F11268   6.429   2.974  10.521 -0.6115  0.9105 -0.6388
  109OSM     OF11269   6.355   2.896  10.580  0.1371  0.2577 -0.5085
  109OSM    C2F11270   6.555   2.915  10.459  0.2164  0.2901  0.2814
  109OSM    H2F11271   6.602   2.854  10.539  1.0697  0.1189 -0.3401
  109OSM    H2G11272   6.626   2.997  10.436 -0.1518  0.3635 -0.6302
  109OSM    C3F11273   6.531   2.824  10.340  0.4729 -0.1521  0.0704
  109OSM    H3F11274   6.465   2.740  10.369 -1.5290  1.5312  0.6740
  109OSM    H3G11275   6.626   2.789  10.295 -0.2479 -0.6784 -1.0778
  109OSM    C4F11276   6.459   2.896  10.224 -0.4570  0.7641  0.2624
  109OSM    H4F11277   6.485   3.003  10.212  0.8131  0.2604 -2.3163
  109OSM    H4G11278   6.353   2.894  10.255 -0.5819 -2.5729  0.0414
  109OSM    C5F11279   6.484   2.838  10.084  0.1902  1.0400 -0.0616
  109OSM    H5F11280   6.446   2.734  10.074 -0.1474  1.1382  0.1666
  109OSM    H5G11281   6.594   2.829  10.076  0.0818  0.1610 -0.7026
  109OSM    C6F11282   6.433   2.922   9.969 -0.0693 -1.3676  0.7913
  109OSM    H6F11283   6.474   3.024   9.983  0.7266 -1.3020 -1.5762
  109OSM    H6G11284   6.322   2.924   9.962 -0.0410 -1.2145  0.3335
  109OSM    C7F11285   6.495   2.880   9.837  0.6446 -0.7367 -0.1632
  109OSM    H7F11286   6.468   2.777   9.805 -0.4111 -0.2389 -0.9274
  109OSM    H7G11287   6.604   2.884   9.858  0.8874 -0.5850 -1.3803
  109OSM    C8F11288   6.460   2.967   9.714  0.8281  0.7033 -0.1980
  109OSM    H8F11289   6.526   2.934   9.631  0.5012 -0.7975  0.1165
  109OSM    H8G11290   6.492   3.072   9.732  2.2398  0.2844 -0.1992
  109OSM    C9F11291   6.317   2.969   9.674  0.6007 -0.3537 -0.0702
  109OSM    H9F11292   6.245   2.965   9.756 -0.8562 -0.1409 -1.2873
  109OSM   C10F11293   6.272   2.963   9.549 -0.0112 -0.2691  0.0421
  109OSM   H10F11294   6.165   2.968   9.524 -0.4816 -0.9545  1.7677
  109OSM   C11F11295   6.361   2.963   9.431  0.0698  0.3766  0.7945
  109OSM   H11F11296   6.408   2.864   9.419 -2.1426 -0.7452  0.9526
  109OSM   H11G11297   6.444   3.037   9.444  1.8884 -1.4363  0.0146
  109OSM   C12F11298   6.283   3.010   9.305 -0.4858 -0.4906 -0.2386
  109OSM   H12F11299   6.251   3.117   9.303 -3.1658 -1.2085 -0.4039
  109OSM   H12G11300   6.185   2.958   9.304  0.8104 -3.2246  2.0158
  109OSM   C13F11301   6.348   2.995   9.166  0.0399 -0.4733  0.5747
  109OSM   H13F11302   6.395   2.895   9.150 -0.9232 -0.8013 -0.3095
  109OSM   H13G11303   6.431   3.069   9.172 -0.7544  0.3775  1.6632
  109OSM   C14F11304   6.278   3.034   9.042  0.6200 -0.2396 -0.5036
  109OSM   H14F11305   6.222   3.130   9.043  0.6418 -0.2194  0.8596
  109OSM   H14G11306   6.193   2.964   9.029  1.0761 -1.0946  0.8737
  109OSM   C15F11307   6.370   3.020   8.915  0.4764  0.0730  0.6297
  109OSM   H15F11308   6.418   2.920   8.922 -0.8913 -0.5745  1.1444
  109OSM   H15G11309   6.448   3.099   8.922 -0.2772  0.9207 -0.1993
  109OSM   C16F11310   6.304   3.025   8.778 -0.7306  0.2102 -0.1867
  109OSM   H16F11311   6.218   2.955   8.777 -0.3227 -0.2968  0.0127
  109OSM   H16G11312   6.385   2.996   8.706 -1.7327  0.0245 -1.2721
  109OSM   C17F11313   6.253   3.166   8.751  0.6438  0.1336  0.4104
  109OSM   H17F11314   6.336   3.236   8.772 -0.5634  1.8354 -0.2701
  109OSM   H17G11315   6.178   3.183   8.831  0.4659  0.7356  0.1249
  109OSM   C18F11316   6.201   3.184   8.610 -0.5273 -0.2759  0.7049
  109OSM   H18F11317   6.131   3.270   8.602 -0.8933 -0.6843 -0.7060
  109OSM   H18G11318   6.133   3.104   8.575 -0.7840  0.7083 -1.1697
  109OSM   H18H11319   6.286   3.201   8.541  0.3025  1.3674  2.0311
  110OSM      N11320   1.265   1.784  11.275 -0.4543  0.1315  0.7582
  110OSM    C1511321   1.241   1.628  11.279  0.0377  0.1893 -0.0255
  110OSM   H15A11322   1.214   1.606  11.177 -0.2362  0.9864 -0.1332
  110OSM   H15B11323   1.156   1.596  11.338  0.2064  1.3008  0.8592
  110OSM   H15C11324   1.328   1.574  11.313  0.9416  0.5219 -1.7031
  110OSM    C1411325   1.142   1.858  11.247  0.6115  0.1752 -0.8884
  110OSM   H14A11326   1.141   1.966  11.247 -2.7210  0.2696 -0.7378
  110OSM   H14B11327   1.075   1.827  11.326 -1.1764  1.2966 -1.8665
  110OSM   H14C11328   1.081   1.824  11.164  0.6974 -0.0999 -0.8379
  110OSM    C1311329   1.314   1.822  11.409  0.1806 -0.7495 -0.0694
  110OSM   H13A11330   1.394   1.754  11.436  0.2691 -1.9569 -2.9528
  110OSM   H13B11331   1.235   1.798  11.479  1.4129  0.9145  2.0373
  110OSM   H13C11332   1.349   1.924  11.417 -1.3728 -0.3199  2.0795
  110OSM    C1211333   1.374   1.817  11.170  0.3000 -0.5296  0.2768
  110OSM   H12A11334   1.465   1.763  11.193  0.7365 -0.9020 -2.0212
  110OSM   H12B11335   1.395   1.922  11.179 -0.2424 -0.4259  0.3687
  110OSM    C1111336   1.341   1.780  11.018 -0.4366 -0.0048  0.0369
  110OSM   H11A11337   1.423   1.830  10.962  2.7730 -0.6673  3.6434
  110OSM   H11B11338   1.247   1.834  10.994  0.2799  1.4053  0.2808
  110OSM      P11339   1.481   1.573  11.000  0.0904  0.2181  0.0135
  110OSM    O1311340   1.561   1.611  11.119 -0.0444 -0.2129  0.5247
  110OSM    O1411341   1.472   1.428  10.973  0.1258 -0.3934  0.6495
  110OSM    O1111342   1.551   1.651  10.883  0.4438  0.2439  0.5938
  110OSM    O1211343   1.337   1.638  11.008 -0.0557 -1.0517  0.1031
  110OSM    C1S11344   1.539   1.593  10.745  0.1710  0.5560 -0.0392
  110OSM    H1S11345   1.434   1.561  10.730  0.3964  0.1994 -0.8883
  110OSM    H1T11346   1.614   1.512  10.731  0.3998  0.6419  0.6161
  110OSM     NF11347   1.574   1.639  10.507 -0.0599  0.2556 -0.1558
  110OSM    HNF11348   1.664   1.620  10.470  0.0702  0.4868  0.0409
  110OSM    C2S11349   1.573   1.700  10.640 -1.1144  0.2074  0.4621
  110OSM    H2S11350   1.495   1.779  10.636 -0.9442  0.4251 -3.9848
  110OSM    C3S11351   1.712   1.769  10.679  0.4437  0.2323 -0.1225
  110OSM    H3S11352   1.787   1.687  10.690  0.5320  0.1209 -1.4264
  110OSM     O311353   1.716   1.843  10.807  0.5467 -0.4791  0.5979
  110OSM    HO311354   1.628   1.825  10.840  0.6254 -0.5494  0.7655
  110OSM    C4S11355   1.751   1.870  10.581  0.4293  0.7934  0.0935
  110OSM    H4S11356   1.691   1.963  10.581  2.4290  2.1706 -1.4316
  110OSM    C5S11357   1.846   1.867  10.488 -0.5394 -0.3262 -0.3786
  110OSM    H5S11358   1.920   1.785  10.485 -0.8760 -0.7874  2.0173
  110OSM    C6S11359   1.881   1.974  10.395 -0.5646 -0.4618 -0.6663
  110OSM    H6S11360   1.987   2.005  10.405 -0.9304  0.3476  1.1236
  110OSM    H6T11361   1.824   2.069  10.406  0.4937  0.1867 -0.7222
  110OSM    C7S11362   1.873   1.913  10.255  0.3503  0.2048 -0.3952
  110OSM    H7S11363   1.769   1.881  10.233  0.3257  1.3892 -2.2729
  110OSM    H7T11364   1.936   1.822  10.247 -2.3746 -1.7430 -1.0492
  110OSM    C8S11365   1.900   2.015  10.153 -1.4285 -0.3832  0.8656
  110OSM    H8S11366   2.007   2.045  10.145 -1.5505 -0.0266  0.5150
  110OSM    H8T11367   1.836   2.103  10.172  0.1843  0.7037  1.4702
  110OSM    C9S11368   1.866   1.965  10.010 -0.3549 -0.1308 -1.0289
  110OSM    H9S11369   1.757   1.950   9.997 -0.3879  1.5668 -3.2305
  110OSM    H9T11370   1.918   1.867  10.005 -0.9940 -0.4076 -3.5332
  110OSM   C10S11371   1.907   2.065   9.896  0.3047  0.5810 -0.5831
  110OSM   H10S11372   2.011   2.099   9.914  0.2182  0.5189  0.0620
  110OSM   H10T11373   1.837   2.150   9.909  0.5554  0.5272  1.4260
  110OSM   C11S11374   1.883   2.003   9.757 -0.0166 -0.3916  0.1583
  110OSM   H11S11375   1.774   1.988   9.738 -0.7095  1.8829  1.8336
  110OSM   H11T11376   1.931   1.904   9.747  1.4224  0.4905 -3.2398
  110OSM   C12S11377   1.930   2.099   9.647  0.5697 -0.3016 -0.2159
  110OSM   H12S11378   2.033   2.130   9.672  1.0906  0.1497 -2.6495
  110OSM   H12T11379   1.866   2.190   9.642  1.8862  1.0630  3.9300
  110OSM   C13S11380   1.942   2.029   9.516  0.4328 -0.0440 -0.1388
  110OSM   H13S11381   1.841   2.005   9.476 -0.5093 -0.5371  2.3481
  110OSM   H13T11382   1.995   1.932   9.525 -0.8290 -0.6574  0.9649
  110OSM   C14S11383   2.022   2.112   9.407  0.8129  0.2205  0.2445
  110OSM   H14S11384   2.124   2.069   9.409  0.1096 -1.6734 -1.2861
  110OSM   H14T11385   2.025   2.221   9.427  0.7419  0.5881 -1.6210
  110OSM   C15S11386   1.957   2.092   9.266  0.2709  0.3849 -0.6380
  110OSM   H15S11387   1.851   2.124   9.258 -0.0958 -0.1897  1.4197
  110OSM   H15T11388   1.950   1.982   9.249 -1.7779  0.5366 -1.0889
  110OSM   C16S11389   2.041   2.149   9.155  0.4029 -0.3326  0.1528
  110OSM   H16S11390   2.143   2.107   9.151  0.9384  1.0438 -1.7974
  110OSM   H16T11391   2.068   2.249   9.194  0.6626  0.3579 -1.7160
  110OSM   C17S11392   1.983   2.161   9.019 -0.0571 -0.2919  0.0593
  110OSM   H17S11393   1.873   2.177   9.029  0.2905  1.0627  2.8171
  110OSM   H17T11394   1.991   2.064   8.965  1.6615 -0.0698 -0.1382
  110OSM   C18S11395   2.035   2.279   8.938  0.2404 -0.3770  0.8213
  110OSM   H18S11396   2.146   2.265   8.938 -0.0343 -3.0527  0.7891
  110OSM   H18T11397   2.010   2.381   8.974  0.2284 -0.7490  1.9008
  110OSM   H18U11398   1.991   2.266   8.837  0.9638 -0.4430  0.5060
  110OSM    C1F11399   1.458   1.609  10.443 -0.4035  0.0242 -0.6545
  110OSM     OF11400   1.350   1.645  10.494  0.0742 -0.0318 -0.0117
  110OSM    C2F11401   1.472   1.557  10.310  0.3286 -0.1830 -0.0812
  110OSM    H2F11402   1.556   1.483  10.308  1.3878  0.9847 -0.4775
  110OSM    H2G11403   1.511   1.637  10.244  3.4164 -1.5042 -0.0488
  110OSM    C3F11404   1.344   1.498  10.253  1.8320  0.6447 -0.1785
  110OSM    H3F11405   1.260   1.570  10.262 -0.5137 -1.7236 -1.6736
  110OSM    H3G11406   1.313   1.409  10.312  0.0348  1.5766  0.3709
  110OSM    C4F11407   1.346   1.473  10.101  0.1321 -0.0554  0.8322
  110OSM    H4F11408   1.434   1.420  10.060 -0.5254  1.2595 -2.6773
  110OSM    H4G11409   1.368   1.577  10.067  1.9588  0.2530  2.7667
  110OSM    C5F11410   1.212   1.437  10.037 -0.2890  0.3712  0.0634
  110OSM    H5F11411   1.131   1.504  10.073 -1.4473  0.0234 -1.7961
  110OSM    H5G11412   1.196   1.336  10.081 -0.3472  0.9574  1.4459
  110OSM    C6F11413   1.202   1.433   9.880 -0.0020  0.4352 -0.2073
  110OSM    H6F11414   1.291   1.387   9.831 -1.8456 -1.3568 -2.1150
  110OSM    H6G11415   1.180   1.536   9.844  0.5057  0.3928 -0.6644
  110OSM    C7F11416   1.071   1.359   9.838  0.1477 -0.4076  0.6240
  110OSM    H7F11417   0.987   1.410   9.888  1.5968  1.3139  1.4215
  110OSM    H7G11418   1.069   1.251   9.865 -0.5228 -0.5366  0.0896
  110OSM    C8F11419   1.042   1.357   9.689  0.1879  0.6073  0.4895
  110OSM    H8F11420   1.028   1.461   9.652 -1.1672  0.5824  0.8844
  110OSM    H8G11421   0.942   1.311   9.679 -0.7163  2.4985  0.3882
  110OSM    C9F11422   1.144   1.282   9.611 -0.0074 -0.9413  0.5391
  110OSM    H9F11423   1.248   1.287   9.645  0.1957 -0.4997 -0.1431
  110OSM   C10F11424   1.120   1.223   9.496 -0.1567  0.1125 -0.0684
  110OSM   H10F11425   1.206   1.171   9.450 -0.4724 -0.3436 -0.1456
  110OSM   C11F11426   0.991   1.213   9.423 -0.5773  0.1900 -0.1761
  110OSM   H11F11427   0.904   1.188   9.487 -0.8042 -1.2751 -0.9939
  110OSM   H11G11428   0.985   1.121   9.361 -1.8425  0.3233 -0.2764
  110OSM   C12F11429   0.956   1.334   9.339 -0.3954 -0.1406  0.5144
  110OSM   H12F11430   1.012   1.343   9.243  0.9534  0.0001  1.2805
  110OSM   H12G11431   0.984   1.425   9.397  0.2677  0.3449 -0.5153
  110OSM   C13F11432   0.803   1.341   9.305  0.1804  0.2334  0.0393
  110OSM   H13F11433   0.770   1.432   9.250  3.7965  1.4766 -0.3410
  110OSM   H13G11434   0.736   1.347   9.393 -0.9506 -1.2339 -0.6763
  110OSM   C14F11435   0.749   1.222   9.222  0.1074 -0.0513  0.0692
  110OSM   H14F11436   0.665   1.176   9.278  0.7003 -0.7099  0.4372
  110OSM   H14G11437   0.830   1.146   9.223 -0.2377 -0.4194  0.2168
  110OSM   C15F11438   0.720   1.243   9.073 -0.5537  0.3139 -0.0865
  110OSM   H15F11439   0.701   1.139   9.037 -0.1642 -0.6060  2.2187
  110OSM   H15G11440   0.806   1.289   9.018 -0.3458 -1.5130 -1.4018
  110OSM   C16F11441   0.594   1.321   9.044  0.1088  0.0476 -0.8786
  110OSM   H16F11442   0.610   1.424   9.083  1.8943 -0.1599 -0.9873
  110OSM   H16G11443   0.509   1.263   9.088  1.8892 -0.8944  1.5671
  110OSM   C17F11444   0.562   1.349   8.895  0.8907 -0.0098 -0.5627
  110OSM   H17F11445   0.543   1.259   8.833 -0.2034 -1.3849  1.6209
  110OSM   H17G11446   0.650   1.399   8.850  0.4428 -0.6731 -2.2694
  110OSM   C18F11447   0.431   1.445   8.885 -0.1379 -0.0686  0.6207
  110OSM   H18F11448   0.340   1.381   8.890 -0.5539  0.0201 -3.1944
  110OSM   H18G11449   0.429   1.490   8.784  0.4424  1.9780  1.4621
  110OSM   H18H11450   0.421   1.528   8.959 -0.2421  1.6367 -1.2202
  111OSM      N11451   1.834   5.723  11.316  0.4643 -0.2780  0.0139
  111OSM    C1511452   1.974   5.675  11.300  0.5450 -0.6492 -0.5363
  111OSM   H15A11453   2.040   5.742  11.352 -0.5497  1.0681 -1.2689
  111OSM   H15B11454   2.002   5.669  11.196  1.4023  2.3940 -0.5670
  111OSM   H15C11455   1.984   5.572  11.330  2.7076 -1.4121 -3.4575
  111OSM    C1411456   1.803   5.704  11.462  0.7596  0.3932 -0.8421
  111OSM   H14A11457   1.868   5.762  11.525 -0.3676  0.0865  0.6528
  111OSM   H14B11458   1.792   5.600  11.491 -0.4778  0.4448 -1.0758
  111OSM   H14C11459   1.709   5.751  11.489  0.4450 -0.0720 -1.1068
  111OSM    C1311460   1.823   5.870  11.288 -0.0330  0.3433  0.6184
  111OSM   H13A11461   1.861   5.894  11.190 -1.6377 -0.2811 -0.1890
  111OSM   H13B11462   1.874   5.938  11.356 -0.3960  1.6777 -0.3970
  111OSM   H13C11463   1.719   5.897  11.280  0.1933  0.7575 -1.5266
  111OSM    C1211464   1.736   5.650  11.235 -0.6680  0.1131 -0.1678
  111OSM   H12A11465   1.644   5.704  11.254 -0.1003  0.7481  0.9073
  111OSM   H12B11466   1.726   5.550  11.274 -0.1192  0.4802  0.9826
  111OSM    C1111467   1.770   5.630  11.090 -0.1038 -0.4176  0.5681
  111OSM   H11A11468   1.679   5.590  11.040 -1.9278  2.6797  1.1956
  111OSM   H11B11469   1.855   5.558  11.080 -0.3870 -0.6918  0.0788
  111OSM      P11470   1.741   5.834  10.939 -0.0057  0.6212  0.3200
  111OSM    O1311471   1.600   5.836  10.982 -0.3220 -0.1327  0.3610
  111OSM    O1411472   1.804   5.966  10.923 -0.2077  0.2760 -0.0116
  111OSM    O1111473   1.741   5.757  10.804  0.3959 -0.2710 -0.2835
  111OSM    O1211474   1.828   5.746  11.033  0.0061  0.0043 -0.4666
  111OSM    C1S11475   1.640   5.665  10.770 -0.0721 -0.1523  1.2949
  111OSM    H1S11476   1.543   5.717  10.782  0.6044  2.1399 -1.7696
  111OSM    H1T11477   1.647   5.567  10.821 -0.2068 -0.0037  1.6053
  111OSM     NF11478   1.520   5.597  10.576 -0.3683  0.8163 -1.0696
  111OSM    HNF11479   1.496   5.501  10.588 -1.1091  1.1153 -0.0140
  111OSM    C2S11480   1.649   5.648  10.619 -0.1132  0.2324 -0.5056
  111OSM    H2S11481   1.665   5.749  10.578  0.9187  0.4928  0.4785
  111OSM    C3S11482   1.769   5.555  10.573  0.0475  0.3625 -0.3062
  111OSM    H3S11483   1.752   5.447  10.592 -2.3162  0.1790 -2.8382
  111OSM     O311484   1.883   5.585  10.652 -0.2503 -0.1633  0.4861
  111OSM    HO311485   1.847   5.635  10.726  1.2238 -2.2604  2.7664
  111OSM    C4S11486   1.804   5.578  10.429 -0.2461 -0.1700 -0.4667
  111OSM    H4S11487   1.861   5.670  10.409 -0.3191 -0.4707 -2.2771
  111OSM    C5S11488   1.792   5.492  10.323  0.2651  0.0821 -1.5483
  111OSM    H5S11489   1.749   5.392  10.337  1.8137 -0.3257  1.0996
  111OSM    C6S11490   1.845   5.516  10.185 -0.3979 -0.5611 -0.1589
  111OSM    H6S11491   1.937   5.456  10.167  1.7055  2.8300 -1.6606
  111OSM    H6T11492   1.875   5.623  10.183  0.4984 -0.7925  0.2785
  111OSM    C7S11493   1.742   5.490  10.076 -0.0138  0.0418  0.6857
  111OSM    H7S11494   1.660   5.563  10.090  0.2553  0.5887 -0.4094
  111OSM    H7T11495   1.680   5.399  10.089 -1.7193  0.9268 -0.8329
  111OSM    C8S11496   1.789   5.535   9.928  0.6257  0.1677 -0.7724
  111OSM    H8S11497   1.894   5.502   9.916  0.3100 -0.6564 -1.4586
  111OSM    H8T11498   1.806   5.645   9.925  1.4451  0.2185  2.6515
  111OSM    C9S11499   1.689   5.485   9.825  0.1190 -0.2454  0.1511
  111OSM    H9S11500   1.591   5.501   9.875  0.1699 -0.7084  0.3962
  111OSM    H9T11501   1.709   5.377   9.815 -0.6514 -0.5618  1.7499
  111OSM   C10S11502   1.699   5.547   9.681 -0.1359  0.4699 -0.1623
  111OSM   H10S11503   1.679   5.655   9.696 -1.4612  0.2060  0.0935
  111OSM   H10T11504   1.619   5.496   9.623  1.1419 -1.9892  0.1088
  111OSM   C11S11505   1.828   5.524   9.606 -0.2462 -0.4130  0.1328
  111OSM   H11S11506   1.847   5.418   9.577  0.6857  0.4945 -3.0625
  111OSM   H11T11507   1.918   5.549   9.667 -0.1369  2.5788 -1.0812
  111OSM   C12S11508   1.839   5.599   9.474 -0.2287 -0.1846  0.7968
  111OSM   H12S11509   1.869   5.702   9.503  0.6369 -0.3418  0.4740
  111OSM   H12T11510   1.736   5.608   9.433 -0.0554 -0.7404  0.2201
  111OSM   C13S11511   1.935   5.553   9.378 -0.9154  0.0384 -0.2492
  111OSM   H13S11512   1.895   5.454   9.347 -0.6755 -0.2896  0.4683
  111OSM   H13T11513   2.024   5.536   9.441 -0.9136  2.8789  0.6478
  111OSM   C14S11514   1.961   5.644   9.252 -0.2504 -0.4281 -0.2657
  111OSM   H14S11515   2.050   5.625   9.189 -0.1028 -0.8549  0.0690
  111OSM   H14T11516   1.979   5.743   9.299  2.6841 -0.5744 -0.8933
  111OSM   C15S11517   1.839   5.663   9.167  0.8133 -0.2079 -0.4137
  111OSM   H15S11518   1.755   5.699   9.230  1.3445  2.2940 -1.0045
  111OSM   H15T11519   1.812   5.563   9.127  0.8373 -0.2645 -0.2892
  111OSM   C16S11520   1.853   5.758   9.041 -0.6085  0.0081 -0.1487
  111OSM   H16S11521   1.835   5.864   9.070 -0.9952 -0.4946  1.6013
  111OSM   H16T11522   1.768   5.732   8.975 -1.6871  0.8938  0.8474
  111OSM   C17S11523   1.988   5.748   8.969 -0.3907 -0.5212  0.2068
  111OSM   H17S11524   2.014   5.641   8.951 -1.0224 -0.2695 -2.6774
  111OSM   H17T11525   2.070   5.790   9.031 -0.1194 -0.4034 -0.2243
  111OSM   C18S11526   1.977   5.824   8.831  0.0614  0.6331 -0.6182
  111OSM   H18S11527   1.888   5.785   8.778 -1.4251  2.3346  0.5376
  111OSM   H18T11528   2.065   5.796   8.769  0.5227  0.7290 -0.0204
  111OSM   H18U11529   1.958   5.932   8.844 -1.0340  0.3172  0.5861
  111OSM    C1F11530   1.418   5.676  10.540  0.4151 -0.1115 -0.5288
  111OSM     OF11531   1.430   5.794  10.522  0.1731  0.4862 -0.2523
  111OSM    C2F11532   1.280   5.616  10.530 -0.0428  0.5235  0.4029
  111OSM    H2F11533   1.222   5.633  10.624  1.5228 -1.4827  1.8335
  111OSM    H2G11534   1.298   5.506  10.522 -2.0054  0.3023 -1.9337
  111OSM    C3F11535   1.191   5.649  10.405  0.6081 -0.6533 -0.1355
  111OSM    H3F11536   1.167   5.758  10.398 -2.1090 -1.1984 -0.3133
  111OSM    H3G11537   1.091   5.602  10.401 -0.4808  1.5709 -0.6338
  111OSM    C4F11538   1.274   5.614  10.276  0.3352  0.2952  0.2918
  111OSM    H4F11539   1.290   5.506  10.258 -0.3688  0.2372 -0.0477
  111OSM    H4G11540   1.367   5.675  10.276  1.9297 -1.9914  1.4939
  111OSM    C5F11541   1.207   5.656  10.143  0.5106 -0.3263 -0.2624
  111OSM    H5F11542   1.177   5.763  10.149  0.7173 -0.3220  0.8670
  111OSM    H5G11543   1.115   5.600  10.115  0.6834 -0.4157 -0.6498
  111OSM    C6F11544   1.307   5.643  10.030  0.2533 -0.3605  0.7686
  111OSM    H6F11545   1.339   5.538  10.014 -0.5827 -0.4323 -0.5195
  111OSM    H6G11546   1.398   5.700  10.058  0.1738 -0.2106  0.7218
  111OSM    C7F11547   1.266   5.710   9.902  0.4260  0.9518  0.0901
  111OSM    H7F11548   1.232   5.813   9.927  0.1219  1.5647 -2.5943
  111OSM    H7G11549   1.185   5.662   9.843  3.0259 -0.9018 -2.2810
  111OSM    C8F11550   1.380   5.726   9.802  0.5088  0.6818 -0.1709
  111OSM    H8F11551   1.401   5.625   9.761 -0.1476 -0.0112  1.1469
  111OSM    H8G11552   1.480   5.738   9.847  0.6495 -0.8079 -0.0380
  111OSM    C9F11553   1.347   5.830   9.698 -0.1573 -0.8278 -0.0211
  111OSM    H9F11554   1.324   5.928   9.743  0.2409 -0.4718 -0.5783
  111OSM   C10F11555   1.342   5.816   9.562 -0.6653  0.1466 -0.3937
  111OSM   H10F11556   1.314   5.895   9.491 -0.2331 -0.4733 -1.2802
  111OSM   C11F11557   1.388   5.689   9.498  0.4004 -0.8289 -0.4526
  111OSM   H11F11558   1.455   5.624   9.558  1.1808 -0.5748 -1.0440
  111OSM   H11G11559   1.445   5.711   9.406  2.2191 -2.8498  0.1178
  111OSM   C12F11560   1.268   5.610   9.454  0.6357  0.6395  0.7435
  111OSM   H12F11561   1.222   5.653   9.363 -1.9147  0.9930  2.1072
  111OSM   H12G11562   1.193   5.611   9.536 -0.8743  0.1229 -0.5865
  111OSM   C13F11563   1.297   5.466   9.423 -0.0595 -0.0584  0.5236
  111OSM   H13F11564   1.195   5.422   9.412  0.4113 -1.7175  2.2569
  111OSM   H13G11565   1.342   5.418   9.512 -0.0761  1.6293  1.4933
  111OSM   C14F11566   1.378   5.441   9.295 -0.1861 -0.9592  0.4257
  111OSM   H14F11567   1.480   5.487   9.294 -1.1522  1.2970 -0.1463
  111OSM   H14G11568   1.328   5.487   9.207  1.9716 -2.2859 -1.6044
  111OSM   C15F11569   1.389   5.288   9.250  0.1288 -0.4564 -0.4894
  111OSM   H15F11570   1.285   5.252   9.235 -0.5952  0.6579  1.4555
  111OSM   H15G11571   1.440   5.229   9.330  0.4238  0.7085  0.2110
  111OSM   C16F11572   1.467   5.277   9.117 -0.1141  0.2353  0.5349
  111OSM   H16F11573   1.573   5.305   9.134  0.2120 -0.7567  0.2218
  111OSM   H16G11574   1.421   5.349   9.047 -1.5274 -2.6805 -1.7872
  111OSM   C17F11575   1.470   5.133   9.059  0.2780 -0.0789 -0.1996
  111OSM   H17F11576   1.556   5.113   8.991  0.0482 -1.0447 -0.2220
  111OSM   H17G11577   1.377   5.109   9.003  0.5934 -0.6167 -0.5064
  111OSM   C18F11578   1.491   5.020   9.164  0.0766  0.5268  0.7020
  111OSM   H18F11579   1.412   5.025   9.241 -0.4731 -2.0347  0.3958
  111OSM   H18G11580   1.596   5.022   9.202 -0.2108 -3.1194  2.0648
  111OSM   H18H11581   1.469   4.924   9.114 -0.8595  1.1440 -0.1144
  112OSM      N11582   1.689   2.251  11.272 -0.2026 -0.8306 -0.2376
  112OSM    C1511583   1.573   2.329  11.330  0.9556  0.0730 -0.4483
  112OSM   H15A11584   1.538   2.409  11.267  2.1874  1.5078  0.6231
  112OSM   H15B11585   1.600   2.368  11.427 -1.4974 -1.6622  1.0766
  112OSM   H15C11586   1.485   2.267  11.343 -2.0190  3.7509 -1.1380
  112OSM    C1411587   1.802   2.357  11.264  0.0596 -0.2521  0.3021
  112OSM   H14A11588   1.775   2.438  11.197  2.8615  1.0003  0.5316
  112OSM   H14B11589   1.894   2.307  11.238 -1.8691 -3.5909 -0.8114
  112OSM   H14C11590   1.811   2.395  11.364 -1.6781 -0.7476  0.6896
  112OSM    C1311591   1.728   2.139  11.366  0.1365  0.6653 -0.2103
  112OSM   H13A11592   1.790   2.075  11.305  0.1512  1.6562 -1.2783
  112OSM   H13B11593   1.647   2.078  11.403 -1.1405  1.2109 -1.9452
  112OSM   H13C11594   1.789   2.178  11.446 -0.2577 -0.4958  0.6723
  112OSM    C1211595   1.651   2.203  11.136  0.2297 -0.6074  0.7408
  112OSM   H12A11596   1.739   2.157  11.093 -0.8894 -2.3248  0.1909
  112OSM   H12B11597   1.608   2.278  11.072 -0.2118 -2.3734 -1.1142
  112OSM    C1111598   1.551   2.082  11.132  0.4626  0.0948 -0.7192
  112OSM   H11A11599   1.596   2.011  11.205  2.3336  1.6341 -0.2940
  112OSM   H11B11600   1.556   2.023  11.038 -0.1384 -0.1797 -0.5838
  112OSM      P11601   1.306   2.187  11.088 -0.7145  0.3899 -0.6285
  112OSM    O1311602   1.175   2.142  11.138  0.0119  0.6301  0.0801
  112OSM    O1411603   1.330   2.333  11.081  0.0686  0.2668  0.2603
  112OSM    O1111604   1.333   2.133  10.940  0.1499  0.1328 -0.0679
  112OSM    O1211605   1.421   2.116  11.167 -0.0440  0.3047  0.6660
  112OSM    C1S11606   1.225   2.110  10.854 -0.1124  0.0426  0.0610
  112OSM    H1S11607   1.134   2.169  10.876 -1.0564 -0.5324 -2.0227
  112OSM    H1T11608   1.198   2.002  10.864 -0.3977  0.2195  1.4176
  112OSM     NF11609   1.141   2.165  10.618 -0.3850  0.7607  0.0643
  112OSM    HNF11610   1.104   2.087  10.568 -0.9685  0.3504  1.0945
  112OSM    C2S11611   1.259   2.142  10.708 -0.2699 -0.0626 -0.2033
  112OSM    H2S11612   1.320   2.235  10.717 -0.4841 -0.0203  0.8768
  112OSM    C3S11613   1.362   2.032  10.666 -0.8968  0.3873 -0.7902
  112OSM    H3S11614   1.316   1.934  10.690  0.9379 -0.4554 -0.5598
  112OSM     O311615   1.486   2.034  10.744 -0.4768 -0.3936  0.3643
  112OSM    HO311616   1.466   2.085  10.822 -1.5107 -1.3093  0.7267
  112OSM    C4S11617   1.389   2.039  10.517 -0.0176  0.5198  0.2710
  112OSM    H4S11618   1.341   1.962  10.455 -0.4741  0.1894  1.0160
  112OSM    C5S11619   1.480   2.102  10.449 -0.9959  0.2083  0.2520
  112OSM    H5S11620   1.551   2.164  10.506 -0.6549 -0.9379  1.1066
  112OSM    C6S11621   1.498   2.093  10.306  0.0453 -0.6909  0.0500
  112OSM    H6S11622   1.605   2.080  10.280  0.0347 -4.0581  1.2128
  112OSM    H6T11623   1.465   2.192  10.268 -0.4973 -0.2235  1.6771
  112OSM    C7S11624   1.420   1.992  10.222 -0.8851  0.8173  0.1711
  112OSM    H7S11625   1.311   2.003  10.237 -1.5777 -1.9933 -1.9012
  112OSM    H7T11626   1.446   1.891  10.261  2.0899  2.2568  2.3050
  112OSM    C8S11627   1.458   2.002  10.072 -0.2904  0.2109  0.4770
  112OSM    H8S11628   1.567   2.007  10.055 -0.4700 -0.3831 -1.0353
  112OSM    H8T11629   1.410   2.096  10.038 -2.6106 -1.0458  0.0435
  112OSM    C9S11630   1.397   1.889   9.997  0.0711  0.0431 -0.1640
  112OSM    H9S11631   1.290   1.883  10.026 -0.0728  3.4970  0.4720
  112OSM    H9T11632   1.436   1.791  10.032  0.2171  0.4004  0.7061
  112OSM   C10S11633   1.415   1.896   9.847 -1.2934 -0.1852 -0.2686
  112OSM   H10S11634   1.523   1.919   9.834 -0.8964 -2.0641 -0.7108
  112OSM   H10T11635   1.355   1.981   9.809  0.9835  0.8643 -1.7142
  112OSM   C11S11636   1.381   1.777   9.769 -0.0761 -0.5461 -0.0475
  112OSM   H11S11637   1.271   1.765   9.773  0.0811 -2.2315 -0.1206
  112OSM   H11T11638   1.421   1.684   9.813  0.0034 -0.1748  0.6776
  112OSM   C12S11639   1.400   1.783   9.617 -0.4497  0.6455 -0.2001
  112OSM   H12S11640   1.496   1.744   9.578 -2.2324 -2.9362 -1.4260
  112OSM   H12T11641   1.377   1.889   9.591  1.6303  0.9151 -1.1280
  112OSM   C13S11642   1.295   1.698   9.537  0.2620 -0.8913  0.2149
  112OSM   H13S11643   1.188   1.714   9.563  0.4797  0.6821  0.2593
  112OSM   H13T11644   1.313   1.590   9.553  0.0272 -1.0873 -0.7495
  112OSM   C14S11645   1.313   1.709   9.385 -0.1302 -0.1579 -0.3600
  112OSM   H14S11646   1.411   1.666   9.356  0.1922 -1.1831  2.0375
  112OSM   H14T11647   1.309   1.813   9.346  1.0191 -0.2071 -0.6356
  112OSM   C15S11648   1.213   1.629   9.298 -0.0401 -0.4794 -0.1068
  112OSM   H15S11649   1.113   1.676   9.296  0.6909  1.1248 -0.7876
  112OSM   H15T11650   1.209   1.525   9.337  1.7505 -0.2060  0.9417
  112OSM   C16S11651   1.261   1.626   9.152 -0.1394 -0.6360  0.1599
  112OSM   H16S11652   1.359   1.574   9.147 -0.2582 -0.9507  0.9075
  112OSM   H16T11653   1.276   1.731   9.119 -2.1937 -0.0538  0.9232
  112OSM   C17S11654   1.156   1.561   9.057  0.2784  0.6948  0.5927
  112OSM   H17S11655   1.122   1.463   9.096 -0.7381 -0.2490 -2.4341
  112OSM   H17T11656   1.199   1.531   8.959 -0.3114 -1.3434  0.9208
  112OSM   C18S11657   1.039   1.645   9.027  0.1169  0.0083  0.3332
  112OSM   H18S11658   1.069   1.741   8.980  3.0834 -2.3107 -3.0682
  112OSM   H18T11659   0.980   1.671   9.118 -0.8395 -0.5675 -0.1133
  112OSM   H18U11660   0.970   1.583   8.967 -2.1157  1.8411  0.8525
  112OSM    C1F11661   1.080   2.275  10.638  0.0717 -0.4922  1.6207
  112OSM     OF11662   1.120   2.351  10.722  0.7727  0.3040 -0.4005
  112OSM    C2F11663   0.965   2.311  10.548  0.2055 -0.4156  0.8232
  112OSM    H2F11664   0.874   2.314  10.611 -0.1610 -1.0065  0.3322
  112OSM    H2G11665   0.934   2.231  10.477 -0.0752 -0.8539  1.4302
  112OSM    C3F11666   0.977   2.449  10.465 -0.3589 -0.1619  0.6826
  112OSM    H3F11667   0.974   2.538  10.530  0.9977  0.8358 -0.5540
  112OSM    H3G11668   0.891   2.467  10.397  0.1953  0.4576  0.1332
  112OSM    C4F11669   1.113   2.469  10.394 -0.3104  0.7050  0.4963
  112OSM    H4F11670   1.195   2.485  10.467 -0.0674 -0.6213  0.5318
  112OSM    H4G11671   1.101   2.560  10.330  1.6692 -0.6380 -2.0048
  112OSM    C5F11672   1.152   2.349  10.305 -0.3977  0.5622  0.1819
  112OSM    H5F11673   1.138   2.247  10.345  3.3710  0.2343  1.0614
  112OSM    H5G11674   1.262   2.359  10.294 -0.6454  0.4216 -4.3319
  112OSM    C6F11675   1.078   2.363  10.166 -0.1663 -0.2857 -0.3651
  112OSM    H6F11676   1.101   2.465  10.129  1.5209 -0.2356  0.7176
  112OSM    H6G11677   0.971   2.373  10.194 -0.0635  3.2058 -0.7750
  112OSM    C7F11678   1.108   2.260  10.050  0.4489 -0.1406 -0.4436
  112OSM    H7F11679   1.022   2.190  10.036  0.3417 -0.5695  1.9501
  112OSM    H7G11680   1.187   2.199  10.098 -0.2567 -0.5899  0.1781
  112OSM    C8F11681   1.159   2.313   9.913 -0.2377 -0.4453 -0.1745
  112OSM    H8F11682   1.267   2.340   9.911 -0.1078 -0.7479  1.5220
  112OSM    H8G11683   1.105   2.405   9.880  1.3489  0.9536  1.0022
  112OSM    C9F11684   1.152   2.211   9.807 -0.4814  0.2116  0.5099
  112OSM    H9F11685   1.184   2.113   9.847  0.5726  0.4427  0.2702
  112OSM   C10F11686   1.099   2.216   9.682  0.5298  0.4068  0.2381
  112OSM   H10F11687   1.101   2.130   9.613 -1.5332  1.2801 -0.9993
  112OSM   C11F11688   1.030   2.334   9.627  0.5221 -0.5440 -0.0658
  112OSM   H11F11689   1.060   2.413   9.699 -0.5873 -0.6155  0.4980
  112OSM   H11G11690   0.919   2.325   9.632  0.3266  1.5533 -0.0222
  112OSM   C12F11691   1.073   2.373   9.485 -0.0652 -0.3603 -1.2264
  112OSM   H12F11692   1.058   2.278   9.428 -0.6592  0.0114 -1.7043
  112OSM   H12G11693   1.180   2.401   9.488 -0.1889  0.0596  1.2306
  112OSM   C13F11694   0.996   2.500   9.436  0.5449 -0.5034 -0.0412
  112OSM   H13F11695   1.002   2.573   9.519  0.3708 -1.7874  1.1327
  112OSM   H13G11696   0.888   2.481   9.417  0.2442  0.4301  0.6760
  112OSM   C14F11697   1.071   2.561   9.314 -0.0751  0.0583  0.6798
  112OSM   H14F11698   1.180   2.548   9.328 -0.0456  0.4172  0.7696
  112OSM   H14G11699   1.046   2.668   9.303  2.6270  0.7895  0.8788
  112OSM   C15F11700   1.058   2.478   9.178 -0.1727 -0.9051 -0.2928
  112OSM   H15F11701   0.960   2.501   9.131 -0.4369  2.7126  1.6660
  112OSM   H15G11702   1.079   2.371   9.199  0.0927 -0.5704  1.2548
  112OSM   C16F11703   1.157   2.540   9.065 -0.0423  0.3692  0.1389
  112OSM   H16F11704   1.159   2.473   8.976 -0.2437 -1.0658  1.1916
  112OSM   H16G11705   1.257   2.545   9.112 -0.9031 -0.0173  2.0962
  112OSM   C17F11706   1.120   2.688   9.032 -0.0586  0.0318 -0.5817
  112OSM   H17F11707   1.175   2.756   9.101  0.2996  1.8677 -2.5885
  112OSM   H17G11708   1.014   2.706   9.062  0.0000 -1.5534  0.7691
  112OSM   C18F11709   1.154   2.719   8.889  0.3836  0.5084  0.0509
  112OSM   H18F11710   1.261   2.708   8.864  0.4468  0.7495  0.2074
  112OSM   H18G11711   1.133   2.825   8.863 -1.6217 -0.0817 -0.9510
  112OSM   H18H11712   1.087   2.656   8.827  0.2165  2.7329 -2.1803
  113OSM      N11713   0.109   0.116  11.468 -0.3321  0.2987 -0.6321
  113OSM    C1511714   0.025   0.095  11.589 -0.0179 -0.1310  0.0394
  113OSM   H15A11715  -0.018   0.192  11.610 -0.6942 -0.3221 -0.4072
  113OSM   H15B11716   0.081   0.057  11.673 -0.5453 -0.2515  0.3446
  113OSM   H15C11717  -0.060   0.032  11.566 -0.6165  1.1478 -1.4437
  113OSM    C1411718   0.214   0.214  11.508  0.1804  0.3893  0.2538
  113OSM   H14A11719   0.271   0.241  11.420  0.3423 -1.8207 -0.3658
  113OSM   H14B11720   0.280   0.175  11.583  0.0614 -2.0181 -0.7953
  113OSM   H14C11721   0.171   0.305  11.549 -3.9802 -1.7586  1.2027
  113OSM    C1311722   0.179  -0.013  11.440  0.4541 -0.0696 -0.9436
  113OSM   H13A11723   0.209  -0.055  11.534 -0.9390  1.4187  0.2289
  113OSM   H13B11724   0.261  -0.001  11.371 -0.8756  0.9044 -2.4499
  113OSM   H13C11725   0.108  -0.083  11.399 -1.0947 -0.2792  1.8263
  113OSM    C1211726   0.026   0.165  11.350  0.0673  0.0993  0.4330
  113OSM   H12A11727  -0.015   0.262  11.373  0.3609 -0.2657  2.7273
  113OSM   H12B11728  -0.045   0.086  11.330 -1.1063  0.8322  1.5457
  113OSM    C1111729   0.092   0.189  11.217  0.7277  1.1250 -0.5154
  113OSM   H11A11730   0.004   0.204  11.151  0.6795  3.4227 -0.0165
  113OSM   H11B11731   0.153   0.103  11.184  2.8315  2.2004  0.3470
  113OSM      P11732   0.151   0.446  11.217  0.2051  0.4680 -0.0288
  113OSM    O1311733   0.077   0.483  11.341 -0.6950 -0.2712 -0.0399
  113OSM    O1411734   0.269   0.523  11.190 -0.2009 -0.1067  0.5807
  113OSM    O1111735   0.058   0.470  11.096  0.7091  0.5707 -0.3914
  113OSM    O1211736   0.187   0.292  11.224 -0.0029  0.2708 -0.2492
  113OSM    C1S11737   0.114   0.471  10.963  0.3030  0.0740 -0.1333
  113OSM    H1S11738   0.179   0.381  10.959 -0.6054 -0.6820  1.3027
  113OSM    H1T11739   0.177   0.561  10.944 -0.0782  0.4806  0.5047
  113OSM     NF11740   0.075   0.463  10.717  0.0688 -0.1645 -0.1861
  113OSM    HNF11741   0.084   0.553  10.674  3.2575  0.5845  1.7508
  113OSM    C2S11742   0.002   0.463  10.851  0.1266  0.3730  0.1437
  113OSM    H2S11743  -0.045   0.363  10.863  1.4011 -0.3564 -0.5688
  113OSM    C3S11744  -0.096   0.587  10.866 -0.0975 -0.2647  0.3685
  113OSM    H3S11745  -0.043   0.684  10.860  0.4579 -0.5054  1.2978
  113OSM     O311746  -0.152   0.599  10.994  0.1692 -0.9943 -0.4904
  113OSM    HO311747  -0.109   0.534  11.050  1.9062 -0.4487 -1.1387
  113OSM    C4S11748  -0.209   0.567  10.766 -0.1372 -0.5483 -0.3666
  113OSM    H4S11749  -0.183   0.614  10.670  1.9531 -1.3275 -0.2316
  113OSM    C5S11750  -0.324   0.492  10.770  0.3045 -0.7494 -0.3190
  113OSM    H5S11751  -0.341   0.430  10.860 -4.5368  0.5963 -0.0359
  113OSM    C6S11752  -0.420   0.472  10.658 -0.5660  0.8831  0.1033
  113OSM    H6S11753  -0.527   0.474  10.688 -0.8446 -1.1241 -0.6173
  113OSM    H6T11754  -0.399   0.369  10.622  0.5675  0.9370  0.5678
  113OSM    C7S11755  -0.399   0.582  10.536  0.7572  0.5481 -1.0885
  113OSM    H7S11756  -0.305   0.568  10.479  0.4642 -1.0173 -1.2322
  113OSM    H7T11757  -0.387   0.686  10.573  0.3071  0.8283 -1.7138
  113OSM    C8S11758  -0.514   0.572  10.432  0.0153  0.0729 -0.8106
  113OSM    H8S11759  -0.544   0.672  10.395 -1.0748  0.8556  1.9142
  113OSM    H8T11760  -0.608   0.535  10.479  0.3093 -0.9351 -1.0008
  113OSM    C9S11761  -0.483   0.488  10.312 -0.3849  0.4454  0.1234
  113OSM    H9S11762  -0.481   0.381  10.343  0.6396  0.5491  0.4593
  113OSM    H9T11763  -0.380   0.498  10.270 -0.4087 -3.4884 -1.3214
  113OSM   C10S11764  -0.582   0.514  10.194  0.1509 -0.0042  0.0430
  113OSM   H10S11765  -0.629   0.613  10.212  0.3032  0.3149 -1.2323
  113OSM   H10T11766  -0.666   0.441  10.195  1.5608 -1.7002  0.1544
  113OSM   C11S11767  -0.527   0.519  10.048  0.4855  0.6753 -0.3051
  113OSM   H11S11768  -0.460   0.432  10.032  0.8187  1.0797 -1.1572
  113OSM   H11T11769  -0.455   0.603  10.040  0.7009  0.3563 -1.9306
  113OSM   C12S11770  -0.636   0.542   9.941  0.0801 -0.2408 -0.3014
  113OSM   H12S11771  -0.691   0.638   9.947  1.3659  0.4321  1.8679
  113OSM   H12T11772  -0.715   0.463   9.944  0.9758 -1.1453  1.4430
  113OSM   C13S11773  -0.579   0.537   9.800 -0.2454 -0.1928 -0.9034
  113OSM   H13S11774  -0.523   0.442   9.787  3.1560  1.5822 -0.3390
  113OSM   H13T11775  -0.492   0.606   9.795  1.6772 -2.4788 -0.9702
  113OSM   C14S11776  -0.679   0.556   9.691  1.2158 -0.6107  0.2556
  113OSM   H14S11777  -0.713   0.661   9.707  1.1328 -0.8662  1.9868
  113OSM   H14T11778  -0.770   0.493   9.701  1.4368 -1.1110 -0.7480
  113OSM   C15S11779  -0.615   0.544   9.552 -0.2866  0.7279 -1.0740
  113OSM   H15S11780  -0.565   0.446   9.538  1.2229  1.5123 -1.2862
  113OSM   H15T11781  -0.531   0.614   9.572 -1.1312  1.0252  1.9196
  113OSM   C16S11782  -0.699   0.572   9.430 -0.2529 -0.4474  0.3689
  113OSM   H16S11783  -0.733   0.677   9.414  1.7615 -0.1376 -2.8953
  113OSM   H16T11784  -0.790   0.509   9.436  0.2824 -1.1409  1.5119
  113OSM   C17S11785  -0.626   0.539   9.299 -0.0342 -0.8746  0.2369
  113OSM   H17S11786  -0.569   0.444   9.310  0.8687 -0.2581  1.0496
  113OSM   H17T11787  -0.548   0.613   9.270 -0.4089 -1.3280 -2.1335
  113OSM   C18S11788  -0.726   0.515   9.192  0.0849 -0.1832  1.0036
  113OSM   H18S11789  -0.767   0.613   9.161  1.0676 -0.0240  0.1571
  113OSM   H18T11790  -0.803   0.441   9.224  0.5055 -1.0521  0.0929
  113OSM   H18U11791  -0.669   0.471   9.107  1.1750  3.4002 -0.2803
  113OSM    C1F11792   0.147   0.368  10.669 -0.0148 -0.0319 -0.6846
  113OSM     OF11793   0.176   0.274  10.749  0.2425 -0.1401 -0.3443
  113OSM    C2F11794   0.228   0.401  10.539 -0.0439 -0.2385 -0.6412
  113OSM    H2F11795   0.332   0.365  10.553  0.5209  0.7832 -2.0451
  113OSM    H2G11796   0.236   0.510  10.522  2.8565 -0.1158  0.8164
  113OSM    C3F11797   0.156   0.332  10.427 -0.0127  0.2438 -0.9681
  113OSM    H3F11798   0.052   0.368  10.413 -0.4128 -0.1012  0.9296
  113OSM    H3G11799   0.160   0.224  10.452  1.9323 -0.2357 -2.9735
  113OSM    C4F11800   0.236   0.337  10.293 -0.5346 -1.0367 -0.3778
  113OSM    H4F11801   0.198   0.249  10.237 -4.5593 -1.2821  2.2701
  113OSM    H4G11802   0.345   0.325  10.309 -0.4532  0.1439  0.0530
  113OSM    C5F11803   0.217   0.470  10.208  0.3827  0.8345 -0.1026
  113OSM    H5F11804   0.243   0.554  10.276  1.0200  1.3387 -0.9445
  113OSM    H5G11805   0.114   0.476  10.168 -0.1615 -0.5174  1.0336
  113OSM    C6F11806   0.307   0.465  10.083 -0.1321  0.5662  0.5782
  113OSM    H6F11807   0.285   0.368  10.035 -2.7047  0.5261  1.6682
  113OSM    H6G11808   0.412   0.460  10.119 -0.0469  0.0754  0.2624
  113OSM    C7F11809   0.279   0.578   9.982  0.9447  0.1558 -0.0281
  113OSM    H7F11810   0.300   0.677  10.028  2.4663 -0.7356  1.2987
  113OSM    H7G11811   0.170   0.577   9.960  1.1993  0.2736 -1.3396
  113OSM    C8F11812   0.350   0.546   9.842  0.5231  0.6539 -0.3246
  113OSM    H8F11813   0.294   0.459   9.801  1.3224 -0.9728  1.8587
  113OSM    H8G11814   0.451   0.503   9.858  0.4888  0.2295 -1.1666
  113OSM    C9F11815   0.363   0.666   9.755  0.4342 -0.2086 -1.1092
  113OSM    H9F11816   0.454   0.726   9.771  0.2996  0.6768 -3.3801
  113OSM   C10F11817   0.286   0.712   9.655 -0.2607 -0.2713 -0.1954
  113OSM   H10F11818   0.316   0.797   9.592  1.0004  0.2734  1.0673
  113OSM   C11F11819   0.161   0.644   9.608 -0.0960  0.1630  0.3261
  113OSM   H11F11820   0.062   0.689   9.630  0.3620  1.0471  0.6093
  113OSM   H11G11821   0.149   0.541   9.649  1.5146 -0.3963 -0.5113
  113OSM   C12F11822   0.165   0.622   9.456 -0.2283  0.6594 -0.1119
  113OSM   H12F11823   0.265   0.583   9.426 -0.7205 -0.4573 -0.3701
  113OSM   H12G11824   0.157   0.725   9.416 -0.3862 -0.0381 -1.9795
  113OSM   C13F11825   0.064   0.526   9.392  0.0184  0.0663 -0.6354
  113OSM   H13F11826  -0.034   0.535   9.443  0.4203 -2.4671  0.7148
  113OSM   H13G11827   0.086   0.420   9.413 -1.3142 -0.3688 -1.2737
  113OSM   C14F11828   0.061   0.555   9.238  0.2661  0.6829 -0.2355
  113OSM   H14F11829   0.170   0.570   9.223  0.4140  0.3253  0.4346
  113OSM   H14G11830  -0.006   0.642   9.220 -1.8645 -0.9440 -0.6451
  113OSM   C15F11831   0.014   0.429   9.162 -0.4140 -0.0420  0.4314
  113OSM   H15F11832  -0.091   0.405   9.190  0.5479 -1.2076  3.4415
  113OSM   H15G11833   0.066   0.345   9.212  0.0075  0.6819  1.2176
  113OSM   C16F11834   0.031   0.413   9.009 -0.1315 -0.5505 -0.2507
  113OSM   H16F11835  -0.014   0.501   8.959 -0.8257 -0.8882 -0.2349
  113OSM   H16G11836  -0.019   0.322   8.969  0.8616 -0.6295 -1.3830
  113OSM   C17F11837   0.186   0.407   8.979 -0.1909  0.5886  0.3446
  113OSM   H17F11838   0.216   0.324   9.046 -1.7694 -1.4788 -1.3672
  113OSM   H17G11839   0.244   0.496   9.012  2.8838 -0.8317 -0.8185
  113OSM   C18F11840   0.232   0.388   8.838  0.0673  0.1378 -0.4936
  113OSM   H18F11841   0.335   0.346   8.831  0.2308  0.3467  0.5429
  113OSM   H18G11842   0.217   0.484   8.783 -4.1208  0.1462  0.3674
  113OSM   H18H11843   0.167   0.311   8.791 -0.2968 -0.1681  0.4936
  114OSM      N11844   0.995   2.606  11.010 -0.5023 -0.0741  0.6477
  114OSM    C1511845   1.056   2.714  10.934  0.3320 -0.3238 -0.3600
  114OSM   H15A11846   1.151   2.692  10.888  0.5711 -1.0731  0.4692
  114OSM   H15B11847   1.077   2.798  10.999 -0.5554 -0.6939  0.4243
  114OSM   H15C11848   0.994   2.752  10.854  1.6699  1.0161 -0.8124
  114OSM    C1411849   1.093   2.550  11.110  0.3976 -0.5332 -0.1195
  114OSM   H14A11850   1.191   2.531  11.069  0.1258 -1.7916 -0.2282
  114OSM   H14B11851   1.053   2.460  11.156 -0.7237 -0.9571 -1.8401
  114OSM   H14C11852   1.126   2.616  11.189 -1.2239 -0.3996  0.4928
  114OSM    C1311853   0.882   2.665  11.080 -0.0544  0.4825  0.1623
  114OSM   H13A11854   0.823   2.579  11.110  0.3414 -0.0074 -0.4506
  114OSM   H13B11855   0.819   2.724  11.016  0.4031 -0.9419 -1.6816
  114OSM   H13C11856   0.920   2.715  11.168 -0.1524 -0.0853  0.5357
  114OSM    C1211857   0.954   2.491  10.917 -0.8763  0.4299  0.2972
  114OSM   H12A11858   1.043   2.458  10.865 -0.9047  0.4039  0.2659
  114OSM   H12B11859   0.887   2.529  10.841 -1.2930  4.6302  2.4436
  114OSM    C1111860   0.891   2.361  10.984  0.4905 -0.1110 -0.1219
  114OSM   H11A11861   0.968   2.317  11.050  1.6334 -1.2304 -2.1228
  114OSM   H11B11862   0.878   2.292  10.899  0.7052  1.8028 -1.7862
  114OSM      P11863   0.632   2.387  11.013  0.0268 -0.0135  0.2771
  114OSM    O1311864   0.592   2.246  11.030  0.2292 -0.5347  0.1486
  114OSM    O1411865   0.563   2.492  11.091  0.2713  0.2328 -0.2744
  114OSM    O1111866   0.647   2.416  10.856  0.0637  0.4526 -0.0999
  114OSM    O1211867   0.778   2.391  11.068  0.2684  0.0414  0.0583
  114OSM    C1S11868   0.628   2.550  10.814  0.1978  0.5314 -0.4887
  114OSM    H1S11869   0.705   2.618  10.857  0.4525 -0.8125  1.2955
  114OSM    H1T11870   0.532   2.596  10.845  0.5979  1.1023 -0.0740
  114OSM     NF11871   0.644   2.694  10.613 -0.3683 -0.1618 -0.5064
  114OSM    HNF11872   0.563   2.728  10.566 -0.0194 -0.7560 -1.5736
  114OSM    C2S11873   0.631   2.553  10.656 -0.4332  0.1712 -0.2606
  114OSM    H2S11874   0.725   2.505  10.622 -0.1245  0.5432  0.0609
  114OSM    C3S11875   0.504   2.488  10.605  0.2079 -0.4929 -0.2827
  114OSM    H3S11876   0.418   2.551  10.640  0.2377 -0.1512 -0.8031
  114OSM     O311877   0.474   2.356  10.659  0.4868 -0.1718 -0.2751
  114OSM    HO311878   0.510   2.369  10.747 -0.1389 -1.2795  0.1666
  114OSM    C4S11879   0.507   2.495  10.458  0.8875  0.2367  0.2376
  114OSM    H4S11880   0.473   2.591  10.416 -0.9688  0.4534  2.0409
  114OSM    C5S11881   0.531   2.390  10.370 -0.2792 -0.7000 -0.0419
  114OSM    H5S11882   0.547   2.287  10.405 -0.3332 -0.3263  1.1418
  114OSM    C6S11883   0.554   2.410  10.227 -0.0128  0.1646  1.0104
  114OSM    H6S11884   0.522   2.328  10.159  1.6262 -0.0516  0.4301
  114OSM    H6T11885   0.665   2.405  10.217 -0.0122 -2.4047  1.4918
  114OSM    C7S11886   0.511   2.544  10.162  0.1071  0.2403  0.1013
  114OSM    H7S11887   0.564   2.632  10.207 -0.4692  0.2406  0.7980
  114OSM    H7T11888   0.404   2.564  10.180  0.1795 -0.2479  1.2131
  114OSM    C8S11889   0.526   2.537  10.014 -0.2009 -0.4745  0.4647
  114OSM    H8S11890   0.630   2.503   9.997  0.7626  1.9220  1.0959
  114OSM    H8T11891   0.521   2.638   9.968 -1.5724  0.2868  2.1694
  114OSM    C9S11892   0.420   2.441   9.938 -0.4453  0.0183 -0.0513
  114OSM    H9S11893   0.319   2.488   9.939 -0.8563 -0.8216  1.6222
  114OSM    H9T11894   0.424   2.343   9.989 -0.4496  0.4980  0.8980
  114OSM   C10S11895   0.472   2.429   9.795  0.0151  0.1692  0.4269
  114OSM   H10S11896   0.433   2.334   9.751  0.5710 -1.2256  2.8070
  114OSM   H10T11897   0.582   2.411   9.794 -0.0841 -0.4773  0.7919
  114OSM   C11S11898   0.434   2.543   9.706 -0.0359  0.2888  0.9058
  114OSM   H11S11899   0.453   2.637   9.762 -1.7313  2.1418 -1.3906
  114OSM   H11T11900   0.324   2.542   9.688 -0.0925 -0.6023  1.2902
  114OSM   C12S11901   0.515   2.547   9.580  0.3054  0.6946 -0.0742
  114OSM   H12S11902   0.626   2.544   9.590  0.1682 -0.2711  1.4469
  114OSM   H12T11903   0.494   2.642   9.527 -2.0161  0.8328  0.9809
  114OSM   C13S11904   0.460   2.438   9.480 -0.4674  0.1045 -0.6501
  114OSM   H13S11905   0.350   2.447   9.473 -0.7341 -2.7741 -1.3440
  114OSM   H13T11906   0.479   2.338   9.525 -0.4617  0.9452  1.3290
  114OSM   C14S11907   0.523   2.463   9.342  0.5085  0.0159  0.8790
  114OSM   H14S11908   0.630   2.438   9.358  0.2179 -0.1785  2.7147
  114OSM   H14T11909   0.502   2.565   9.305  0.1842 -0.3746 -0.0240
  114OSM   C15S11910   0.458   2.368   9.240  0.0755 -0.2658  0.1206
  114OSM   H15S11911   0.351   2.388   9.218  0.0332 -0.6371 -0.0269
  114OSM   H15T11912   0.467   2.271   9.293  1.9626  0.0865  0.5287
  114OSM   C16S11913   0.539   2.361   9.115 -0.0687 -0.1247  0.9588
  114OSM   H16S11914   0.518   2.277   9.045  0.9161  0.0800  0.3943
  114OSM   H16T11915   0.648   2.362   9.136  0.0887 -0.9244  0.2049
  114OSM   C17S11916   0.511   2.493   9.028 -0.3364  0.7179  0.2415
  114OSM   H17S11917   0.558   2.573   9.090  0.1137 -0.2873  1.2163
  114OSM   H17T11918   0.403   2.513   9.011 -0.4022  0.3521  0.2371
  114OSM   C18S11919   0.588   2.482   8.894  0.1895 -0.3324 -0.2954
  114OSM   H18S11920   0.691   2.440   8.901  1.1511  1.6375 -1.6108
  114OSM   H18T11921   0.583   2.578   8.838  0.5608 -1.7111 -2.8270
  114OSM   H18U11922   0.533   2.416   8.824  0.1790  0.0672 -0.6661
  114OSM    C1F11923   0.748   2.769  10.626 -1.2786  0.4931  0.4054
  114OSM     OF11924   0.841   2.726  10.692  0.1150  0.1498 -0.3838
  114OSM    C2F11925   0.745   2.906  10.556 -0.0643 -0.3684  0.0181
  114OSM    H2F11926   0.748   2.982  10.637  3.8549 -1.0802  0.7713
  114OSM    H2G11927   0.652   2.930  10.500 -0.3850  0.9316  1.0375
  114OSM    C3F11928   0.871   2.926  10.466  0.0071  0.0703 -0.7161
  114OSM    H3F11929   0.959   2.898  10.529  1.4962  2.2556 -1.6960
  114OSM    H3G11930   0.887   3.034  10.444  0.0492  0.0762 -0.6599
  114OSM    C4F11931   0.870   2.842  10.340  0.9221 -0.7088  0.9602
  114OSM    H4F11932   0.863   2.736  10.372  0.1550 -0.3590  1.9833
  114OSM    H4G11933   0.971   2.854  10.296  1.1958 -1.1521  1.4537
  114OSM    C5F11934   0.756   2.882  10.244  0.0159 -0.3483 -0.2804
  114OSM    H5F11935   0.746   2.992  10.233  0.7205 -0.2345  0.1577
  114OSM    H5G11936   0.656   2.850  10.280  0.5131  2.6162  4.7317
  114OSM    C6F11937   0.764   2.827  10.103  0.0029 -0.6145 -0.0597
  114OSM    H6F11938   0.659   2.808  10.075  0.1900 -3.3137  0.7449
  114OSM    H6G11939   0.814   2.728  10.110  1.9517  0.3105 -0.2800
  114OSM    C7F11940   0.858   2.908  10.017 -0.2922  0.7143  0.1650
  114OSM    H7F11941   0.958   2.919  10.064  0.5542 -1.3408 -1.0280
  114OSM    H7G11942   0.826   3.010   9.989  0.2156  0.6956 -0.5340
  114OSM    C8F11943   0.893   2.829   9.880  0.1840 -0.0834 -0.2288
  114OSM    H8F11944   0.939   2.730   9.901  0.9119  0.2762 -0.1086
  114OSM    H8G11945   0.976   2.886   9.834 -0.2801 -0.4705 -1.5923
  114OSM    C9F11946   0.767   2.814   9.797  0.1137  0.0536  0.5545
  114OSM    H9F11947   0.692   2.756   9.852  0.0444 -0.3450  0.0500
  114OSM   C10F11948   0.735   2.846   9.672  0.4168 -0.4948 -0.2630
  114OSM   H10F11949   0.633   2.825   9.637  0.9973 -0.4068 -2.1043
  114OSM   C11F11950   0.823   2.926   9.578 -0.0501 -0.3174  0.0162
  114OSM   H11F11951   0.924   2.925   9.624 -1.0435 -1.2686  2.3450
  114OSM   H11G11952   0.782   3.027   9.554  0.6802 -0.5219 -2.3372
  114OSM   C12F11953   0.825   2.863   9.444  0.3039  0.3760  0.9122
  114OSM   H12F11954   0.858   2.757   9.451  2.1304  0.9924  2.3392
  114OSM   H12G11955   0.905   2.915   9.387 -0.2441 -0.1488 -0.3861
  114OSM   C13F11956   0.701   2.864   9.359  0.9311 -0.3988  0.4775
  114OSM   H13F11957   0.644   2.959   9.362 -2.1857 -2.1139  0.5186
  114OSM   H13G11958   0.635   2.779   9.391 -0.9183  1.4392  1.8341
  114OSM   C14F11959   0.724   2.830   9.210 -0.1039  0.1206  0.3129
  114OSM   H14F11960   0.622   2.812   9.170  0.7325 -4.0297 -0.4566
  114OSM   H14G11961   0.781   2.735   9.196  1.2819  1.1057 -1.1385
  114OSM   C15F11962   0.783   2.942   9.131 -0.1826  0.5053 -0.0615
  114OSM   H15F11963   0.891   2.944   9.157  0.1339  1.9375 -1.2988
  114OSM   H15G11964   0.728   3.036   9.154  1.0574  0.7133  2.3385
  114OSM   C16F11965   0.796   2.914   8.975  0.5244  0.6069 -0.2551
  114OSM   H16F11966   0.693   2.923   8.936 -0.1485 -1.1606  0.9809
  114OSM   H16G11967   0.839   2.813   8.957 -0.5247 -0.0792  0.9553
  114OSM   C17F11968   0.879   3.024   8.893  0.2094  0.5052  0.2662
  114OSM   H17F11969   0.909   2.979   8.795  0.3740 -4.3198  2.2545
  114OSM   H17G11970   0.974   3.048   8.945  0.8931 -0.3252 -0.5668
  114OSM   C18F11971   0.805   3.162   8.854 -0.3796 -0.4120  0.3892
  114OSM   H18F11972   0.711   3.142   8.799  0.2807 -1.3468 -0.4325
  114OSM   H18G11973   0.873   3.213   8.782 -2.0875 -0.4752 -1.3424
  114OSM   H18H11974   0.776   3.212   8.949  1.9339  1.2222  0.3387
  115OSM      N11975   4.226   2.359  11.029  0.2229  0.1774 -0.1855
  115OSM    C1511976   4.240   2.291  10.896 -0.1717  0.4550 -0.0333
  115OSM   H15A11977   4.257   2.364  10.818  2.1896 -0.0561 -0.0511
  115OSM   H15B11978   4.152   2.232  10.875  0.0034  1.1682 -3.4552
  115OSM   H15C11979   4.320   2.220  10.894 -0.5591  0.0189 -0.4281
  115OSM    C1411980   4.358   2.409  11.071 -0.9907  0.0289  0.2075
  115OSM   H14A11981   4.403   2.481  11.003  2.1347  1.1427  3.1671
  115OSM   H14B11982   4.432   2.335  11.099  1.5768  1.7352 -1.5894
  115OSM   H14C11983   4.343   2.478  11.152 -0.2816 -1.1032  1.3326
  115OSM    C1311984   4.127   2.476  11.006 -0.2252 -0.5119  0.3879
  115OSM   H13A11985   4.027   2.451  10.972 -0.1648  1.2407 -1.2622
  115OSM   H13B11986   4.175   2.541  10.935 -2.8740  3.1554  1.6329
  115OSM   H13C11987   4.124   2.538  11.094  0.5918 -0.0218  0.0786
  115OSM    C1211988   4.166   2.259  11.134 -0.1256 -0.5796 -0.1712
  115OSM   H12A11989   4.091   2.204  11.079 -0.7419  0.8681 -0.8472
  115OSM   H12B11990   4.129   2.326  11.211  1.3289  1.5284 -1.1894
  115OSM    C1111991   4.259   2.157  11.200  0.3713  0.5176 -0.1899
  115OSM   H11A11992   4.189   2.096  11.262  1.3271 -1.1138 -0.6632
  115OSM   H11B11993   4.321   2.223  11.264 -0.4227  2.4445 -1.3237
  115OSM      P11994   4.453   1.998  11.136  0.4023 -0.2990 -0.0414
  115OSM    O1311995   4.572   2.085  11.128  0.5960  0.1995  0.4339
  115OSM    O1411996   4.423   1.926  11.263 -0.2340 -0.3198  0.1966
  115OSM    O1111997   4.463   1.898  11.016 -0.0142  0.0136  0.3612
  115OSM    O1211998   4.326   2.082  11.102  0.7692 -0.1623 -0.4449
  115OSM    C1S11999   4.380   1.913  10.899  0.3818  0.3582 -0.3482
  115OSM    H1S12000   4.374   2.021  10.871  1.3272  0.0334 -1.8606
  115OSM    H1T12001   4.278   1.873  10.920  0.7624  0.3537  1.6991
  115OSM     NF12002   4.367   1.871  10.658  0.0550 -0.4787 -0.1777
  115OSM    HNF12003   4.296   1.805  10.636 -1.5069  1.3967 -0.9554
  115OSM    C2S12004   4.449   1.844  10.778 -0.9300  0.3369  0.6709
  115OSM    H2S12005   4.550   1.890  10.767 -0.5239 -0.7757 -0.4848
  115OSM    C3S12006   4.456   1.688  10.807 -0.8086  0.1264  0.7392
  115OSM    H3S12007   4.357   1.643  10.828 -0.1102 -0.5300  2.9103
  115OSM     O312008   4.518   1.669  10.933 -0.5631  0.4687  0.1214
  115OSM    HO312009   4.526   1.763  10.949 -0.7137  0.4643  0.2284
  115OSM    C4S12010   4.545   1.628  10.706  0.2106  0.5904 -0.6403
  115OSM    H4S12011   4.648   1.664  10.695  0.9724 -1.0405  0.6971
  115OSM    C5S12012   4.506   1.527  10.631 -0.6221 -0.9104  0.9114
  115OSM    H5S12013   4.404   1.487  10.638 -0.7000 -1.0040 -0.3738
  115OSM    C6S12014   4.586   1.454  10.524 -0.4695  0.1529  0.3090
  115OSM    H6S12015   4.608   1.351  10.562 -0.0624  0.2218  0.2660
  115OSM    H6T12016   4.681   1.503  10.493  0.9565 -1.8663  1.2056
  115OSM    C7S12017   4.500   1.438  10.404 -0.1566  0.7265  0.4134
  115OSM    H7S12018   4.466   1.539  10.376 -2.4283  0.6332  2.4681
  115OSM    H7T12019   4.406   1.384  10.428  0.0565 -0.2629 -0.8324
  115OSM    C8S12020   4.565   1.360  10.282  0.0301  0.7089 -0.3349
  115OSM    H8S12021   4.593   1.259  10.321  1.4958  1.1624 -0.1564
  115OSM    H8T12022   4.661   1.404  10.250  0.1919  0.3714 -0.3207
  115OSM    C9S12023   4.465   1.337  10.170  0.7768  0.0545 -0.9129
  115OSM    H9S12024   4.435   1.436  10.129  2.1437  0.5385 -0.7856
  115OSM    H9T12025   4.372   1.289  10.209  0.7083  1.4698  0.7842
  115OSM   C10S12026   4.508   1.251  10.058  0.2798 -0.2443  0.8637
  115OSM   H10S12027   4.521   1.151  10.106  2.5877 -1.4213 -1.9599
  115OSM   H10T12028   4.600   1.288  10.010  0.0948 -1.1825 -0.2547
  115OSM   C11S12029   4.398   1.234   9.948 -0.6129  0.5447  0.0957
  115OSM   H11S12030   4.394   1.336   9.905 -0.9114  0.6093  0.2699
  115OSM   H11T12031   4.304   1.203   9.998 -1.2772 -0.2039 -1.5748
  115OSM   C12S12032   4.449   1.137   9.844  0.0108 -0.3890  0.6770
  115OSM   H12S12033   4.452   1.030   9.874  0.9202 -0.5928 -0.0990
  115OSM   H12T12034   4.552   1.164   9.813 -0.5900  0.6769 -0.5014
  115OSM   C13S12035   4.380   1.156   9.712  0.2947 -0.1367  0.3129
  115OSM   H13S12036   4.399   1.261   9.681 -0.0855 -0.3567 -0.6927
  115OSM   H13T12037   4.269   1.151   9.721  0.3351 -1.6086  0.2790
  115OSM   C14S12038   4.417   1.045   9.617 -0.4473 -0.2559  0.3658
  115OSM   H14S12039   4.405   0.949   9.671 -0.4143  0.8446  2.4537
  115OSM   H14T12040   4.525   1.054   9.590 -1.0956  3.4835 -1.7688
  115OSM   C15S12041   4.337   1.055   9.488 -0.1464  0.4698 -0.1772
  115OSM   H15S12042   4.351   1.158   9.449  0.8085  0.5510  0.3506
  115OSM   H15T12043   4.232   1.035   9.519  0.4191 -0.9400  0.9453
  115OSM   C16S12044   4.380   0.949   9.384 -0.4270  0.0755 -0.1336
  115OSM   H16S12045   4.368   0.856   9.444  1.4682  1.8029  3.1831
  115OSM   H16T12046   4.486   0.975   9.365 -0.0703 -0.5504  0.9616
  115OSM   C17S12047   4.297   0.945   9.259  0.0929 -0.5580  0.2202
  115OSM   H17S12048   4.194   0.980   9.283  1.1515  2.2159  1.0864
  115OSM   H17T12049   4.290   0.838   9.228  0.6881 -0.2651 -1.0178
  115OSM   C18S12050   4.359   1.030   9.138 -0.5797  0.7614 -0.0093
  115OSM   H18S12051   4.296   1.033   9.047  0.5078  1.9563 -0.7432
  115OSM   H18T12052   4.461   0.995   9.112 -0.1849  1.8640 -0.0030
  115OSM   H18U12053   4.360   1.137   9.168 -1.8862  0.8598 -0.2485
  115OSM    C1F12054   4.380   1.984  10.596  0.1432 -0.3692  0.0598
  115OSM     OF12055   4.466   2.069  10.629  0.0062  0.0548 -0.3933
  115OSM    C2F12056   4.280   2.018  10.487  0.2563 -0.3933 -0.4246
  115OSM    H2F12057   4.178   2.008  10.531  1.1538 -1.2058  1.5793
  115OSM    H2G12058   4.283   1.938  10.410  0.4048 -0.3507 -0.4632
  115OSM    C3F12059   4.298   2.164  10.429  0.4148  0.0750  0.3202
  115OSM    H3F12060   4.386   2.163  10.361  0.4866 -0.0280  0.4131
  115OSM    H3G12061   4.315   2.237  10.512  0.1501 -0.4479  0.8407
  115OSM    C4F12062   4.168   2.202  10.356  0.5314  0.7226  0.8330
  115OSM    H4F12063   4.173   2.305  10.315 -1.4705  0.3971 -0.3479
  115OSM    H4G12064   4.081   2.184  10.423 -0.2414 -3.7015 -1.0348
  115OSM    C5F12065   4.148   2.118  10.227  0.6661 -0.2778  0.3294
  115OSM    H5F12066   4.111   2.015  10.244  2.2085 -1.6972 -3.6896
  115OSM    H5G12067   4.241   2.094  10.171  0.0455 -2.2697  0.1039
  115OSM    C6F12068   4.058   2.188  10.116 -0.7799  0.5872 -0.0342
  115OSM    H6F12069   4.131   2.244  10.053  0.3271 -0.5985  0.1496
  115OSM    H6G12070   4.001   2.260  10.179 -1.2532  1.5036 -1.4773
  115OSM    C7F12071   3.967   2.091  10.042 -0.2124  0.0724 -0.5604
  115OSM    H7F12072   3.876   2.141  10.001  0.0866  3.0089  1.9989
  115OSM    H7G12073   3.931   2.019  10.118 -2.9840  2.1736  0.2937
  115OSM    C8F12074   4.045   2.013   9.938  0.4294 -0.6083  0.9313
  115OSM    H8F12075   3.971   1.943   9.893 -1.3644  2.1186 -0.6916
  115OSM    H8G12076   4.116   1.947   9.992  0.7095 -0.9366  0.1661
  115OSM    C9F12077   4.111   2.083   9.828  0.1998 -0.2546  0.2673
  115OSM    H9F12078   4.169   2.176   9.845 -2.6928  1.7357 -0.0073
  115OSM   C10F12079   4.099   2.058   9.698 -0.6399 -0.8646  0.1854
  115OSM   H10F12080   4.143   2.123   9.621  0.6873 -3.7621 -1.6688
  115OSM   C11F12081   4.022   1.937   9.646  0.6291 -0.1833  0.4645
  115OSM   H11F12082   3.926   1.919   9.700  1.3975 -0.1558  1.8908
  115OSM   H11G12083   4.066   1.840   9.674 -2.0632 -1.7973 -0.5006
  115OSM   C12F12084   3.995   1.949   9.494 -0.4493  0.1009 -0.9447
  115OSM   H12F12085   3.945   2.047   9.481  0.4074  0.8856  1.1395
  115OSM   H12G12086   3.928   1.866   9.462 -1.1227  0.5698 -0.7810
  115OSM   C13F12087   4.107   1.948   9.393 -0.0546 -0.9395  0.1952
  115OSM   H13F12088   4.147   1.844   9.395  1.9197 -0.4727 -4.0314
  115OSM   H13G12089   4.191   2.013   9.425 -2.0171  1.3179  1.0625
  115OSM   C14F12090   4.053   1.991   9.257 -0.3871 -0.4697  0.2612
  115OSM   H14F12091   4.026   2.098   9.245 -1.6384 -0.8881 -0.9161
  115OSM   H14G12092   3.951   1.948   9.240 -1.4418  1.8876  0.3079
  115OSM   C15F12093   4.141   1.946   9.137  0.0121 -0.4337  0.3305
  115OSM   H15F12094   4.185   1.845   9.152  1.2939  0.1549  0.7137
  115OSM   H15G12095   4.233   2.004   9.114  0.7136 -1.4976  0.3389
  115OSM   C16F12096   4.064   1.930   9.013 -0.3881 -0.5418  0.7915
  115OSM   H16F12097   3.974   1.865   9.024 -1.4501  0.4703 -1.3302
  115OSM   H16G12098   4.126   1.893   8.929  0.1945  1.0455  0.4780
  115OSM   C17F12099   4.003   2.067   8.966 -0.0799  0.4384 -0.3122
  115OSM   H17F12100   4.092   2.134   8.957 -0.4471  1.0970  0.7896
  115OSM   H17G12101   3.932   2.105   9.042 -0.4878 -0.4827 -0.2160
  115OSM   C18F12102   3.929   2.071   8.831 -0.5910 -0.4646  0.4474
  115OSM   H18F12103   3.905   2.177   8.810  1.2960 -0.3192 -1.2948
  115OSM   H18G12104   3.834   2.016   8.848  0.5268 -2.3819  0.9121
  115OSM   H18H12105   3.992   2.034   8.747 -0.4077 -2.9833  1.5832
  116OSM      N12106   0.376   3.675  11.333 -0.4511 -0.0151  0.2350
  116OSM    C1512107   0.291   3.581  11.419 -0.4710  0.0851 -0.2371
  116OSM   H15A12108   0.355   3.526  11.487 -2.1573 -1.3531  0.2749
  116OSM   H15B12109   0.249   3.497  11.365  1.4892 -2.7175  2.2017
  116OSM   H15C12110   0.220   3.633  11.481 -1.4961 -0.8228 -0.5969
  116OSM    C1412111   0.281   3.726  11.226 -0.1832 -0.4407 -0.0692
  116OSM   H14A12112   0.345   3.771  11.151 -0.1829  0.0139  0.1971
  116OSM   H14B12113   0.194   3.784  11.252  0.3848  0.9909 -1.1370
  116OSM   H14C12114   0.242   3.637  11.180 -0.6372 -1.4959  2.2361
  116OSM    C1312115   0.428   3.795  11.404 -0.2891 -0.4117 -0.1568
  116OSM   H13A12116   0.340   3.855  11.421  0.0802  0.3786 -0.9233
  116OSM   H13B12117   0.500   3.860  11.355 -1.5919  1.0781 -0.1788
  116OSM   H13C12118   0.459   3.751  11.497 -1.8035 -3.5637 -1.0085
  116OSM    C1212119   0.483   3.589  11.270  0.3249  0.2130  0.5306
  116OSM   H12A12120   0.447   3.517  11.198  0.0536  1.4311 -0.5750
  116OSM   H12B12121   0.538   3.535  11.347 -0.6759 -1.4942  0.1074
  116OSM    C1112122   0.602   3.666  11.206  0.9201  0.3502  1.2264
  116OSM   H11A12123   0.669   3.589  11.163 -0.3142  0.4616 -1.0344
  116OSM   H11B12124   0.655   3.713  11.292 -0.2792  2.0023  1.1111
  116OSM      P12125   0.664   3.856  11.060 -0.0375  0.1810 -0.4606
  116OSM    O1312126   0.605   3.923  10.943 -0.7040  0.3099 -0.2878
  116OSM    O1412127   0.715   3.949  11.163  0.3599 -0.2949  0.5030
  116OSM    O1112128   0.785   3.752  11.031 -0.2681  0.3090 -0.0112
  116OSM    O1212129   0.556   3.753  11.106 -0.4566  0.3017 -0.4580
  116OSM    C1S12130   0.778   3.684  10.905  0.7004  1.1067 -0.1417
  116OSM    H1S12131   0.677   3.643  10.883  1.0715  1.0951 -1.9932
  116OSM    H1T12132   0.833   3.588  10.912 -1.3182 -0.2119 -1.4354
  116OSM     NF12133   0.785   3.716  10.652 -0.4719  0.6112  0.1165
  116OSM    HNF12134   0.850   3.654  10.609  0.9775  2.5900 -0.6966
  116OSM    C2S12135   0.827   3.776  10.788 -0.5098 -0.0978  0.6593
  116OSM    H2S12136   0.772   3.872  10.788  0.1412  0.3492 -1.9783
  116OSM    C3S12137   0.985   3.800  10.803  0.4423 -0.6953 -0.0381
  116OSM    H3S12138   1.040   3.706  10.827  2.2480  0.6824  1.5506
  116OSM     O312139   1.007   3.893  10.912  0.1566  0.0331 -0.3834
  116OSM    HO312140   0.935   3.876  10.973  1.2326 -1.9493  0.4478
  116OSM    C4S12141   1.034   3.867  10.679 -0.4356 -0.5531  0.0517
  116OSM    H4S12142   1.009   3.973  10.665  1.4469 -0.2678 -1.6310
  116OSM    C5S12143   1.107   3.816  10.579 -0.4448 -0.2368  0.0750
  116OSM    H5S12144   1.156   3.718  10.580 -2.1657 -1.1480 -0.5900
  116OSM    C6S12145   1.155   3.900  10.462  0.8748 -1.0204 -0.0890
  116OSM    H6S12146   1.261   3.928  10.482 -0.0279  1.4416  1.8014
  116OSM    H6T12147   1.105   3.999  10.453  1.3404 -0.3551  3.3573
  116OSM    C7S12148   1.152   3.812  10.331  0.1053 -0.6017 -0.1065
  116OSM    H7S12149   1.047   3.777  10.326  0.4106 -1.5196 -0.2331
  116OSM    H7T12150   1.216   3.729  10.367  2.2987  1.2603  0.5338
  116OSM    C8S12151   1.207   3.872  10.203  0.4480  0.1796  0.0080
  116OSM    H8S12152   1.318   3.869  10.194  0.4579 -0.5536  0.2801
  116OSM    H8T12153   1.182   3.980  10.211  1.2849  0.2097  3.8151
  116OSM    C9S12154   1.158   3.791  10.080  0.4726  0.9105 -0.1102
  116OSM    H9S12155   1.048   3.781  10.089  0.3685 -1.2865 -2.6375
  116OSM    H9T12156   1.194   3.687  10.092  1.0930  0.8691 -1.9444
  116OSM   C10S12157   1.186   3.837   9.936  0.5950  0.2582 -0.5994
  116OSM   H10S12158   1.294   3.815   9.922  1.5284  1.5393  3.1373
  116OSM   H10T12159   1.181   3.948   9.938 -2.0912  0.2081  0.3817
  116OSM   C11S12160   1.104   3.775   9.824  0.0186 -0.3115 -0.9926
  116OSM   H11S12161   1.004   3.805   9.862  0.5925  4.6569 -2.6653
  116OSM   H11T12162   1.111   3.665   9.833  0.7379 -0.1606  1.0099
  116OSM   C12S12163   1.129   3.837   9.687  0.1982 -0.3218 -0.2845
  116OSM   H12S12164   1.155   3.944   9.701  0.6089 -0.6892  2.2295
  116OSM   H12T12165   1.031   3.840   9.634 -2.1048  0.5489  3.5992
  116OSM   C13S12166   1.244   3.758   9.618 -0.5038  0.1951  0.0455
  116OSM   H13S12167   1.217   3.651   9.624  0.7282 -0.0380  2.6406
  116OSM   H13T12168   1.335   3.768   9.681 -1.3504  0.2056  1.3022
  116OSM   C14S12169   1.292   3.807   9.474 -0.4429 -0.0466 -0.5367
  116OSM   H14S12170   1.365   3.735   9.432 -3.3216 -2.4300 -1.7878
  116OSM   H14T12171   1.338   3.908   9.484 -0.4502  0.0851 -1.6809
  116OSM   C15S12172   1.188   3.802   9.367  0.2417  0.0080 -0.1647
  116OSM   H15S12173   1.103   3.858   9.411  0.9856 -1.3567  3.3267
  116OSM   H15T12174   1.163   3.694   9.359  0.1823 -0.1978  2.1717
  116OSM   C16S12175   1.234   3.845   9.232 -0.3134 -0.1668  0.6457
  116OSM   H16S12176   1.165   3.820   9.149 -0.0137 -2.2109  0.9711
  116OSM   H16T12177   1.324   3.790   9.197 -0.5477 -0.5350  0.6187
  116OSM   C17S12178   1.241   4.000   9.213 -0.7828  0.2068 -0.0854
  116OSM   H17S12179   1.327   4.049   9.265 -0.5645  0.5400 -0.7476
  116OSM   H17T12180   1.151   4.049   9.256  0.8475  1.1779  2.4838
  116OSM   C18S12181   1.246   4.045   9.072  0.4598  0.1204 -0.4099
  116OSM   H18S12182   1.158   4.003   9.020  0.3757 -0.7653  0.4082
  116OSM   H18T12183   1.338   4.002   9.027  0.7667 -1.2618  1.4072
  116OSM   H18U12184   1.250   4.155   9.063  1.1165 -0.0201 -2.4222
  116OSM    C1F12185   0.662   3.712  10.604 -0.5628 -1.1618  0.4426
  116OSM     OF12186   0.577   3.795  10.637 -0.6710  0.4215  0.1099
  116OSM    C2F12187   0.640   3.621  10.484  0.1549 -0.5260 -0.2623
  116OSM    H2F12188   0.546   3.564  10.496 -0.1227  0.0693  0.5099
  116OSM    H2G12189   0.725   3.550  10.485  1.3628  0.6274  4.7256
  116OSM    C3F12190   0.629   3.700  10.353 -0.4586 -0.2191  0.2111
  116OSM    H3F12191   0.568   3.792  10.365 -2.3783 -1.3352 -0.4597
  116OSM    H3G12192   0.575   3.634  10.281 -0.4907  0.6640 -0.5814
  116OSM    C4F12193   0.769   3.742  10.299 -0.2516  0.5263  0.2636
  116OSM    H4F12194   0.831   3.652  10.279 -0.0522  0.3755  1.4451
  116OSM    H4G12195   0.814   3.807  10.377  0.0661 -0.5273  0.9896
  116OSM    C5F12196   0.761   3.827  10.168 -0.9554  0.3462 -0.5259
  116OSM    H5F12197   0.861   3.870  10.144 -0.5960 -1.6618 -3.0951
  116OSM    H5G12198   0.698   3.917  10.184  2.3260  3.0138 -1.4419
  116OSM    C6F12199   0.721   3.739  10.046 -0.2613 -0.0103 -0.1460
  116OSM    H6F12200   0.624   3.690  10.070 -0.4153 -0.3265 -1.3482
  116OSM    H6G12201   0.799   3.662  10.023 -0.6586 -0.4877  0.0929
  116OSM    C7F12202   0.694   3.820   9.915  0.0923  0.2379 -0.1536
  116OSM    H7F12203   0.785   3.866   9.871  0.4512 -0.3942 -0.0811
  116OSM    H7G12204   0.612   3.893   9.934 -0.4302 -0.6657  1.2892
  116OSM    C8F12205   0.637   3.728   9.802 -0.8029  0.1729  0.8531
  116OSM    H8F12206   0.564   3.655   9.843 -0.5262 -1.2608 -1.0541
  116OSM    H8G12207   0.729   3.675   9.766 -1.3185 -0.2866  0.1877
  116OSM    C9F12208   0.583   3.805   9.682 -0.4298  0.6009  0.2470
  116OSM    H9F12209   0.503   3.879   9.703  1.2909  2.5428  0.2964
  116OSM   C10F12210   0.641   3.815   9.563  0.3946  0.0560  0.2028
  116OSM   H10F12211   0.603   3.882   9.485  0.5643 -1.1936 -0.9898
  116OSM   C11F12212   0.760   3.739   9.517 -0.8155  0.4117 -0.1869
  116OSM   H11F12213   0.762   3.641   9.570 -0.2143  1.3269  1.5802
  116OSM   H11G12214   0.855   3.796   9.530 -1.1220  0.5627  1.6864
  116OSM   C12F12215   0.761   3.700   9.367 -0.3305 -0.0545 -0.3616
  116OSM   H12F12216   0.662   3.664   9.331 -0.2917 -1.1625  0.5540
  116OSM   H12G12217   0.836   3.618   9.360 -1.9215 -1.5967 -0.1915
  116OSM   C13F12218   0.807   3.818   9.279 -0.2285  0.1270  1.0103
  116OSM   H13F12219   0.901   3.873   9.302 -0.7216  1.5435 -0.2115
  116OSM   H13G12220   0.723   3.890   9.279 -1.3892 -1.1803  1.3658
  116OSM   C14F12221   0.821   3.767   9.132  0.2722 -0.0608 -0.2986
  116OSM   H14F12222   0.759   3.677   9.116 -0.0732  0.0180  0.5311
  116OSM   H14G12223   0.928   3.744   9.114 -0.1257 -0.2084 -2.8823
  116OSM   C15F12224   0.778   3.878   9.029  0.5267 -0.1219  0.6233
  116OSM   H15F12225   0.860   3.953   9.025  0.4697 -0.0944 -0.4418
  116OSM   H15G12226   0.684   3.932   9.053  1.0062  0.7380  0.6019
  116OSM   C16F12227   0.748   3.834   8.887  0.4234  0.6056 -0.1729
  116OSM   H16F12228   0.691   3.917   8.840 -0.9075 -0.5764 -0.7244
  116OSM   H16G12229   0.676   3.749   8.887  1.0157 -0.0778 -4.0301
  116OSM   C17F12230   0.862   3.790   8.797 -0.1131 -0.3478 -0.2049
  116OSM   H17F12231   0.814   3.736   8.713 -1.1451  0.9311 -0.4730
  116OSM   H17G12232   0.940   3.725   8.843  1.2312 -0.1297 -2.0668
  116OSM   C18F12233   0.935   3.912   8.728  0.1179 -0.3554 -0.4319
  116OSM   H18F12234   0.857   3.979   8.687 -0.5373 -1.2805 -0.7405
  116OSM   H18G12235   1.004   3.881   8.645 -0.1488 -1.1067 -0.3825
  116OSM   H18H12236   1.004   3.959   8.801 -0.0582 -0.2526 -0.3339
  117OSM      N12237   6.314   6.369  11.042 -0.3929 -0.3213 -0.8850
  117OSM    C1512238   6.239   6.246  11.000  0.3636  0.0822 -0.4308
  117OSM   H15A12239   6.269   6.159  11.057 -0.1316 -0.1208 -0.4739
  117OSM   H15B12240   6.252   6.226  10.894 -1.9213 -2.6685 -0.3328
  117OSM   H15C12241   6.132   6.261  10.998  0.5784  1.7954 -1.8148
  117OSM    C1412242   6.452   6.320  11.074 -0.4077 -0.4680 -0.0384
  117OSM   H14A12243   6.509   6.408  11.098  0.7482 -0.7691 -1.5201
  117OSM   H14B12244   6.491   6.259  10.993 -1.9877 -0.1793 -1.0599
  117OSM   H14C12245   6.460   6.266  11.167  0.3752 -1.6461 -0.7586
  117OSM    C1312246   6.319   6.464  10.928  0.1426  0.0377 -0.5970
  117OSM   H13A12247   6.216   6.474  10.895 -0.0628  1.5532  0.3902
  117OSM   H13B12248   6.374   6.425  10.844 -0.6318  2.3775 -2.2951
  117OSM   H13C12249   6.356   6.560  10.961 -1.4793  0.8259 -0.9559
  117OSM    C1212250   6.247   6.432  11.165 -0.3355 -0.4879  0.2411
  117OSM   H12A12251   6.244   6.362  11.247 -0.8908 -0.6693  0.0675
  117OSM   H12B12252   6.145   6.442  11.132  0.0124  1.1203 -0.4544
  117OSM    C1112253   6.318   6.560  11.223 -0.3380 -0.2425  0.0415
  117OSM   H11A12254   6.262   6.594  11.313  1.7706 -2.3353  2.2851
  117OSM   H11B12255   6.328   6.645  11.151 -1.5879  0.7048  0.9349
  117OSM      P12256   6.573   6.611  11.267  0.3646 -0.4951 -0.2619
  117OSM    O1312257   6.531   6.747  11.304 -0.8569  0.2460  0.4386
  117OSM    O1412258   6.689   6.552  11.343  0.1231 -0.5502  0.4318
  117OSM    O1112259   6.597   6.607  11.117  0.1412  0.2862  0.3626
  117OSM    O1212260   6.446   6.524  11.284 -1.0575 -0.2143  0.2852
  117OSM    C1S12261   6.724   6.613  11.060  0.1935 -0.9528 -0.5327
  117OSM    H1S12262   6.756   6.506  11.061  1.5191 -0.5805  1.3354
  117OSM    H1T12263   6.798   6.676  11.114 -1.3635  0.4407  0.0243
  117OSM     NF12264   6.845   6.654  10.851  0.8248  0.3870  0.2774
  117OSM    HNF12265   6.910   6.728  10.868  0.4720  0.1921  2.8913
  117OSM    C2S12266   6.713   6.666  10.916 -0.2008  0.6381  0.0603
  117OSM    H2S12267   6.647   6.596  10.860  1.3054 -0.5491 -0.3294
  117OSM    C3S12268   6.662   6.805  10.907  0.1825  0.3045  0.2863
  117OSM    H3S12269   6.739   6.875  10.946  2.5877 -2.0821  0.1126
  117OSM     O312270   6.549   6.841  10.991  0.0385  0.4359 -0.0427
  117OSM    HO312271   6.544   6.759  11.041  1.0722 -0.8693 -1.9345
  117OSM    C4S12272   6.634   6.837  10.754  0.3849  0.6992  0.0618
  117OSM    H4S12273   6.716   6.843  10.680 -2.6226  1.0385 -3.5239
  117OSM    C5S12274   6.505   6.826  10.705  0.7263 -0.3383  0.5380
  117OSM    H5S12275   6.421   6.786  10.763 -0.3065  0.4174 -0.4083
  117OSM    C6S12276   6.466   6.838  10.558  0.3204  0.7436  0.2676
  117OSM    H6S12277   6.373   6.898  10.556  0.6014  1.1735 -0.2224
  117OSM    H6T12278   6.431   6.744  10.509 -0.9832  1.1603  0.3608
  117OSM    C7S12279   6.571   6.898  10.468  0.1647 -0.5545  1.0718
  117OSM    H7S12280   6.666   6.841  10.467  0.1506 -0.5787  0.8615
  117OSM    H7T12281   6.597   6.999  10.505  0.3940 -0.5166  0.8078
  117OSM    C8S12282   6.517   6.917  10.326  0.1393  0.1747  0.6265
  117OSM    H8S12283   6.423   6.975  10.324 -1.4952 -2.2871  1.5168
  117OSM    H8T12284   6.490   6.819  10.281  0.3253  1.0584 -1.5568
  117OSM    C9S12285   6.620   6.990  10.243  0.1720  0.0248 -0.5829
  117OSM    H9S12286   6.712   6.928  10.250 -1.1157 -1.8572  0.4282
  117OSM    H9T12287   6.643   7.092  10.279 -0.0475  1.0866 -3.1981
  117OSM   C10S12288   6.580   7.004  10.094 -0.1625  0.1842  0.2805
  117OSM   H10S12289   6.471   7.021  10.084 -0.1170  0.4527  0.2298
  117OSM   H10T12290   6.606   6.907  10.046 -0.5755  0.5288 -0.6553
  117OSM   C11S12291   6.670   7.096  10.007  0.3387 -0.2878  0.2190
  117OSM   H11S12292   6.777   7.074  10.028  0.3359  2.5342  4.4638
  117OSM   H11T12293   6.651   7.203  10.031  1.9410 -0.1190  0.8932
  117OSM   C12S12294   6.660   7.084   9.852 -0.1804 -0.3828  0.0686
  117OSM   H12S12295   6.712   6.994   9.813 -0.5371  0.0497 -1.4548
  117OSM   H12T12296   6.709   7.172   9.806 -3.8282  2.0747  0.4161
  117OSM   C13S12297   6.507   7.075   9.807  0.3491 -0.3251 -0.0734
  117OSM   H13S12298   6.440   7.138   9.869  0.0556  0.0387 -0.7625
  117OSM   H13T12299   6.467   6.972   9.823  0.8984 -0.1058  3.7314
  117OSM   C14S12300   6.490   7.112   9.653 -0.7738  0.5019  0.1104
  117OSM   H14S12301   6.524   7.217   9.640 -0.7580  0.5381  0.4397
  117OSM   H14T12302   6.381   7.117   9.634 -0.8323  0.5743  0.4527
  117OSM   C15S12303   6.563   7.013   9.556  1.0495 -0.2082 -0.1439
  117OSM   H15S12304   6.551   6.908   9.592 -0.6365 -0.6831 -1.9105
  117OSM   H15T12305   6.673   7.029   9.554  1.4712 -2.2906  1.8812
  117OSM   C16S12306   6.505   7.026   9.412  0.0893 -0.4088  0.2611
  117OSM   H16S12307   6.586   7.004   9.338  0.5482 -0.1666  0.6836
  117OSM   H16T12308   6.479   7.132   9.393 -0.9910 -0.3127  2.0734
  117OSM   C17S12309   6.376   6.936   9.397 -0.0516 -0.1758 -0.0204
  117OSM   H17S12310   6.297   6.965   9.469 -1.7504 -1.0477 -1.4663
  117OSM   H17T12311   6.401   6.831   9.424 -2.3092 -0.4617  1.1603
  117OSM   C18S12312   6.337   6.943   9.248 -0.5539  0.1162  0.2799
  117OSM   H18S12313   6.324   7.049   9.216 -0.3777  0.3441  0.9666
  117OSM   H18T12314   6.238   6.892   9.241 -0.5349 -0.0584  1.1941
  117OSM   H18U12315   6.406   6.897   9.173 -1.3736 -3.0032  1.2691
  117OSM    C1F12316   6.895   6.538  10.807  0.5045 -0.5151  0.1325
  117OSM     OF12317   6.830   6.436  10.820  0.0240  0.1287  0.0719
  117OSM    C2F12318   7.035   6.533  10.765  0.2048 -0.1539 -0.2553
  117OSM    H2F12319   7.079   6.446  10.818 -0.0879 -0.4406 -0.4735
  117OSM    H2G12320   7.103   6.617  10.790  3.5496 -2.2414 -1.7507
  117OSM    C3F12321   7.050   6.493  10.611 -0.4834 -0.1718 -0.0946
  117OSM    H3F12322   6.986   6.412  10.571 -3.0816  2.0284 -0.7580
  117OSM    H3G12323   7.157   6.472  10.594 -0.6690 -1.8084  0.5807
  117OSM    C4F12324   7.013   6.616  10.531  0.8138  0.1629 -0.2265
  117OSM    H4F12325   7.073   6.705  10.560 -1.5701  1.1839  2.0502
  117OSM    H4G12326   6.905   6.640  10.542  0.5525 -1.3389  0.5993
  117OSM    C5F12327   7.045   6.590  10.383  0.1033 -0.2709  0.5249
  117OSM    H5F12328   7.003   6.494  10.346  0.8729 -0.5495  0.3350
  117OSM    H5G12329   7.155   6.576  10.374 -0.2820 -3.9755  0.1825
  117OSM    C6F12330   7.014   6.705  10.290  0.8621  0.0233 -0.2211
  117OSM    H6F12331   7.071   6.790  10.335  0.4348  0.0602  0.2557
  117OSM    H6G12332   6.908   6.736  10.289 -0.1384 -3.0931 -0.6277
  117OSM    C7F12333   7.068   6.681  10.147  0.7589  0.0628  0.3048
  117OSM    H7F12334   7.027   6.583  10.116 -0.5403  0.1941  1.5431
  117OSM    H7G12335   7.176   6.655  10.157  0.3581 -0.8972  2.5698
  117OSM    C8F12336   7.044   6.793  10.047  0.5220  0.1084 -0.1816
  117OSM    H8F12337   7.130   6.863  10.041  0.3926  0.2752 -0.0881
  117OSM    H8G12338   6.963   6.858  10.086  2.0318  1.0353  1.5399
  117OSM    C9F12339   7.001   6.768   9.900 -0.0000 -0.2436 -0.4101
  117OSM    H9F12340   6.899   6.728   9.896 -1.5072  3.1143  0.4995
  117OSM   C10F12341   7.075   6.806   9.792 -0.2375 -0.3960  0.7905
  117OSM   H10F12342   7.061   6.770   9.689  1.4173  0.4786  0.2064
  117OSM   C11F12343   7.207   6.875   9.812 -0.2196 -0.0760 -0.0535
  117OSM   H11F12344   7.265   6.815   9.885  0.6566 -1.3029 -1.6861
  117OSM   H11G12345   7.197   6.977   9.856 -0.0893 -0.2772  0.4544
  117OSM   C12F12346   7.277   6.889   9.677  0.3152 -1.2945  0.7054
  117OSM   H12F12347   7.294   6.793   9.622  0.9823 -0.0753 -1.3070
  117OSM   H12G12348   7.380   6.928   9.691 -0.1006  0.1643 -0.1112
  117OSM   C13F12349   7.197   6.971   9.573 -0.5570 -0.0488 -0.1877
  117OSM   H13F12350   7.177   7.062   9.635  1.4162 -1.2948  2.5173
  117OSM   H13G12351   7.095   6.933   9.553  0.8569 -4.4275 -0.0931
  117OSM   C14F12352   7.264   6.990   9.438  0.3407 -0.1397  0.6566
  117OSM   H14F12353   7.280   6.889   9.394  0.4853 -0.2918  1.0529
  117OSM   H14G12354   7.367   7.026   9.458  1.5506 -2.9828  0.0181
  117OSM   C15F12355   7.191   7.084   9.347  0.9824  0.0591 -1.0593
  117OSM   H15F12356   7.177   7.186   9.389 -0.6170 -0.6259  0.2105
  117OSM   H15G12357   7.087   7.045   9.337  1.3348 -1.0374 -0.6456
  117OSM   C16F12358   7.258   7.102   9.207 -0.7596 -0.0261 -0.2943
  117OSM   H16F12359   7.360   7.144   9.222 -0.6471  0.2758 -1.7629
  117OSM   H16G12360   7.197   7.173   9.147 -1.5213  0.6508  1.2155
  117OSM   C17F12361   7.259   6.977   9.119 -0.4209 -0.1343 -0.2714
  117OSM   H17F12362   7.153   6.961   9.091 -0.4371  1.8474 -1.5021
  117OSM   H17G12363   7.297   6.891   9.178  0.0809  0.2507 -0.0238
  117OSM   C18F12364   7.345   6.981   8.999 -0.3570 -0.0489  0.4448
  117OSM   H18F12365   7.310   7.051   8.920  0.5384  0.6075  0.6124
  117OSM   H18G12366   7.346   6.884   8.946  0.7096 -0.0416  0.4333
  117OSM   H18H12367   7.454   6.994   9.016 -0.4805  0.2170  1.0741
  118OSM      N12368   0.166   1.280  11.101  0.0276 -0.6340 -0.4319
  118OSM    C1512369   0.281   1.313  11.011  0.1920 -0.1193  0.5574
  118OSM   H15A12370   0.288   1.246  10.926 -2.2653  2.1273 -1.6100
  118OSM   H15B12371   0.373   1.312  11.067  0.6964  1.2372 -0.1903
  118OSM   H15C12372   0.272   1.408  10.959  1.3622 -1.8597 -3.2326
  118OSM    C1412373   0.035   1.263  11.030  0.4636 -0.0483  0.1596
  118OSM   H14A12374   0.049   1.211  10.936  2.4582  0.0248  0.3818
  118OSM   H14B12375  -0.001   1.361  11.004  1.0522  0.5912  1.6793
  118OSM   H14C12376  -0.034   1.215  11.098 -0.0771  1.0624  0.4234
  118OSM    C1312377   0.191   1.150  11.166 -0.0778 -0.0585  0.2904
  118OSM   H13A12378   0.186   1.070  11.093 -1.9659  0.4650 -0.2099
  118OSM   H13B12379   0.126   1.124  11.248  0.4778 -0.8112  0.5059
  118OSM   H13C12380   0.292   1.163  11.203 -0.6812  3.4498  1.0527
  118OSM    C1212381   0.163   1.393  11.205 -0.1485 -0.1417 -0.4723
  118OSM   H12A12382   0.251   1.389  11.268  1.5101  0.1090 -2.6712
  118OSM   H12B12383   0.086   1.371  11.278 -0.8744 -2.3686 -1.8097
  118OSM    C1112384   0.136   1.526  11.151  1.0278 -1.0474 -0.1525
  118OSM   H11A12385   0.112   1.582  11.244 -1.4446 -1.1095 -0.6802
  118OSM   H11B12386   0.044   1.525  11.089  0.7092 -1.8049  0.3139
  118OSM      P12387   0.243   1.727  11.022 -0.0161 -0.1935  0.1034
  118OSM    O1312388   0.168   1.825  11.107  0.3435  0.2527  0.8405
  118OSM    O1412389   0.379   1.769  10.976 -0.1823 -0.8352 -0.2026
  118OSM    O1112390   0.161   1.701  10.892  0.3824  0.3559  0.0112
  118OSM    O1212391   0.250   1.591  11.091 -0.4037 -0.2138 -0.0243
  118OSM    C1S12392   0.081   1.807  10.834  0.0911  0.0126  0.0853
  118OSM    H1S12393   0.142   1.895  10.804 -0.7548  1.0139  1.1857
  118OSM    H1T12394  -0.009   1.838  10.893 -2.2126 -1.9635 -2.1437
  118OSM     NF12395  -0.065   1.866  10.636  0.1083 -0.7281 -0.6844
  118OSM    HNF12396  -0.160   1.843  10.616  0.0362 -1.1105  0.0791
  118OSM    C2S12397   0.011   1.764  10.700  1.4067 -0.2990 -0.5666
  118OSM    H2S12398   0.098   1.741  10.635  1.5075  1.3884 -1.0676
  118OSM    C3S12399  -0.067   1.630  10.717  0.0237 -0.6184  0.4675
  118OSM    H3S12400  -0.141   1.645  10.800  1.7044  1.6451  1.6678
  118OSM     O312401   0.020   1.521  10.758  0.0320  0.4355 -0.4341
  118OSM    HO312402   0.100   1.567  10.785 -0.0396  0.8694 -0.9439
  118OSM    C4S12403  -0.136   1.595  10.587  0.0834 -0.7729  0.0366
  118OSM    H4S12404  -0.213   1.669  10.559  0.7079 -0.5710 -1.2308
  118OSM    C5S12405  -0.113   1.489  10.512  0.8498  0.4881  0.0689
  118OSM    H5S12406  -0.037   1.417  10.549 -0.6265 -0.7024  0.9410
  118OSM    C6S12407  -0.180   1.457  10.383 -0.6615  0.6236 -0.0907
  118OSM    H6S12408  -0.252   1.376  10.408 -0.5523  1.1299  2.0654
  118OSM    H6T12409  -0.102   1.403  10.325  1.1197 -0.7121  3.2943
  118OSM    C7S12410  -0.240   1.559  10.290  0.5391  0.9198 -0.5346
  118OSM    H7S12411  -0.173   1.640  10.255 -0.7201  2.1494 -0.1801
  118OSM    H7T12412  -0.326   1.609  10.340 -0.8806 -1.2737 -0.5981
  118OSM    C8S12413  -0.278   1.497  10.158  0.2551 -0.3362  0.4591
  118OSM    H8S12414  -0.344   1.572  10.109  0.8994 -1.0511 -1.6212
  118OSM    H8T12415  -0.351   1.414  10.172 -1.5608  1.0301 -0.4684
  118OSM    C9S12416  -0.162   1.445  10.068  0.2100  0.1876 -0.2622
  118OSM    H9S12417  -0.148   1.339  10.098 -3.5513 -0.2613  0.4519
  118OSM    H9T12418  -0.071   1.504  10.090  0.6815 -0.1659 -1.2334
  118OSM   C10S12419  -0.198   1.468   9.926 -0.6170 -0.4017 -0.4672
  118OSM   H10S12420  -0.114   1.419   9.872  0.1462  1.5707 -1.1650
  118OSM   H10T12421  -0.194   1.577   9.903 -4.9005  0.0318 -0.0905
  118OSM   C11S12422  -0.330   1.418   9.865 -0.2687  0.6426 -0.2253
  118OSM   H11S12423  -0.351   1.491   9.784  1.5352  0.0354 -1.3062
  118OSM   H11T12424  -0.422   1.415   9.927  0.4574  1.1007  0.9286
  118OSM   C12S12425  -0.301   1.282   9.796 -0.3734  0.2924  0.6439
  118OSM   H12S12426  -0.200   1.279   9.751 -1.2843  0.3411 -1.5042
  118OSM   H12T12427  -0.368   1.285   9.708 -1.8580 -2.2525  1.5560
  118OSM   C13S12428  -0.339   1.155   9.868 -0.0497  0.2267 -0.2359
  118OSM   H13S12429  -0.280   1.149   9.962  0.8785  0.6337 -0.7845
  118OSM   H13T12430  -0.323   1.066   9.803 -0.1740  0.9662 -1.2972
  118OSM   C14S12431  -0.484   1.136   9.892 -0.1834 -0.1569  0.5579
  118OSM   H14S12432  -0.536   1.104   9.799  0.1064 -0.2122  0.4118
  118OSM   H14T12433  -0.540   1.226   9.925  2.0734  0.7783  2.0621
  118OSM   C15S12434  -0.503   1.019   9.983 -0.7592  0.5603  0.3008
  118OSM   H15S12435  -0.429   1.033  10.066  1.3152 -3.1178 -0.7138
  118OSM   H15T12436  -0.475   0.928   9.928 -0.5679  1.5367 -1.2738
  118OSM   C16S12437  -0.647   1.005  10.029  0.2015 -0.0813  0.0983
  118OSM   H16S12438  -0.705   0.965   9.943  0.3256 -2.4587  1.0551
  118OSM   H16T12439  -0.683   1.104  10.067 -0.7369 -1.0136  1.7821
  118OSM   C17S12440  -0.656   0.907  10.148  0.1307 -0.3118  0.8824
  118OSM   H17S12441  -0.606   0.809  10.130  0.8174 -0.2015  2.0855
  118OSM   H17T12442  -0.763   0.882  10.162 -0.3645 -0.1197 -1.9180
  118OSM   C18S12443  -0.614   0.966  10.285 -0.1710  0.2289  0.0405
  118OSM   H18S12444  -0.670   1.056  10.316 -0.8503 -0.3960  0.6582
  118OSM   H18T12445  -0.505   0.986  10.286  0.2280 -1.7678  1.1443
  118OSM   H18U12446  -0.632   0.899  10.372  1.1133  2.8272  2.4793
  118OSM    C1F12447  -0.008   1.978  10.588  0.2478  0.1702  0.4388
  118OSM     OF12448   0.101   2.026  10.624 -0.1395 -0.7862 -0.6840
  118OSM    C2F12449  -0.089   2.071  10.509  0.1030 -0.0417  0.7763
  118OSM    H2F12450  -0.053   2.175  10.527 -1.2443  0.5562  0.1447
  118OSM    H2G12451  -0.198   2.061  10.524  0.1743 -2.5892  0.0204
  118OSM    C3F12452  -0.066   2.032  10.360  0.0065 -0.3194 -0.0661
  118OSM    H3F12453  -0.089   1.923  10.355  0.0767 -0.2881 -3.6165
  118OSM    H3G12454   0.039   2.040  10.323  0.1926  1.2387  0.7332
  118OSM    C4F12455  -0.143   2.113  10.255  0.0044  0.5318  0.0463
  118OSM    H4F12456  -0.079   2.194  10.216 -0.5488  0.6511 -0.6381
  118OSM    H4G12457  -0.230   2.158  10.306  0.1519 -0.0579  0.8377
  118OSM    C5F12458  -0.197   2.027  10.136 -0.3074  0.4705 -1.0589
  118OSM    H5F12459  -0.113   1.958  10.113  0.4197  0.7965  0.4574
  118OSM    H5G12460  -0.224   2.094  10.051  1.0598  0.6994 -1.3374
  118OSM    C6F12461  -0.317   1.939  10.179 -0.3131  0.0117 -0.2090
  118OSM    H6F12462  -0.397   2.005  10.219  1.3390  1.3113  1.0777
  118OSM    H6G12463  -0.276   1.887  10.268  0.8987  0.0307 -0.7474
  118OSM    C7F12464  -0.353   1.835  10.070 -0.5109 -0.2774 -0.0314
  118OSM    H7F12465  -0.425   1.764  10.116  0.4705 -0.0981  1.8925
  118OSM    H7G12466  -0.266   1.777  10.033 -0.8886 -0.9532  0.1270
  118OSM    C8F12467  -0.434   1.898   9.956  0.1440  0.1633 -0.2197
  118OSM    H8F12468  -0.374   1.986   9.924 -1.9314  2.0689  0.8915
  118OSM    H8G12469  -0.525   1.931  10.011 -0.5729 -0.9179 -0.7317
  118OSM    C9F12470  -0.482   1.816   9.837  0.6866  0.7900 -0.1862
  118OSM    H9F12471  -0.548   1.735   9.872  2.2922 -0.0581  1.0225
  118OSM   C10F12472  -0.458   1.837   9.703  0.7524  0.3667 -0.4094
  118OSM   H10F12473  -0.506   1.770   9.631 -1.4621  2.6060 -1.1730
  118OSM   C11F12474  -0.376   1.945   9.637 -0.0071 -0.3086 -0.2222
  118OSM   H11F12475  -0.269   1.948   9.667  0.1813  1.7266 -0.9642
  118OSM   H11G12476  -0.424   2.035   9.679 -0.4725 -0.4879 -0.3621
  118OSM   C12F12477  -0.379   1.938   9.488  0.6213  0.0051  0.7534
  118OSM   H12F12478  -0.483   1.930   9.452  0.9877  0.4608 -0.4570
  118OSM   H12G12479  -0.323   1.849   9.450 -0.6365 -0.6446  0.3653
  118OSM   C13F12480  -0.316   2.070   9.427 -0.1109 -0.4032 -0.0137
  118OSM   H13F12481  -0.211   2.095   9.454  0.1212  1.9879 -2.7182
  118OSM   H13G12482  -0.378   2.157   9.457  0.0244 -0.8302  1.6152
  118OSM   C14F12483  -0.325   2.064   9.277  0.7960  0.5148  0.4702
  118OSM   H14F12484  -0.275   1.967   9.256  2.1040  1.0009  1.1991
  118OSM   H14G12485  -0.275   2.155   9.236 -1.1082  1.9377  1.1724
  118OSM   C15F12486  -0.468   2.084   9.218 -0.4173  0.1310 -0.1182
  118OSM   H15F12487  -0.489   2.193   9.211  0.3481  0.4566  1.9864
  118OSM   H15G12488  -0.549   2.043   9.282 -0.7910 -0.0059 -0.6658
  118OSM   C16F12489  -0.497   2.017   9.078  0.4070  0.1234 -0.0643
  118OSM   H16F12490  -0.607   2.028   9.072  0.2521 -1.2097 -0.0132
  118OSM   H16G12491  -0.472   1.909   9.073  1.6907  0.2498  2.1673
  118OSM   C17F12492  -0.433   2.084   8.948 -0.1515  0.6675  0.8011
  118OSM   H17F12493  -0.433   2.010   8.865  4.3912 -0.6503  1.7216
  118OSM   H17G12494  -0.328   2.107   8.977  0.4447  1.1292 -1.5077
  118OSM   C18F12495  -0.496   2.215   8.891  0.2091  0.3799 -1.0228
  118OSM   H18F12496  -0.516   2.284   8.976  0.5451 -1.4646  0.6166
  118OSM   H18G12497  -0.594   2.197   8.843 -0.9899  1.6892  0.7812
  118OSM   H18H12498  -0.420   2.260   8.823 -1.0493  2.3639 -1.1987
  119OSM      N12499   0.807   6.268  11.394 -0.0702  0.0498 -0.1404
  119OSM    C1512500   0.716   6.154  11.404  0.4661 -0.1457 -0.2480
  119OSM   H15A12501   0.676   6.159  11.504  0.3737 -0.1519 -0.2843
  119OSM   H15B12502   0.759   6.057  11.387 -1.6152 -1.5273  1.7675
  119OSM   H15C12503   0.635   6.182  11.338  1.2738  2.1332 -0.3746
  119OSM    C1412504   0.741   6.395  11.438 -0.3773  0.1379  0.3405
  119OSM   H14A12505   0.812   6.476  11.449 -0.8802  0.3888  1.9217
  119OSM   H14B12506   0.694   6.370  11.532  0.3001 -2.3596  0.0913
  119OSM   H14C12507   0.666   6.420  11.365  0.2976  0.2934 -0.3201
  119OSM    C1312508   0.921   6.247  11.488 -0.1098 -0.4256 -0.3914
  119OSM   H13A12509   1.003   6.190  11.448  0.5585  0.4405 -0.2768
  119OSM   H13B12510   0.891   6.192  11.576 -0.2332  0.7064  0.2884
  119OSM   H13C12511   0.958   6.344  11.515  1.2291 -0.5833 -1.5334
  119OSM    C1212512   0.859   6.285  11.256  0.4035  0.2551 -0.1317
  119OSM   H12A12513   0.919   6.198  11.231 -0.9041 -0.5895 -0.4237
  119OSM   H12B12514   0.926   6.370  11.256  1.4674 -0.5127 -2.1503
  119OSM    C1112515   0.759   6.310  11.139 -0.6536  0.2578 -0.0416
  119OSM   H11A12516   0.710   6.210  11.132  1.2492 -0.6456 -1.1089
  119OSM   H11B12517   0.810   6.321  11.041  0.3441 -2.1884  0.1361
  119OSM      P12518   0.693   6.560  11.144 -0.3454  0.0384  0.5479
  119OSM    O1312519   0.607   6.639  11.231 -0.0786 -0.6632  0.4112
  119OSM    O1412520   0.838   6.576  11.159 -0.7273 -0.7772  0.8817
  119OSM    O1112521   0.656   6.596  10.995 -0.3999 -0.0512 -0.4575
  119OSM    O1212522   0.655   6.403  11.158 -0.4658 -0.5009 -0.3782
  119OSM    C1S12523   0.718   6.532  10.880  0.2147  0.5731 -0.1989
  119OSM    H1S12524   0.679   6.428  10.882 -1.0205  0.9832  2.3825
  119OSM    H1T12525   0.828   6.538  10.895  0.1992 -0.6294  0.4543
  119OSM     NF12526   0.746   6.537  10.636 -0.0190 -0.0451  0.4885
  119OSM    HNF12527   0.826   6.571  10.588  0.1085 -0.0401  0.7030
  119OSM    C2S12528   0.675   6.600  10.741 -0.5451 -0.1685  0.3325
  119OSM    H2S12529   0.566   6.586  10.731 -0.7552  1.4632 -0.0215
  119OSM    C3S12530   0.701   6.753  10.758  0.5255  0.0516  0.4509
  119OSM    H3S12531   0.801   6.771  10.804 -0.1564  1.0980  1.5835
  119OSM     O312532   0.601   6.811  10.840 -0.2004  0.0561 -0.3099
  119OSM    HO312533   0.593   6.749  10.913  1.1291  0.4294  0.1797
  119OSM    C4S12534   0.701   6.818  10.622  0.6002 -0.0592 -0.3478
  119OSM    H4S12535   0.780   6.784  10.554  1.6979  1.0614  0.3403
  119OSM    C5S12536   0.606   6.899  10.571 -0.3679  0.4913  0.5338
  119OSM    H5S12537   0.517   6.922  10.630 -0.4084 -1.9062  1.5353
  119OSM    C6S12538   0.599   6.961  10.431  0.1337  0.0288 -0.5673
  119OSM    H6S12539   0.556   7.063  10.434 -1.7757 -0.7345  1.3189
  119OSM    H6T12540   0.523   6.897  10.381  0.4884 -0.5695 -0.3504
  119OSM    C7S12541   0.730   6.961  10.348  0.4345 -0.2082  0.2653
  119OSM    H7S12542   0.769   6.858  10.337 -1.0633 -0.6536 -1.3552
  119OSM    H7T12543   0.800   7.020  10.411  0.0853  0.5526 -0.0354
  119OSM    C8S12544   0.703   7.045  10.224  0.1181  0.0913  0.2602
  119OSM    H8S12545   0.699   7.154  10.246 -1.1460  0.2693 -0.7457
  119OSM    H8T12546   0.606   7.022  10.174  1.0657  2.0360 -2.7382
  119OSM    C9S12547   0.810   7.035  10.111 -0.1717 -0.0806  0.5100
  119OSM    H9S12548   0.795   6.941  10.055 -0.0487 -0.1437  0.5823
  119OSM    H9T12549   0.908   7.046  10.162 -1.4000  1.7432  2.6629
  119OSM   C10S12550   0.802   7.163  10.016  0.4310 -0.6198 -0.1668
  119OSM   H10S12551   0.840   7.251  10.071  0.3360 -2.2868  2.7876
  119OSM   H10T12552   0.700   7.182   9.976  1.2113  1.4483 -1.2759
  119OSM   C11S12553   0.880   7.153   9.886 -0.5577 -0.2273 -0.2292
  119OSM   H11S12554   0.856   7.053   9.845 -1.8942 -0.4988  1.1088
  119OSM   H11T12555   0.989   7.155   9.906 -0.3584 -0.8535 -1.1805
  119OSM   C12S12556   0.845   7.259   9.780  0.1285  0.6016 -0.0058
  119OSM   H12S12557   0.920   7.270   9.698  0.2459  0.4070  0.0749
  119OSM   H12T12558   0.834   7.353   9.837 -0.7994 -0.6029  1.8880
  119OSM   C13S12559   0.716   7.221   9.706  0.3725 -0.3219 -0.0847
  119OSM   H13S12560   0.636   7.222   9.784  1.2153  1.4477  0.8093
  119OSM   H13T12561   0.736   7.121   9.662  4.0147  0.8010 -1.2923
  119OSM   C14S12562   0.675   7.324   9.591  0.3335  0.3863 -0.6693
  119OSM   H14S12563   0.652   7.419   9.644 -0.6577  0.0536 -0.4881
  119OSM   H14T12564   0.583   7.292   9.539  0.4182 -0.4584 -0.3143
  119OSM   C15S12565   0.783   7.338   9.482  0.0392  0.3075  0.1127
  119OSM   H15S12566   0.786   7.237   9.435  0.7105  1.7959 -3.4268
  119OSM   H15T12567   0.881   7.355   9.531 -0.3944  0.3189  0.9780
  119OSM   C16S12568   0.744   7.442   9.377 -0.2785  0.3469  0.8399
  119OSM   H16S12569   0.744   7.544   9.421 -2.3576  0.8083 -0.0891
  119OSM   H16T12570   0.642   7.411   9.343  0.6269 -0.7840 -0.9875
  119OSM   C17S12571   0.834   7.432   9.253  0.5934 -0.7813 -0.2978
  119OSM   H17S12572   0.831   7.326   9.221  0.4053 -1.8459  2.9393
  119OSM   H17T12573   0.941   7.447   9.279  0.5640  0.8337 -0.9913
  119OSM   C18S12574   0.801   7.528   9.139  0.2954 -0.2305 -0.3100
  119OSM   H18S12575   0.703   7.508   9.090  0.0302  1.2834 -0.4259
  119OSM   H18T12576   0.874   7.535   9.055 -0.6671 -1.4279 -1.2917
  119OSM   H18U12577   0.800   7.630   9.182 -1.0221 -1.1408  2.0016
  119OSM    C1F12578   0.725   6.409  10.620 -0.1615 -0.0662  0.3395
  119OSM     OF12579   0.616   6.365  10.658  0.1976 -0.4676  0.4274
  119OSM    C2F12580   0.821   6.315  10.558 -0.1726  0.7842  0.0569
  119OSM    H2F12581   0.809   6.217  10.609 -2.4081  1.0027  0.0293
  119OSM    H2G12582   0.927   6.350  10.564  0.5144 -0.9500 -1.1459
  119OSM    C3F12583   0.780   6.270  10.412 -0.3028 -0.3542 -0.3087
  119OSM    H3F12584   0.678   6.225  10.417 -0.0303 -1.0099 -0.5801
  119OSM    H3G12585   0.846   6.190  10.373 -0.1178 -0.6838  0.6529
  119OSM    C4F12586   0.776   6.394  10.314 -0.2823  0.3065 -0.9041
  119OSM    H4F12587   0.876   6.443  10.315 -0.0240 -0.0874 -2.8947
  119OSM    H4G12588   0.700   6.462  10.357 -0.9353 -0.4513 -0.8349
  119OSM    C5F12589   0.729   6.339  10.177 -0.1042  0.0560  0.1622
  119OSM    H5F12590   0.630   6.293  10.198 -0.0094 -0.1375  0.1928
  119OSM    H5G12591   0.793   6.256  10.140  1.2350  1.2352 -0.2615
  119OSM    C6F12592   0.709   6.451  10.071 -0.2594  0.5797 -0.6316
  119OSM    H6F12593   0.720   6.550  10.119  0.6037  1.1902 -2.0093
  119OSM    H6G12594   0.607   6.444  10.027 -1.0029 -0.6027  1.1657
  119OSM    C7F12595   0.823   6.452   9.962  0.4747 -0.1202 -0.6706
  119OSM    H7F12596   0.829   6.351   9.917 -1.2270 -0.5491 -0.0122
  119OSM    H7G12597   0.915   6.465  10.022 -1.3596 -0.9707  2.5634
  119OSM    C8F12598   0.811   6.563   9.857 -0.5122 -0.5382 -0.2074
  119OSM    H8F12599   0.778   6.645   9.925  1.3015 -0.8107  1.0945
  119OSM    H8G12600   0.727   6.534   9.791 -2.1805 -0.5163  1.7836
  119OSM    C9F12601   0.933   6.613   9.785  0.6513  1.2637  0.4672
  119OSM    H9F12602   1.001   6.681   9.840  1.3261  0.2384  0.9447
  119OSM   C10F12603   0.974   6.556   9.662  0.0895 -0.1765 -0.0594
  119OSM   H10F12604   1.066   6.596   9.617 -1.4898  1.6558 -1.8791
  119OSM   C11F12605   0.917   6.445   9.579 -0.1515 -0.4221  0.7725
  119OSM   H11F12606   0.863   6.374   9.646 -0.0685  0.9849  2.3874
  119OSM   H11G12607   0.992   6.380   9.529 -0.4328 -0.3065  0.1947
  119OSM   C12F12608   0.834   6.495   9.456 -0.1217  0.0914 -0.3504
  119OSM   H12F12609   0.915   6.524   9.387  3.0344 -3.4137  1.5236
  119OSM   H12G12610   0.766   6.575   9.494 -3.5251 -3.4262  1.7307
  119OSM   C13F12611   0.743   6.383   9.397 -0.0470  0.5751 -1.1436
  119OSM   H13F12612   0.665   6.363   9.474 -0.4622 -3.3904 -2.3637
  119OSM   H13G12613   0.797   6.287   9.404  0.5711  0.9949  0.1784
  119OSM   C14F12614   0.712   6.394   9.245 -0.9731 -0.0002 -0.1320
  119OSM   H14F12615   0.657   6.302   9.215  1.0920 -1.3110 -0.0794
  119OSM   H14G12616   0.810   6.391   9.192 -1.1939 -3.4230 -0.5887
  119OSM   C15F12617   0.635   6.525   9.211  0.5141 -0.0783 -0.0858
  119OSM   H15F12618   0.692   6.615   9.242 -1.6548  1.0078  0.9824
  119OSM   H15G12619   0.542   6.535   9.271 -1.4571  1.9024 -3.2090
  119OSM   C16F12620   0.600   6.535   9.069  0.5801  0.2360 -0.7429
  119OSM   H16F12621   0.689   6.508   9.008  0.2967  0.6217 -1.3366
  119OSM   H16G12622   0.581   6.643   9.055 -0.3554  0.0343 -1.0750
  119OSM   C17F12623   0.483   6.448   9.013 -0.5204 -0.2201  0.4512
  119OSM   H17F12624   0.398   6.483   9.076 -0.1178  2.2490 -0.2511
  119OSM   H17G12625   0.497   6.341   9.040 -2.3858 -0.3812  0.9624
  119OSM   C18F12626   0.445   6.471   8.871  0.3574  0.0522 -0.0142
  119OSM   H18F12627   0.430   6.580   8.854 -0.1044  0.3928  2.1670
  119OSM   H18G12628   0.360   6.409   8.835 -0.4396  0.5102  1.0141
  119OSM   H18H12629   0.519   6.436   8.797  1.5404  0.6289  0.8614
  120OSM      N12630   6.113   4.146  10.981 -0.3141  0.0858 -0.0262
  120OSM    C1512631   5.996   4.186  10.905  0.9616  0.4486 -0.0329
  120OSM   H15A12632   5.977   4.120  10.822 -0.4281 -1.5981  1.8170
  120OSM   H15B12633   6.009   4.287  10.870 -1.3313  1.0554  0.7079
  120OSM   H15C12634   5.907   4.169  10.963  1.0418 -0.0477 -0.0501
  120OSM    C1412635   6.140   4.244  11.090 -0.0925 -0.8022 -0.2970
  120OSM   H14A12636   6.239   4.255  11.132 -0.2462  1.0003 -0.3563
  120OSM   H14B12637   6.075   4.216  11.172  0.3680 -1.6597 -0.2139
  120OSM   H14C12638   6.100   4.340  11.062 -0.8487 -0.5704  1.4441
  120OSM    C1312639   6.101   4.010  11.049 -0.6028 -0.5835  0.6376
  120OSM   H13A12640   6.027   4.017  11.128 -1.5683 -2.0967 -0.0966
  120OSM   H13B12641   6.196   3.971  11.082 -1.5436 -1.8190  2.0661
  120OSM   H13C12642   6.062   3.949  10.969  1.0145  1.9619 -2.2871
  120OSM    C1212643   6.235   4.158  10.898  0.0813 -0.0378 -0.1352
  120OSM   H12A12644   6.318   4.126  10.958 -1.5420 -1.7444  1.3087
  120OSM   H12B12645   6.241   4.263  10.871 -1.5042 -0.7541 -3.9815
  120OSM    C1112646   6.237   4.080  10.764 -0.2477 -0.1376 -0.4220
  120OSM   H11A12647   6.316   4.113  10.693  0.9802  0.1965  1.0511
  120OSM   H11B12648   6.148   4.103  10.703  1.2523  0.2251 -2.6037
  120OSM      P12649   6.376   3.870  10.824 -0.0813 -0.1896 -0.5053
  120OSM    O1312650   6.484   3.970  10.824 -0.7735  0.1709 -0.1261
  120OSM    O1412651   6.354   3.811  10.957  0.5295 -0.2418 -0.6356
  120OSM    O1112652   6.385   3.760  10.713  0.2541  0.5103  0.3335
  120OSM    O1212653   6.234   3.936  10.781 -0.2493 -0.1589 -0.1259
  120OSM    C1S12654   6.274   3.687  10.655 -0.2134 -0.2844 -0.6274
  120OSM    H1S12655   6.173   3.714  10.693 -0.5393  0.0834 -1.7247
  120OSM    H1T12656   6.296   3.580  10.676  2.1337  0.0044 -1.3324
  120OSM     NF12657   6.146   3.652  10.456 -0.3556 -0.1064 -0.1887
  120OSM    HNF12658   6.158   3.568  10.403  0.3474  0.2493 -0.6157
  120OSM    C2S12659   6.264   3.717  10.501  1.1711 -0.6500 -0.8769
  120OSM    H2S12660   6.251   3.827  10.492 -1.1908 -0.9856 -2.1101
  120OSM    C3S12661   6.393   3.673  10.422  0.4481 -0.5634  0.0739
  120OSM    H3S12662   6.389   3.563  10.411 -1.5046 -0.3619 -1.9230
  120OSM     O312663   6.516   3.689  10.485  0.7273  0.2233  0.0264
  120OSM    HO312664   6.479   3.719  10.568 -3.7342  1.4484 -2.0599
  120OSM    C4S12665   6.406   3.738  10.283  0.5484  0.4384  0.5739
  120OSM    H4S12666   6.467   3.829  10.274 -1.4077  1.7636  0.0677
  120OSM    C5S12667   6.381   3.663  10.173  0.0036  0.0849  0.2847
  120OSM    H5S12668   6.356   3.556  10.186  1.7582 -0.3262  0.4889
  120OSM    C6S12669   6.412   3.708  10.034 -0.0630  0.2466  0.1546
  120OSM    H6S12670   6.450   3.623   9.973  2.4277 -0.4313  2.4608
  120OSM    H6T12671   6.502   3.773  10.038 -0.6541  1.0941  0.1146
  120OSM    C7S12672   6.304   3.780   9.953  0.0635 -0.0057  0.5839
  120OSM    H7S12673   6.278   3.882   9.988 -0.5981  0.7895 -2.0113
  120OSM    H7T12674   6.211   3.719   9.947 -1.0379  1.6034  0.7182
  120OSM    C8S12675   6.346   3.809   9.810 -0.0454 -0.8590 -0.2008
  120OSM    H8S12676   6.385   3.715   9.764 -1.5821 -1.8044  0.3376
  120OSM    H8T12677   6.437   3.872   9.819  1.1087 -2.6351  1.3832
  120OSM    C9S12678   6.232   3.867   9.719 -0.0413  0.9350  0.2297
  120OSM    H9S12679   6.215   3.970   9.756 -2.3701  0.8386 -0.4305
  120OSM    H9T12680   6.138   3.814   9.746  0.0003  0.8158  0.1440
  120OSM   C10S12681   6.260   3.854   9.566 -0.3764 -0.0110  0.4067
  120OSM   H10S12682   6.177   3.898   9.506  0.2264 -1.1999 -1.4032
  120OSM   H10T12683   6.258   3.748   9.534 -1.6860 -0.0518  0.5811
  120OSM   C11S12684   6.397   3.897   9.511  0.1285 -0.1161 -0.5068
  120OSM   H11S12685   6.477   3.829   9.547 -0.3765 -1.5110 -1.9355
  120OSM   H11T12686   6.413   4.003   9.543 -2.3980  0.5473 -1.2746
  120OSM   C12S12687   6.391   3.892   9.355 -0.0492  0.5210 -0.0875
  120OSM   H12S12688   6.338   3.986   9.328 -0.1341 -0.3550 -3.3992
  120OSM   H12T12689   6.331   3.801   9.334 -0.4344  0.2538  1.9715
  120OSM   C13S12690   6.530   3.903   9.282  1.0252 -0.2837 -0.6983
  120OSM   H13S12691   6.595   3.822   9.322  0.4733 -0.1017  0.5894
  120OSM   H13T12692   6.568   4.004   9.307  1.5017  0.4334 -3.8583
  120OSM   C14S12693   6.524   3.891   9.133 -0.2392 -0.4498  0.7307
  120OSM   H14S12694   6.433   3.937   9.091  1.2933 -0.7903 -3.4058
  120OSM   H14T12695   6.543   3.787   9.098  3.1963  0.4251 -0.4408
  120OSM   C15S12696   6.632   3.973   9.064 -0.0208 -0.1122  0.4073
  120OSM   H15S12697   6.732   3.949   9.108  0.4610  0.1288 -0.5210
  120OSM   H15T12698   6.611   4.081   9.078 -0.7810 -0.4525  2.1919
  120OSM   C16S12699   6.644   3.943   8.911  0.1836  0.5772 -0.6222
  120OSM   H16S12700   6.545   3.944   8.860 -0.7869 -0.6393  1.1407
  120OSM   H16T12701   6.693   3.844   8.902 -0.8447  0.1509 -1.8836
  120OSM   C17S12702   6.728   4.045   8.838 -0.0081 -0.3435  0.5757
  120OSM   H17S12703   6.826   4.043   8.890  1.0434 -1.2244 -1.3484
  120OSM   H17T12704   6.691   4.149   8.830 -1.7185 -1.0191 -0.9515
  120OSM   C18S12705   6.752   4.005   8.689  0.1210  0.0003 -0.2338
  120OSM   H18S12706   6.828   4.071   8.641 -1.3860  1.7664 -0.3095
  120OSM   H18T12707   6.653   4.027   8.643 -0.5236  0.9624  1.5256
  120OSM   H18U12708   6.779   3.898   8.683  1.1506  0.0991  1.7749
  120OSM    C1F12709   6.016   3.692  10.468 -0.8365  1.1820 -0.6697
  120OSM     OF12710   5.991   3.805  10.505  0.0986  0.5502 -1.0128
  120OSM    C2F12711   5.915   3.592  10.428 -0.0482  0.6264  0.5689
  120OSM    H2F12712   5.852   3.554  10.511  0.1129 -3.1973 -0.8719
  120OSM    H2G12713   5.970   3.503  10.391  1.8388  1.0783  2.1127
  120OSM    C3F12714   5.816   3.635  10.316  0.0942 -0.4115  0.3597
  120OSM    H3F12715   5.737   3.703  10.353  0.3025  0.3480 -0.5567
  120OSM    H3G12716   5.756   3.547  10.285  0.5038 -0.9179  0.9645
  120OSM    C4F12717   5.884   3.691  10.187  0.2524  0.0222 -0.4558
  120OSM    H4F12718   5.973   3.628  10.168  0.4579 -0.2483  1.2617
  120OSM    H4G12719   5.917   3.796  10.202  3.3800 -0.7030 -1.5718
  120OSM    C5F12720   5.798   3.685  10.059  0.9561 -0.3725 -0.0721
  120OSM    H5F12721   5.716   3.757  10.079  1.9538  0.9211 -0.4683
  120OSM    H5G12722   5.756   3.583  10.046 -3.7152  1.5292 -2.0753
  120OSM    C6F12723   5.859   3.743   9.934  0.0303 -0.1626 -0.2209
  120OSM    H6F12724   5.929   3.662   9.905 -0.5910 -0.7887  0.0074
  120OSM    H6G12725   5.914   3.836   9.962 -1.5070  1.3038 -1.8345
  120OSM    C7F12726   5.760   3.761   9.822  0.7444 -0.3590 -0.8904
  120OSM    H7F12727   5.689   3.840   9.857  0.3003 -0.6352 -1.1569
  120OSM    H7G12728   5.703   3.667   9.806 -1.1651  0.6014 -0.1834
  120OSM    C8F12729   5.833   3.792   9.689 -0.3087 -0.2839 -0.3286
  120OSM    H8F12730   5.900   3.879   9.707 -0.4591 -0.2455  0.0430
  120OSM    H8G12731   5.754   3.838   9.627  0.2808 -0.8430 -1.5360
  120OSM    C9F12732   5.902   3.679   9.627 -0.0359  0.4894 -0.6972
  120OSM    H9F12733   5.957   3.608   9.691 -0.6634 -2.8040 -3.4952
  120OSM   C10F12734   5.894   3.643   9.499 -0.1521 -0.2730  0.3666
  120OSM   H10F12735   5.945   3.551   9.466  1.1234  1.4163 -2.7552
  120OSM   C11F12736   5.822   3.714   9.390  0.1902  0.0479  0.9845
  120OSM   H11F12737   5.822   3.825   9.394  1.2686  0.1865 -1.5089
  120OSM   H11G12738   5.711   3.701   9.391  0.2267 -0.2641  2.0160
  120OSM   C12F12739   5.887   3.678   9.260  0.3728  0.3351 -0.6658
  120OSM   H12F12740   5.887   3.570   9.237 -0.8268 -0.0164  0.7958
  120OSM   H12G12741   5.988   3.720   9.276 -0.1659  0.6957  2.6165
  120OSM   C13F12742   5.819   3.743   9.141  0.0707  0.1332  0.3258
  120OSM   H13F12743   5.811   3.853   9.158  3.0163  0.9694 -2.4625
  120OSM   H13G12744   5.713   3.712   9.137  0.7665 -2.4464  0.2063
  120OSM   C14F12745   5.886   3.713   9.006 -0.5186  0.4844  0.5572
  120OSM   H14F12746   5.931   3.612   9.000  0.2921  0.8380  0.4577
  120OSM   H14G12747   5.979   3.774   9.001  0.7029 -1.2125  1.5183
  120OSM   C15F12748   5.788   3.758   8.894 -0.1316  0.2271  0.0438
  120OSM   H15F12749   5.736   3.852   8.925 -1.0466  0.1136 -1.0954
  120OSM   H15G12750   5.711   3.680   8.876  0.4295 -0.6804  1.4405
  120OSM   C16F12751   5.855   3.787   8.763 -0.3377 -0.5102  0.3776
  120OSM   H16F12752   5.878   3.693   8.710  1.5475 -0.6416  1.3551
  120OSM   H16G12753   5.953   3.838   8.778 -1.4261  2.0839 -0.6222
  120OSM   C17F12754   5.784   3.880   8.672  0.2406 -0.0407  0.1453
  120OSM   H17F12755   5.850   3.916   8.590  0.7283 -2.6370 -0.6699
  120OSM   H17G12756   5.747   3.973   8.721  0.0650  1.1842 -2.1797
  120OSM   C18F12757   5.664   3.812   8.598  0.3283 -0.2648 -0.7148
  120OSM   H18F12758   5.698   3.723   8.542 -0.2939 -2.0282  1.5708
  120OSM   H18G12759   5.621   3.891   8.533  0.8164  0.6964  0.1005
  120OSM   H18H12760   5.586   3.787   8.672  1.6343 -0.0411  0.7916
  121OSM      N12761   4.688   0.428  11.371 -0.9111 -0.5378 -0.5018
  121OSM    C1512762   4.791   0.529  11.323  0.6128 -0.3470  0.9034
  121OSM   H15A12763   4.744   0.617  11.281  2.1506 -0.3352 -0.9087
  121OSM   H15B12764   4.854   0.479  11.251  0.4614  1.1712 -0.3201
  121OSM   H15C12765   4.859   0.567  11.399  0.2238  0.1599  1.0018
  121OSM    C1412766   4.635   0.495  11.493 -0.1213  0.0106  0.3747
  121OSM   H14A12767   4.709   0.507  11.571  0.3450 -0.1421 -0.0354
  121OSM   H14B12768   4.541   0.462  11.534 -0.6069  0.1405 -0.6076
  121OSM   H14C12769   4.614   0.598  11.469  1.4972 -0.2975 -2.8493
  121OSM    C1312770   4.574   0.402  11.275 -0.8234  0.8840 -0.3017
  121OSM   H13A12771   4.511   0.321  11.309 -0.3432  0.3679 -0.6380
  121OSM   H13B12772   4.610   0.406  11.173 -0.0966  0.4954 -0.0671
  121OSM   H13C12773   4.515   0.493  11.279 -1.7546  0.2606  1.4437
  121OSM    C1212774   4.762   0.297  11.409 -0.8721 -0.2559  0.7946
  121OSM   H12A12775   4.702   0.232  11.470 -0.2855 -0.7958  0.8042
  121OSM   H12B12776   4.844   0.335  11.468  0.2016 -3.3064  1.4442
  121OSM    C1112777   4.824   0.208  11.298  0.1082 -1.5508 -0.8919
  121OSM   H11A12778   4.739   0.185  11.230  0.3226 -0.8365 -1.4139
  121OSM   H11B12779   4.850   0.109  11.340  0.5223 -1.5705 -1.1953
  121OSM      P12780   5.071   0.284  11.285  0.3276  0.0583  0.4424
  121OSM    O1312781   5.115   0.423  11.280 -0.7063 -0.3329 -0.2929
  121OSM    O1412782   5.065   0.215  11.415 -0.2040 -1.0184 -0.1000
  121OSM    O1112783   5.170   0.201  11.196 -0.0105 -0.0646  0.4470
  121OSM    O1212784   4.925   0.276  11.222 -0.3368  0.1280  1.0020
  121OSM    C1S12785   5.125   0.123  11.083 -1.4081  0.6982  0.5522
  121OSM    H1S12786   5.045   0.177  11.028 -1.7901  0.2338  0.6394
  121OSM    H1T12787   5.087   0.024  11.117  1.4868  0.1498  2.5431
  121OSM     NF12788   5.163   0.012  10.862  0.3407 -0.1599 -0.2821
  121OSM    HNF12789   5.162  -0.088  10.863  0.8698 -0.1668 -0.2230
  121OSM    C2S12790   5.238   0.083  10.963  0.7333 -0.8975  0.8850
  121OSM    H2S12791   5.272   0.183  10.926  0.4360 -1.0111  0.2898
  121OSM    C3S12792   5.356  -0.000  11.020 -0.0438  0.0316  0.9325
  121OSM    H3S12793   5.319  -0.101  11.050 -1.6718  0.0881 -0.7220
  121OSM     O312794   5.422   0.057  11.133  0.1293 -0.5842 -0.3634
  121OSM    HO312795   5.355   0.120  11.158 -0.0696 -0.6792 -0.6457
  121OSM    C4S12796   5.456  -0.023  10.913 -0.2252 -0.2949  0.6707
  121OSM    H4S12797   5.460  -0.127  10.879  0.3450 -0.6193  1.6655
  121OSM    C5S12798   5.534   0.058  10.840  0.7768  0.1114 -0.2354
  121OSM    H5S12799   5.512   0.165  10.849 -2.4368 -0.4280 -0.5510
  121OSM    C6S12800   5.625   0.016  10.729  0.3200 -0.5285 -0.6892
  121OSM    H6S12801   5.728   0.056  10.745 -0.1018  0.2450  0.1458
  121OSM    H6T12802   5.590   0.072  10.639  0.4951  1.1056  0.2123
  121OSM    C7S12803   5.643  -0.129  10.689 -0.5208 -0.7796  0.2180
  121OSM    H7S12804   5.541  -0.169  10.670 -1.0351  0.5486  0.1142
  121OSM    H7T12805   5.697  -0.178  10.773 -0.1343  3.8368  3.0005
  121OSM    C8S12806   5.729  -0.155  10.561  0.3010 -0.2540  0.6072
  121OSM    H8S12807   5.757  -0.262  10.562  0.5738 -0.2616 -1.6294
  121OSM    H8T12808   5.827  -0.103  10.569  0.1225  0.2304 -0.2062
  121OSM    C9S12809   5.663  -0.089  10.435 -1.0482  0.5720 -0.0695
  121OSM    H9S12810   5.680   0.021  10.425 -0.5130  0.4845 -0.1527
  121OSM    H9T12811   5.553  -0.106  10.431 -0.9550 -0.7073  1.7795
  121OSM   C10S12812   5.732  -0.160  10.309  0.2577 -0.0334 -0.5042
  121OSM   H10S12813   5.725  -0.271  10.314 -1.1936  0.0818  1.0595
  121OSM   H10T12814   5.839  -0.139  10.329  0.2590 -0.2130 -0.3129
  121OSM   C11S12815   5.697  -0.104  10.170 -0.5869 -0.5083 -1.8512
  121OSM   H11S12816   5.723   0.003  10.179 -1.1940 -0.5276  1.2325
  121OSM   H11T12817   5.588  -0.119  10.153 -0.8303 -2.2617  0.6392
  121OSM   C12S12818   5.770  -0.186  10.064 -0.3814  0.9094  0.5084
  121OSM   H12S12819   5.739  -0.292  10.077 -0.6860  0.8938 -0.2929
  121OSM   H12T12820   5.879  -0.184  10.084 -0.2797  2.8817 -0.1102
  121OSM   C13S12821   5.758  -0.141   9.921 -0.0784  0.6055  0.3058
  121OSM   H13S12822   5.800  -0.038   9.926  1.3717 -0.0209  1.9191
  121OSM   H13T12823   5.652  -0.142   9.887  0.2394 -0.7041 -0.7272
  121OSM   C14S12824   5.832  -0.231   9.823  0.2250  0.7952  0.6080
  121OSM   H14S12825   5.780  -0.330   9.827 -0.8634  1.3778  1.1726
  121OSM   H14T12826   5.932  -0.236   9.869  1.4089  2.2872 -1.6287
  121OSM   C15S12827   5.832  -0.170   9.680 -0.4452  0.1377  0.1004
  121OSM   H15S12828   5.923  -0.203   9.624  0.4218  3.3783 -0.6355
  121OSM   H15T12829   5.839  -0.059   9.692  3.4029  0.1826 -0.9323
  121OSM   C16S12830   5.701  -0.211   9.605  0.5231 -0.3906 -0.0795
  121OSM   H16S12831   5.619  -0.179   9.673  0.3260 -4.2636  1.7626
  121OSM   H16T12832   5.684  -0.320   9.590 -1.0555 -0.2929  0.7547
  121OSM   C17S12833   5.688  -0.153   9.467 -0.3890 -0.0058 -1.0268
  121OSM   H17S12834   5.744  -0.220   9.398 -0.4659  0.6461 -1.7376
  121OSM   H17T12835   5.737  -0.053   9.459 -0.0069 -0.2323 -1.5298
  121OSM   C18S12836   5.547  -0.152   9.418  0.8838  0.6104 -0.4685
  121OSM   H18S12837   5.543  -0.104   9.318 -1.4230  3.0162  0.6666
  121OSM   H18T12838   5.490  -0.082   9.483 -0.2352  0.3446 -1.1349
  121OSM   H18U12839   5.488  -0.246   9.429 -0.8907  1.9866  3.5254
  121OSM    C1F12840   5.095   0.066  10.759  0.2240  0.2759 -0.0880
  121OSM     OF12841   5.093   0.188  10.747  0.7083  0.3638  0.4985
  121OSM    C2F12842   5.036  -0.036  10.662  0.3783 -0.0734  0.2365
  121OSM    H2F12843   5.057  -0.139  10.697  1.3482  1.0295  3.1728
  121OSM    H2G12844   5.079  -0.009  10.563 -0.2458  1.5611  0.3766
  121OSM    C3F12845   4.875  -0.032  10.656 -0.6599 -0.3455 -0.8751
  121OSM    H3F12846   4.825   0.052  10.604 -2.7568  0.9861  2.9414
  121OSM    H3G12847   4.847  -0.010  10.761  0.0313  1.7446 -1.0843
  121OSM    C4F12848   4.802  -0.164  10.628  1.0513  0.0945 -0.2513
  121OSM    H4F12849   4.691  -0.156  10.625  0.9662 -0.7577  0.2031
  121OSM    H4G12850   4.835  -0.237  10.705 -1.0206 -1.0052 -0.3319
  121OSM    C5F12851   4.843  -0.227  10.499  0.4543 -0.2052 -0.3531
  121OSM    H5F12852   4.804  -0.331  10.508 -2.8995  0.8417 -1.2077
  121OSM    H5G12853   4.951  -0.213  10.475  0.1448  1.1095 -1.0650
  121OSM    C6F12854   4.770  -0.158  10.379 -0.2817 -0.4775 -0.2802
  121OSM    H6F12855   4.797  -0.053  10.354  1.6460 -1.0608 -0.8460
  121OSM    H6G12856   4.669  -0.168  10.424  0.4905  3.0750  2.7282
  121OSM    C7F12857   4.774  -0.240  10.255 -0.1427  0.4209 -0.0560
  121OSM    H7F12858   4.686  -0.229  10.188 -0.6378  1.1469  0.7025
  121OSM    H7G12859   4.770  -0.347  10.285 -0.7054 -0.3372 -2.5901
  121OSM    C8F12860   4.904  -0.232  10.184  0.0585 -0.0696 -0.1668
  121OSM    H8F12861   4.929  -0.329  10.136 -0.2633 -0.3154  0.1612
  121OSM    H8G12862   4.986  -0.221  10.259 -0.1322 -0.9118  0.1762
  121OSM    C9F12863   4.909  -0.108  10.097  0.5622 -0.1595  0.0150
  121OSM    H9F12864   4.844  -0.028  10.134 -1.1064 -0.2403 -2.4736
  121OSM   C10F12865   4.974  -0.086   9.985 -0.4123  0.6427  0.1903
  121OSM   H10F12866   4.968   0.017   9.948  0.3609  0.5923 -0.0892
  121OSM   C11F12867   5.074  -0.184   9.919 -0.2214 -0.2329 -0.2945
  121OSM   H11F12868   5.098  -0.280   9.968  0.2248  0.6510  1.2906
  121OSM   H11G12869   5.173  -0.139   9.897 -0.3109 -0.5484 -1.3728
  121OSM   C12F12870   5.026  -0.228   9.780 -0.1676 -0.5611 -0.2608
  121OSM   H12F12871   4.936  -0.292   9.789  0.0876 -0.6728  2.1888
  121OSM   H12G12872   5.098  -0.300   9.736 -0.8705  0.4556 -3.3211
  121OSM   C13F12873   5.008  -0.112   9.680 -0.2285  0.1270  0.1611
  121OSM   H13F12874   5.085  -0.034   9.700 -1.6702  1.5394  0.3997
  121OSM   H13G12875   4.910  -0.062   9.699 -1.3739 -1.6465 -0.8275
  121OSM   C14F12876   5.017  -0.148   9.526  0.1530 -0.5255 -0.1043
  121OSM   H14F12877   4.946  -0.226   9.491  1.8816 -0.8391 -3.3182
  121OSM   H14G12878   5.120  -0.191   9.522  0.5897  0.2672  1.5370
  121OSM   C15F12879   5.003  -0.020   9.438  0.1973 -0.0227 -0.1892
  121OSM   H15F12880   5.090   0.046   9.456 -0.2743  0.3368  0.8414
  121OSM   H15G12881   4.923   0.043   9.482 -0.1315 -1.0615  0.7543
  121OSM   C16F12882   4.990  -0.066   9.291  0.1238  0.2913 -0.1799
  121OSM   H16F12883   4.961   0.028   9.238  1.7352  1.3323  0.6819
  121OSM   H16G12884   4.907  -0.139   9.276  0.9585 -0.2993 -2.2575
  121OSM   C17F12885   5.117  -0.102   9.222 -0.3632  0.7412 -0.1194
  121OSM   H17F12886   5.108  -0.120   9.113  1.0123 -1.1140  0.0259
  121OSM   H17G12887   5.156  -0.199   9.260 -2.0291 -0.1572 -0.6211
  121OSM   C18F12888   5.229   0.001   9.251  0.2802 -0.1381  0.7661
  121OSM   H18F12889   5.255   0.004   9.359 -0.4828  2.1659  0.9311
  121OSM   H18G12890   5.206   0.108   9.236  2.3910  0.1484 -1.0058
  121OSM   H18H12891   5.318  -0.021   9.188  0.5372 -0.2095  1.1496
  122OSM      N12892   4.792   5.268  11.184 -0.3863  0.0742  0.3553
  122OSM    C1512893   4.856   5.375  11.271 -0.3623 -0.9567 -0.9218
  122OSM   H15A12894   4.783   5.414  11.341 -1.0579 -0.6314 -1.8174
  122OSM   H15B12895   4.904   5.456  11.218 -0.4338 -0.6458 -0.5144
  122OSM   H15C12896   4.943   5.332  11.318 -0.5497 -1.5088 -1.0819
  122OSM    C1412897   4.788   5.136  11.246 -0.5457 -0.2967  0.0845
  122OSM   H14A12898   4.888   5.111  11.281  0.0811  1.7297 -0.1567
  122OSM   H14B12899   4.738   5.070  11.177 -1.0990  1.4671 -1.2679
  122OSM   H14C12900   4.725   5.151  11.332 -1.8695  4.2683 -1.4102
  122OSM    C1312901   4.646   5.310  11.177  0.3646 -0.2918 -0.0282
  122OSM   H13A12902   4.638   5.413  11.144 -0.2539 -0.7764 -1.4740
  122OSM   H13B12903   4.606   5.304  11.277 -0.2996  0.7672 -0.2154
  122OSM   H13C12904   4.591   5.244  11.111  1.8326 -1.2609 -0.3386
  122OSM    C1212905   4.858   5.268  11.048  0.3028  0.3861  0.5399
  122OSM   H12A12906   4.831   5.361  10.999  1.5633  0.5099  0.0701
  122OSM   H12B12907   4.818   5.190  10.985 -0.3628  1.1376  0.0136
  122OSM    C1112908   5.012   5.253  11.036 -0.0143 -0.2374 -0.5259
  122OSM   H11A12909   5.046   5.349  11.079 -0.3343 -0.5159  0.3568
  122OSM   H11B12910   5.051   5.259  10.932  4.0468 -0.9746  0.7771
  122OSM      P12911   5.064   5.001  11.050 -0.0613  0.2388  0.1082
  122OSM    O1312912   5.107   4.902  11.150  0.0127  0.0887 -0.1526
  122OSM    O1412913   4.939   4.973  10.983 -0.2247 -0.4410  0.0137
  122OSM    O1112914   5.186   5.016  10.946  0.6854  0.4247 -0.2422
  122OSM    O1212915   5.070   5.149  11.116  0.0542 -0.3912  0.3164
  122OSM    C1S12916   5.222   4.900  10.879 -0.0212  0.3532 -0.5042
  122OSM    H1S12917   5.145   4.828  10.844 -1.6753  2.0115 -0.4191
  122OSM    H1T12918   5.296   4.849  10.945 -0.5883 -1.5821 -1.2858
  122OSM     NF12919   5.323   4.836  10.660 -0.5609  0.5130  0.4543
  122OSM    HNF12920   5.413   4.792  10.657 -0.6803  0.0064  2.6122
  122OSM    C2S12921   5.304   4.943  10.751 -0.5433  0.3977  0.0219
  122OSM    H2S12922   5.257   5.024  10.691  0.3483 -0.1767 -1.4932
  122OSM    C3S12923   5.448   4.991  10.812  0.6261 -0.6228  1.5033
  122OSM    H3S12924   5.498   4.896  10.839 -0.1974 -1.1095  1.3471
  122OSM     O312925   5.431   5.080  10.914  0.1068 -0.0434 -0.6933
  122OSM    HO312926   5.338   5.075  10.935 -0.0041  1.2685 -0.7885
  122OSM    C4S12927   5.535   5.053  10.698 -0.0626 -0.2957 -0.1928
  122OSM    H4S12928   5.593   4.978  10.641  0.9893 -0.3181  0.8683
  122OSM    C5S12929   5.535   5.185  10.666  0.2592  0.2522 -0.3386
  122OSM    H5S12930   5.468   5.253  10.723  0.3630  0.1457 -0.0888
  122OSM    C6S12931   5.603   5.260  10.556 -0.3545 -0.1640  0.5800
  122OSM    H6S12932   5.692   5.308  10.602 -1.8179  1.7154  1.6513
  122OSM    H6T12933   5.535   5.338  10.514  0.8358  1.9974  2.4493
  122OSM    C7S12934   5.660   5.196  10.439 -0.2077 -0.2191 -1.0308
  122OSM    H7S12935   5.737   5.120  10.463 -0.3935 -0.7681 -2.1064
  122OSM    H7T12936   5.719   5.265  10.375 -1.0928 -0.9178 -2.6460
  122OSM    C8S12937   5.552   5.139  10.341 -0.2310 -0.2282 -1.0766
  122OSM    H8S12938   5.479   5.219  10.317 -0.7448 -0.4053 -0.1714
  122OSM    H8T12939   5.498   5.059  10.396 -2.2715  2.4425  1.0901
  122OSM    C9S12940   5.615   5.092  10.211 -0.4414  0.5756  0.7915
  122OSM    H9S12941   5.714   5.043  10.218  0.0431  0.7037 -2.8126
  122OSM    H9T12942   5.632   5.181  10.147 -0.3716 -0.0221 -0.0495
  122OSM   C10S12943   5.534   4.981  10.148 -0.0233  0.5163  0.4062
  122OSM   H10S12944   5.430   5.014  10.126 -0.2830  0.0267  0.8568
  122OSM   H10T12945   5.516   4.900  10.222 -2.1622  2.0841  1.7100
  122OSM   C11S12946   5.592   4.919  10.019 -0.1546 -0.3024  0.4896
  122OSM   H11S12947   5.556   4.816  10.001  0.6369 -0.2725 -1.4677
  122OSM   H11T12948   5.702   4.928  10.031 -0.3683  0.5733  2.1630
  122OSM   C12S12949   5.537   4.994   9.901 -0.8620 -0.1326  0.0588
  122OSM   H12S12950   5.582   5.096   9.905 -3.6206  1.3216 -1.9996
  122OSM   H12T12951   5.427   5.006   9.909 -0.7293  0.2958  1.4449
  122OSM   C13S12952   5.577   4.930   9.769  0.1435  0.2590  0.6885
  122OSM   H13S12953   5.539   4.827   9.750 -2.6761  1.0186  1.6402
  122OSM   H13T12954   5.687   4.916   9.766  0.0141 -0.9034  0.8785
  122OSM   C14S12955   5.541   5.015   9.642 -0.7763  0.6093 -0.2065
  122OSM   H14S12956   5.594   5.111   9.659 -1.0652  0.5056  1.4676
  122OSM   H14T12957   5.430   5.017   9.638 -0.7935  1.2539  0.3533
  122OSM   C15S12958   5.606   4.951   9.520  0.2228  0.5590  0.8314
  122OSM   H15S12959   5.563   4.849   9.507  3.3005 -1.0870  2.4409
  122OSM   H15T12960   5.714   4.931   9.540  0.3382 -0.0875 -0.3774
  122OSM   C16S12961   5.599   5.050   9.398 -0.2928  0.0536  0.0364
  122OSM   H16S12962   5.630   5.153   9.426 -1.8074  1.5620 -3.3247
  122OSM   H16T12963   5.492   5.054   9.368 -0.7426 -0.4576  1.4958
  122OSM   C17S12964   5.675   5.003   9.275 -0.0748 -0.5130  0.6117
  122OSM   H17S12965   5.651   4.895   9.264  0.1397 -0.4350 -0.8416
  122OSM   H17T12966   5.784   5.011   9.298  0.3237  1.2463 -1.5447
  122OSM   C18S12967   5.654   5.079   9.144  0.4238  0.0668 -0.7066
  122OSM   H18S12968   5.678   5.187   9.161  1.2254 -0.3612  1.2375
  122OSM   H18T12969   5.547   5.068   9.120  0.0039  0.8563  0.6666
  122OSM   H18U12970   5.707   5.029   9.060  1.6566 -1.1727  0.7481
  122OSM    C1F12971   5.223   4.786  10.581  0.0887 -0.9772 -0.9001
  122OSM     OF12972   5.114   4.845  10.573 -0.3727 -0.0700 -0.1960
  122OSM    C2F12973   5.257   4.667  10.495  0.0560  0.4552  0.1676
  122OSM    H2F12974   5.186   4.586  10.521  2.2324 -1.4320  0.4908
  122OSM    H2G12975   5.362   4.633  10.509  0.2430  0.9776  0.0648
  122OSM    C3F12976   5.239   4.710  10.352 -0.1252 -0.3106 -0.1992
  122OSM    H3F12977   5.301   4.800  10.331 -1.5780  1.0551  1.0449
  122OSM    H3G12978   5.139   4.753  10.330  0.1146 -0.0759 -0.8477
  122OSM    C4F12979   5.287   4.603  10.248  0.5867  0.6193 -0.1943
  122OSM    H4F12980   5.210   4.523  10.242  0.7960  0.4176 -0.1951
  122OSM    H4G12981   5.374   4.548  10.290  1.2782  0.5806 -1.6336
  122OSM    C5F12982   5.332   4.661  10.108 -0.1399 -0.3061  0.4784
  122OSM    H5F12983   5.402   4.747  10.116 -1.2779  1.1885 -3.4100
  122OSM    H5G12984   5.239   4.708  10.069  0.0702 -1.6967 -1.8806
  122OSM    C6F12985   5.374   4.567  10.000  0.4726 -0.1877  0.0822
  122OSM    H6F12986   5.316   4.472  10.009 -0.1327 -0.1992 -2.9584
  122OSM    H6G12987   5.483   4.548  10.007  0.8328  1.6268 -0.1187
  122OSM    C7F12988   5.336   4.623   9.862 -0.2410  0.6436 -0.6901
  122OSM    H7F12989   5.392   4.719   9.854  1.8635 -0.6416 -2.8404
  122OSM    H7G12990   5.228   4.645   9.856 -0.6189 -1.1217 -0.6504
  122OSM    C8F12991   5.363   4.521   9.746 -0.9584  0.1784 -0.0308
  122OSM    H8F12992   5.296   4.552   9.663  0.0933 -0.7451 -1.2721
  122OSM    H8G12993   5.339   4.416   9.776 -2.5630  0.2194 -1.0687
  122OSM    C9F12994   5.510   4.539   9.718  0.6765  0.3455  0.9831
  122OSM    H9F12995   5.578   4.523   9.803  0.9129 -2.3681  0.3640
  122OSM   C10F12996   5.561   4.568   9.598  0.5280  0.3074 -0.6737
  122OSM   H10F12997   5.671   4.572   9.595  0.6744  0.0489  1.9453
  122OSM   C11F12998   5.479   4.581   9.469 -0.4317 -0.3041  0.0824
  122OSM   H11F12999   5.430   4.681   9.459  0.8604  0.5046  1.3988
  122OSM   H11G13000   5.408   4.498   9.450 -1.0405  0.4045 -0.8898
  122OSM   C12F13001   5.578   4.580   9.350  0.5143  0.3236 -0.1315
  122OSM   H12F13002   5.639   4.489   9.365  2.1025  1.6205  1.6587
  122OSM   H12G13003   5.645   4.668   9.345  1.7601 -0.6555 -1.7721
  122OSM   C13F13004   5.510   4.561   9.215 -0.0798 -0.1141  0.0649
  122OSM   H13F13005   5.441   4.648   9.205 -1.4773 -1.1114  0.6797
  122OSM   H13G13006   5.436   4.478   9.223  1.5106 -1.9787 -3.0090
  122OSM   C14F13007   5.607   4.532   9.102 -0.7023 -0.1559 -0.2902
  122OSM   H14F13008   5.683   4.613   9.096  0.3581 -0.9723  1.2190
  122OSM   H14G13009   5.545   4.522   9.011  0.5398 -1.1063 -1.0543
  122OSM   C15F13010   5.672   4.384   9.101  0.4848 -0.3116 -0.7185
  122OSM   H15F13011   5.587   4.313   9.110  0.0231 -0.2876 -3.8809
  122OSM   H15G13012   5.730   4.377   9.196 -2.3791  0.0126  1.1706
  122OSM   C16F13013   5.759   4.365   8.987 -0.1574  0.6012  0.5688
  122OSM   H16F13014   5.845   4.435   8.988 -3.2323  4.8070 -1.6801
  122OSM   H16G13015   5.708   4.385   8.890  0.4768  0.8451  0.2799
  122OSM   C17F13016   5.807   4.217   8.988  0.0598  0.3238  0.5809
  122OSM   H17F13017   5.721   4.149   8.972 -0.1155  0.9221 -1.1741
  122OSM   H17G13018   5.839   4.189   9.091 -0.2720 -0.7053  0.4222
  122OSM   C18F13019   5.930   4.173   8.898  0.3953  0.3136 -0.6154
  122OSM   H18F13020   5.971   4.263   8.847  3.1616  1.0947  2.6383
  122OSM   H18G13021   5.908   4.087   8.831  0.5537  1.2404 -1.8878
  122OSM   H18H13022   6.008   4.137   8.969 -1.1893  0.1358  1.1253
  123OSM      N13023   5.761   2.298   6.097  0.4260  1.0562 -0.0384
  123OSM    C1513024   5.894   2.230   6.070 -0.7842 -0.0159  0.1178
  123OSM   H15A13025   5.896   2.168   5.982  3.2317 -0.6916  0.4971
  123OSM   H15B13026   5.923   2.175   6.158 -0.4290  0.1968  0.1384
  123OSM   H15C13027   5.969   2.304   6.047  0.7865 -1.3964  0.5797
  123OSM    C1413028   5.736   2.382   5.977  0.0675 -0.2230 -0.6856
  123OSM   H14A13029   5.797   2.471   5.983 -2.1174  1.4053 -1.3992
  123OSM   H14B13030   5.635   2.418   5.977 -0.5513 -1.8666 -0.9691
  123OSM   H14C13031   5.749   2.334   5.881 -1.9610  0.5746 -1.4017
  123OSM    C1313032   5.654   2.188   6.106  0.0039  0.2061  0.3787
  123OSM   H13A13033   5.553   2.222   6.123 -1.0692 -0.9402 -3.0017
  123OSM   H13B13034   5.688   2.125   6.187 -0.2430  1.5380  1.5723
  123OSM   H13C13035   5.642   2.135   6.013 -1.8215  2.6972 -0.9376
  123OSM    C1213036   5.775   2.381   6.226  0.2123  0.5898  0.5206
  123OSM   H12A13037   5.880   2.401   6.239  0.4455  0.4437 -0.9475
  123OSM   H12B13038   5.738   2.315   6.303  1.1703 -0.2755  0.2627
  123OSM    C1113039   5.691   2.506   6.230 -1.3206 -0.4815  0.1781
  123OSM   H11A13040   5.662   2.527   6.335  0.6717  0.4593  0.5911
  123OSM   H11B13041   5.598   2.499   6.169  0.1426  1.3020 -2.5025
  123OSM      P13042   5.713   2.738   6.112 -0.2206 -0.0420  0.2375
  123OSM    O1313043   5.828   2.824   6.071  0.5897 -0.1470  0.0966
  123OSM    O1413044   5.621   2.702   6.004  0.0796  0.1243 -0.6198
  123OSM    O1113045   5.638   2.798   6.242  0.5335 -0.3731 -0.0621
  123OSM    O1213046   5.774   2.611   6.183 -0.2294 -0.2576  0.1202
  123OSM    C1S13047   5.548   2.904   6.247  0.0896 -0.1042  0.7621
  123OSM    H1S13048   5.454   2.879   6.194  0.5136  0.1514 -0.1572
  123OSM    H1T13049   5.576   2.988   6.180 -0.2898 -1.1228 -0.7383
  123OSM     NF13050   5.416   3.058   6.369  0.3885  0.4514 -0.2167
  123OSM    HNF13051   5.438   3.154   6.354 -1.4438  0.8908 -0.3013
  123OSM    C2S13052   5.521   2.964   6.391  0.0948  0.8239  0.0274
  123OSM    H2S13053   5.485   2.887   6.462  1.1698  1.6035  1.4932
  123OSM    C3S13054   5.636   3.036   6.456 -0.8849 -0.5465  0.1618
  123OSM    H3S13055   5.652   3.129   6.398 -2.5368 -0.5680 -0.3733
  123OSM     O313056   5.757   2.959   6.448 -0.8909  0.0762  0.2045
  123OSM    HO313057   5.736   2.871   6.416 -0.4211  0.5548 -1.4989
  123OSM    C4S13058   5.607   3.074   6.599  0.1319 -0.5133 -0.2034
  123OSM    H4S13059   5.541   3.162   6.603 -0.3051 -0.8361 -0.0967
  123OSM    C5S13060   5.636   2.995   6.706 -0.3809 -0.3209 -0.4881
  123OSM    H5S13061   5.694   2.902   6.696  0.4986  0.1840 -0.2077
  123OSM    C6S13062   5.602   3.036   6.849 -0.4624 -0.0659  0.6326
  123OSM    H6S13063   5.504   3.088   6.842  0.5383  2.0753  1.5200
  123OSM    H6T13064   5.680   3.109   6.882 -0.7461 -0.4473  2.1808
  123OSM    C7S13065   5.606   2.915   6.941  0.3953  0.2687 -0.7296
  123OSM    H7S13066   5.696   2.851   6.931  0.3790 -0.5913  3.0932
  123OSM    H7T13067   5.524   2.846   6.911 -0.6334 -0.5409  3.2630
  123OSM    C8S13068   5.601   2.951   7.092  0.9413  0.1754 -0.1728
  123OSM    H8S13069   5.523   3.030   7.100 -1.5554 -1.9076 -2.0885
  123OSM    H8T13070   5.700   2.994   7.120  0.4263 -0.1129  2.2933
  123OSM    C9S13071   5.549   2.848   7.197 -0.5362  0.5557 -0.4266
  123OSM    H9S13072   5.620   2.763   7.196 -0.5181  0.5683 -0.1171
  123OSM    H9T13073   5.443   2.815   7.186 -0.0342 -0.3302 -4.0282
  123OSM   C10S13074   5.544   2.923   7.333 -0.2420 -0.0710  0.0496
  123OSM   H10S13075   5.481   3.013   7.320 -2.9341 -1.9725 -0.8777
  123OSM   H10T13076   5.649   2.944   7.365 -0.1918  0.0951 -0.2212
  123OSM   C11S13077   5.475   2.840   7.443  0.0482 -0.2155  0.6995
  123OSM   H11S13078   5.541   2.751   7.453  2.4335  1.5705  1.8124
  123OSM   H11T13079   5.383   2.808   7.390  1.5170 -2.4508 -0.7382
  123OSM   C12S13080   5.473   2.916   7.576  0.7766  0.2217  0.1051
  123OSM   H12S13081   5.415   3.010   7.565 -0.1187 -0.3354 -0.0539
  123OSM   H12T13082   5.576   2.940   7.611  0.8246  0.3248 -0.1061
  123OSM   C13S13083   5.417   2.832   7.693  0.1889  0.2267 -0.3634
  123OSM   H13S13084   5.462   2.731   7.697 -0.7975 -0.2117  0.0334
  123OSM   H13T13085   5.307   2.828   7.678  0.1310  2.0223 -0.6966
  123OSM   C14S13086   5.433   2.894   7.827 -0.7001 -0.7928  0.2765
  123OSM   H14S13087   5.395   2.997   7.808  0.5485 -0.5875 -1.3503
  123OSM   H14T13088   5.542   2.894   7.846 -0.6190  0.0821 -0.1449
  123OSM   C15S13089   5.359   2.835   7.943  0.1187  1.0081  0.6906
  123OSM   H15S13090   5.387   2.728   7.952  2.0628  1.2638 -1.5482
  123OSM   H15T13091   5.254   2.840   7.907  0.1246 -0.2334  0.4692
  123OSM   C16S13092   5.358   2.899   8.082 -0.0263 -0.4215  0.5106
  123OSM   H16S13093   5.454   2.868   8.130  1.7252  1.4287 -1.5754
  123OSM   H16T13094   5.273   2.861   8.142  0.7925 -0.9224  1.3810
  123OSM   C17S13095   5.360   3.062   8.084 -0.1444  0.9150 -0.3372
  123OSM   H17S13096   5.276   3.103   8.024 -0.6010  0.3616 -0.0888
  123OSM   H17T13097   5.455   3.091   8.033  0.1349  2.5929  1.0316
  123OSM   C18S13098   5.361   3.124   8.222 -0.1954  0.3122  0.3768
  123OSM   H18S13099   5.266   3.096   8.271 -0.1725 -0.3354  0.0661
  123OSM   H18T13100   5.346   3.233   8.208  1.5370  0.2479 -3.6104
  123OSM   H18U13101   5.447   3.100   8.287  0.8693  0.3642 -0.9555
  123OSM    C1F13102   5.290   3.021   6.360  0.6460 -0.2734  0.0487
  123OSM     OF13103   5.259   2.904   6.374 -0.4909  0.0214  0.4822
  123OSM    C2F13104   5.183   3.119   6.329 -0.0491 -0.0189  0.2410
  123OSM    H2F13105   5.130   3.080   6.239 -1.5700  0.8931  0.6991
  123OSM    H2G13106   5.231   3.218   6.312  0.6689 -0.3363  0.3874
  123OSM    C3F13107   5.091   3.125   6.452  0.1059 -0.0224  0.2263
  123OSM    H3F13108   5.156   3.115   6.541  0.6798 -2.3378 -0.3850
  123OSM    H3G13109   5.012   3.046   6.447  1.2404 -1.1364 -0.6916
  123OSM    C4F13110   5.017   3.258   6.463  0.8990  0.2402  0.1935
  123OSM    H4F13111   4.952   3.263   6.374  0.8546 -0.7915  0.1638
  123OSM    H4G13112   5.098   3.335   6.461  1.5700 -0.4604 -2.5591
  123OSM    C5F13113   4.924   3.259   6.595  0.2425  0.2550  0.5663
  123OSM    H5F13114   4.862   3.351   6.590 -0.6699 -0.3387  0.7974
  123OSM    H5G13115   4.978   3.270   6.692  0.4565 -0.0670  0.4853
  123OSM    C6F13116   4.827   3.137   6.603 -0.4494 -0.0740  0.7461
  123OSM    H6F13117   4.879   3.039   6.607 -1.1461 -0.5270 -0.5034
  123OSM    H6G13118   4.761   3.137   6.513  0.2779  0.1876  0.2071
  123OSM    C7F13119   4.722   3.157   6.710  0.0556 -0.4932  0.1409
  123OSM    H7F13120   4.684   3.262   6.715  0.0614 -0.5436  1.8338
  123OSM    H7G13121   4.756   3.121   6.810  0.4980 -2.4999 -0.6962
  123OSM    C8F13122   4.600   3.068   6.686  0.4268 -0.3283  0.4698
  123OSM    H8F13123   4.641   2.967   6.704  0.7484 -0.2167  0.3576
  123OSM    H8G13124   4.580   3.066   6.577  2.2488 -0.3529  0.1052
  123OSM    C9F13125   4.471   3.093   6.757 -0.0785  0.0500 -1.1103
  123OSM    H9F13126   4.414   3.176   6.712 -0.1057  0.1876 -0.8262
  123OSM   C10F13127   4.424   3.041   6.876  0.5984  0.7872  0.0856
  123OSM   H10F13128   4.331   3.084   6.916  0.3268  2.9549 -2.5566
  123OSM   C11F13129   4.496   2.942   6.957  0.4786  0.3021  0.8206
  123OSM   H11F13130   4.590   2.916   6.904  0.3177 -3.2946  2.0454
  123OSM   H11G13131   4.442   2.845   6.960  1.6917 -0.3796  2.9336
  123OSM   C12F13132   4.545   2.971   7.105 -0.4463  0.2582 -0.2664
  123OSM   H12F13133   4.602   3.064   7.083  0.8737 -0.7253 -1.1702
  123OSM   H12G13134   4.627   2.904   7.138 -1.2672 -0.6012  0.0804
  123OSM   C13F13135   4.423   2.977   7.203  0.7197 -0.7239  0.7388
  123OSM   H13F13136   4.365   2.884   7.187 -0.0001 -0.3471  1.0985
  123OSM   H13G13137   4.349   3.056   7.178  1.6313 -0.4448 -1.3182
  123OSM   C14F13138   4.462   2.976   7.351  0.3160 -1.0765 -0.3672
  123OSM   H14F13139   4.519   3.068   7.375 -3.1224  0.5700  2.4040
  123OSM   H14G13140   4.523   2.888   7.378  1.7123 -0.1013 -0.2481
  123OSM   C15F13141   4.342   2.989   7.454 -0.3057  0.2287 -0.3374
  123OSM   H15F13142   4.271   2.905   7.443 -0.7565  0.5877 -0.1718
  123OSM   H15G13143   4.280   3.078   7.431  0.2312  0.6368 -0.2618
  123OSM   C16F13144   4.394   3.019   7.597  0.0806 -0.0580  0.2987
  123OSM   H16F13145   4.471   3.099   7.600  0.3360 -0.2136 -1.2990
  123OSM   H16G13146   4.440   2.925   7.636 -0.3824 -0.0928  0.7725
  123OSM   C17F13147   4.290   3.060   7.703  0.6696  0.7441 -0.5121
  123OSM   H17F13148   4.207   2.986   7.708 -0.0544  1.5269 -0.7164
  123OSM   H17G13149   4.242   3.152   7.664  0.0548 -1.0187 -4.4277
  123OSM   C18F13150   4.360   3.064   7.837 -0.0352 -0.1066 -0.4865
  123OSM   H18F13151   4.464   3.102   7.835 -0.0485 -0.0487 -0.0893
  123OSM   H18G13152   4.373   2.964   7.882 -0.6464  0.6858  1.5511
  123OSM   H18H13153   4.302   3.123   7.910  0.9247  1.0173 -0.6028
  124OSM      N13154   1.132   0.635   6.109  0.0497  0.2381 -0.2184
  124OSM    C1513155   1.103   0.492   6.074  0.2063  0.3962  0.0501
  124OSM   H15A13156   1.166   0.449   5.997 -2.1233 -1.8024 -0.7833
  124OSM   H15B13157   1.005   0.490   6.030 -0.1345 -3.3253  0.6505
  124OSM   H15C13158   1.100   0.429   6.162 -2.2164  1.4112  0.7736
  124OSM    C1413159   1.266   0.644   6.163 -0.1256  0.0044  0.0659
  124OSM   H14A13160   1.294   0.558   6.223  0.4673  1.1703  1.5197
  124OSM   H14B13161   1.274   0.734   6.222 -0.3332  1.5421 -2.1350
  124OSM   H14C13162   1.333   0.642   6.079  0.4651 -2.2007  0.5209
  124OSM    C1313163   1.127   0.714   5.986  0.0707 -0.2937  0.0504
  124OSM   H13A13164   1.149   0.817   6.011 -3.7836  0.2386  1.9603
  124OSM   H13B13165   1.029   0.727   5.943  0.4500  0.1872 -0.7032
  124OSM   H13C13166   1.198   0.687   5.910 -0.1213  1.0416 -0.6407
  124OSM    C1213167   1.040   0.688   6.214 -0.7630  0.5288  0.1507
  124OSM   H12A13168   1.074   0.653   6.311  0.0257 -1.6827 -0.8373
  124OSM   H12B13169   0.946   0.636   6.199 -0.8388 -0.2103  2.7031
  124OSM    C1113170   1.016   0.833   6.232 -0.1016  0.0212 -0.3298
  124OSM   H11A13171   0.945   0.837   6.317 -0.7097  0.2586 -0.8426
  124OSM   H11B13172   0.972   0.870   6.137  1.2122  0.7985 -0.6710
  124OSM      P13173   1.197   0.942   6.397  0.0815 -0.4158 -0.1069
  124OSM    O1313174   1.234   0.808   6.444 -0.4635  0.2112 -0.4394
  124OSM    O1413175   1.299   1.050   6.385  0.0013  0.4720  0.2251
  124OSM    O1113176   1.084   1.004   6.488  0.1417 -0.8466 -0.3346
  124OSM    O1213177   1.135   0.921   6.257 -0.2519  0.2434  0.0822
  124OSM    C1S13178   1.081   0.952   6.621 -0.0066 -0.2724  0.7753
  124OSM    H1S13179   1.184   0.948   6.662  0.0099  0.8264  0.8568
  124OSM    H1T13180   1.053   0.844   6.619 -0.1857 -0.2184 -0.4362
  124OSM     NF13181   1.000   0.966   6.839 -0.0606  0.1975  0.1183
  124OSM    HNF13182   0.924   0.908   6.866 -0.8304  1.7683  1.5162
  124OSM    C2S13183   0.996   1.033   6.715  0.3413 -0.1449 -0.4025
  124OSM    H2S13184   1.047   1.132   6.722 -1.5331  0.9226 -1.0902
  124OSM    C3S13185   0.849   1.054   6.669 -0.5432 -0.0417 -0.1186
  124OSM    H3S13186   0.792   0.960   6.686  0.2376 -0.5413 -0.2118
  124OSM     O313187   0.829   1.072   6.528 -0.8275 -0.6753 -0.3248
  124OSM    HO313188   0.916   1.076   6.488 -0.3588 -1.5754  0.5467
  124OSM    C4S13189   0.788   1.157   6.755  0.0440 -0.3785  0.0514
  124OSM    H4S13190   0.722   1.129   6.838 -1.2526 -0.3379 -0.9324
  124OSM    C5S13191   0.814   1.292   6.741 -0.5987  0.2387  0.2262
  124OSM    H5S13192   0.868   1.344   6.660  1.9448 -1.0841  0.9543
  124OSM    C6S13193   0.753   1.388   6.833  0.0141 -0.5935  0.2156
  124OSM    H6S13194   0.658   1.349   6.877  0.7391 -0.4517  2.0092
  124OSM    H6T13195   0.729   1.485   6.785  0.7271 -0.5826 -0.1291
  124OSM    C7S13196   0.838   1.405   6.969  0.1625 -0.5382  0.1407
  124OSM    H7S13197   0.782   1.487   7.019  1.8389 -0.6220  2.3104
  124OSM    H7T13198   0.938   1.447   6.945  0.4923 -0.7299  1.1269
  124OSM    C8S13199   0.836   1.290   7.068 -0.1306  0.2241  0.1295
  124OSM    H8S13200   0.894   1.205   7.027  0.5394  1.1078 -0.8148
  124OSM    H8T13201   0.731   1.253   7.072 -0.1575  0.4318  3.1017
  124OSM    C9S13202   0.878   1.343   7.204 -0.6919  0.2656 -0.0187
  124OSM    H9S13203   0.816   1.432   7.231  0.0864  0.9555 -0.4436
  124OSM    H9T13204   0.979   1.390   7.200  1.1978 -3.2831  1.5796
  124OSM   C10S13205   0.858   1.243   7.312 -0.1866  0.2238  0.3461
  124OSM   H10S13206   0.917   1.155   7.278  2.5096  2.2331 -0.5587
  124OSM   H10T13207   0.753   1.209   7.316  0.0031 -0.5736 -0.8159
  124OSM   C11S13208   0.907   1.294   7.442 -0.0822  0.1888 -0.0817
  124OSM   H11S13209   0.951   1.394   7.427  0.9593 -0.2629 -0.1342
  124OSM   H11T13210   0.990   1.227   7.475  0.0099 -0.5611 -1.7453
  124OSM   C12S13211   0.805   1.307   7.559 -0.4886  0.0541 -0.4792
  124OSM   H12S13212   0.723   1.231   7.561 -2.1153  1.7465 -0.7059
  124OSM   H12T13213   0.767   1.409   7.543 -0.3606 -0.2168 -2.7558
  124OSM   C13S13214   0.890   1.296   7.687 -0.1020 -0.3057 -0.2361
  124OSM   H13S13215   0.973   1.369   7.688  0.2221 -0.6523  1.2521
  124OSM   H13T13216   0.938   1.196   7.697  0.8707 -0.2499 -3.3016
  124OSM   C14S13217   0.816   1.322   7.823 -0.2019 -0.3006  0.5916
  124OSM   H14S13218   0.747   1.240   7.852  0.0344 -0.6806  0.0884
  124OSM   H14T13219   0.751   1.410   7.802  1.2807  0.0835 -3.3075
  124OSM   C15S13220   0.912   1.347   7.936 -0.5360 -0.2008  0.0906
  124OSM   H15S13221   0.967   1.442   7.922  4.3476 -2.6859  0.2250
  124OSM   H15T13222   1.002   1.282   7.941 -1.2112 -1.2747 -1.0266
  124OSM   C16S13223   0.827   1.338   8.067  0.4178  0.0034 -0.2411
  124OSM   H16S13224   0.824   1.233   8.102 -0.1685 -0.3237 -1.2391
  124OSM   H16T13225   0.721   1.361   8.042  0.6123 -0.0762 -1.1982
  124OSM   C17S13226   0.869   1.426   8.180  0.1830 -0.4592  0.0729
  124OSM   H17S13227   0.979   1.424   8.192 -0.0742 -1.8657  2.8680
  124OSM   H17T13228   0.823   1.395   8.277 -0.0414  1.3210  0.5583
  124OSM   C18S13229   0.833   1.576   8.167 -0.7838  0.7367  0.6384
  124OSM   H18S13230   0.727   1.604   8.182 -0.5552  0.6428  2.8180
  124OSM   H18T13231   0.878   1.607   8.070  1.8725 -0.7498  1.2834
  124OSM   H18U13232   0.884   1.628   8.252  0.8751 -0.7654  0.6285
  124OSM    C1F13233   1.101   0.962   6.927  0.1525  0.2164  0.4394
  124OSM     OF13234   1.215   0.995   6.890 -0.5647  0.1276 -0.1836
  124OSM    C2F13235   1.070   0.909   7.061 -0.3918 -0.2839 -0.2864
  124OSM    H2F13236   0.973   0.857   7.048 -1.4477  2.1943 -4.1265
  124OSM    H2G13237   1.036   0.990   7.129 -0.1188 -1.5185  1.3656
  124OSM    C3F13238   1.179   0.823   7.109  0.3031  0.4447 -0.5977
  124OSM    H3F13239   1.279   0.870   7.094  0.3745  0.7382  0.7292
  124OSM    H3G13240   1.192   0.723   7.063  0.9948  0.2037  0.1140
  124OSM    C4F13241   1.183   0.802   7.264 -0.4357  0.7904  0.0835
  124OSM    H4F13242   1.108   0.727   7.298 -0.4973  0.4038 -0.8982
  124OSM    H4G13243   1.172   0.902   7.313  0.9442  1.7577 -1.5165
  124OSM    C5F13244   1.316   0.744   7.326 -0.3775  0.4171  0.3041
  124OSM    H5F13245   1.404   0.808   7.303 -0.0382 -0.3191 -0.5181
  124OSM    H5G13246   1.327   0.643   7.280  0.5970 -0.0092  1.4420
  124OSM    C6F13247   1.311   0.725   7.477  1.3419  0.4170  0.4399
  124OSM    H6F13248   1.228   0.657   7.507  0.3160 -0.0431 -2.9903
  124OSM    H6G13249   1.292   0.827   7.517  1.4807  1.0299 -0.9772
  124OSM    C7F13250   1.441   0.663   7.530  0.0891 -0.0489 -0.6176
  124OSM    H7F13251   1.525   0.726   7.496 -0.1544  1.9423  2.1742
  124OSM    H7G13252   1.460   0.562   7.487 -0.6427 -0.1154 -0.8131
  124OSM    C8F13253   1.445   0.644   7.681  0.2247  0.6340 -0.0583
  124OSM    H8F13254   1.538   0.587   7.703  0.5489  1.9890  2.4997
  124OSM    H8G13255   1.368   0.572   7.714  2.4923 -2.9948 -1.9961
  124OSM    C9F13256   1.457   0.767   7.760 -0.7542 -0.6081 -0.0086
  124OSM    H9F13257   1.397   0.849   7.716  2.7205  1.5221 -1.2651
  124OSM   C10F13258   1.534   0.798   7.862 -0.4006 -0.2447 -0.1535
  124OSM   H10F13259   1.521   0.898   7.905  0.1114  0.2352 -1.0755
  124OSM   C11F13260   1.630   0.705   7.935 -0.2170  1.1047 -0.7800
  124OSM   H11F13261   1.730   0.738   7.898 -0.0010 -0.8475 -2.0811
  124OSM   H11G13262   1.622   0.597   7.913 -2.6592  0.8862  0.8183
  124OSM   C12F13263   1.626   0.725   8.093 -0.0925  0.3581  0.3618
  124OSM   H12F13264   1.527   0.692   8.131  0.7849 -1.2253  1.4169
  124OSM   H12G13265   1.641   0.831   8.123  1.1263 -0.4644  2.9872
  124OSM   C13F13266   1.734   0.635   8.168  0.3550 -0.0704  0.2395
  124OSM   H13F13267   1.832   0.675   8.136  0.8235 -1.9144 -0.7662
  124OSM   H13G13268   1.712   0.529   8.145  0.5736 -0.0173 -0.2238
  124OSM   C14F13269   1.731   0.656   8.321 -0.8234  0.7384 -0.3087
  124OSM   H14F13270   1.646   0.601   8.367  2.5346 -2.1903  3.0864
  124OSM   H14G13271   1.728   0.765   8.343  1.5494  0.7665  0.1430
  124OSM   C15F13272   1.858   0.595   8.389  0.1446 -0.3264 -0.4639
  124OSM   H15F13273   1.942   0.653   8.346 -1.9221  1.4747 -2.3426
  124OSM   H15G13274   1.860   0.486   8.367  0.2982 -0.6456  1.0430
  124OSM   C16F13275   1.862   0.611   8.542 -0.1616 -0.8427 -0.2712
  124OSM   H16F13276   1.945   0.553   8.587 -0.7837 -1.8866 -0.4344
  124OSM   H16G13277   1.770   0.559   8.575  0.0402 -0.9767  0.0855
  124OSM   C17F13278   1.858   0.759   8.592 -0.4073  0.0010 -0.1664
  124OSM   H17F13279   1.766   0.803   8.547 -1.1219 -2.0158 -0.7798
  124OSM   H17G13280   1.942   0.817   8.546 -0.3700  0.9576  1.0707
  124OSM   C18F13281   1.858   0.768   8.747 -0.2754 -0.1975 -0.0126
  124OSM   H18F13282   1.938   0.699   8.783  0.4770  1.1843  1.0888
  124OSM   H18G13283   1.763   0.730   8.791 -0.3857 -1.6219 -1.3912
  124OSM   H18H13284   1.886   0.869   8.784  0.2166 -0.2070 -0.3516
  125OSM      N13285   0.522   2.157   6.309 -0.6259 -0.2487 -0.2486
  125OSM    C1513286   0.556   2.265   6.209 -0.3804  0.1006  0.1438
  125OSM   H15A13287   0.467   2.316   6.174 -0.8939  0.0433  1.3373
  125OSM   H15B13288   0.595   2.231   6.114 -3.4040  0.1631 -1.2480
  125OSM   H15C13289   0.622   2.335   6.257 -2.2800  2.2532 -0.1694
  125OSM    C1413290   0.406   2.079   6.281  0.1490  0.4266 -0.0322
  125OSM   H14A13291   0.311   2.129   6.294 -0.0633  0.0232 -0.0177
  125OSM   H14B13292   0.402   1.991   6.343  1.8024  0.3719  0.0440
  125OSM   H14C13293   0.402   2.029   6.185  0.3785 -1.7111  1.0152
  125OSM    C1313294   0.640   2.062   6.335 -0.2616  0.0705  0.3555
  125OSM   H13A13295   0.608   1.998   6.415 -3.4497 -1.2263 -1.7590
  125OSM   H13B13296   0.735   2.109   6.355  1.3132 -2.2562 -1.2698
  125OSM   H13C13297   0.666   2.003   6.249 -2.6099  0.9348 -1.0378
  125OSM    C1213298   0.502   2.224   6.451 -0.2374  0.0120  0.1435
  125OSM   H12A13299   0.452   2.158   6.520 -1.8352  2.4419  1.4547
  125OSM   H12B13300   0.418   2.286   6.425 -0.0866 -0.3476 -1.3504
  125OSM    C1113301   0.616   2.297   6.518  0.1440  0.0170 -0.3689
  125OSM   H11A13302   0.689   2.214   6.530  0.4392  0.1990 -0.8559
  125OSM   H11B13303   0.564   2.324   6.612  0.5226  0.4048 -0.2659
  125OSM      P13304   0.629   2.555   6.459  0.5602 -0.1347 -0.3560
  125OSM    O1313305   0.737   2.627   6.388  0.3667  0.6536  0.3891
  125OSM    O1413306   0.484   2.581   6.416 -0.0122  0.3604  0.3582
  125OSM    O1113307   0.631   2.559   6.620  0.0477 -0.4331 -0.4578
  125OSM    O1213308   0.666   2.402   6.439  0.8099 -0.9622 -0.7843
  125OSM    C1S13309   0.597   2.688   6.678  0.2250  0.4299  0.5049
  125OSM    H1S13310   0.502   2.732   6.641 -0.2771  0.2353  1.5261
  125OSM    H1T13311   0.682   2.758   6.659  1.3624 -0.3116  2.5706
  125OSM     NF13312   0.509   2.781   6.896  0.1991 -0.4618 -0.1324
  125OSM    HNF13313   0.541   2.848   6.962 -1.8494  0.1255  0.3482
  125OSM    C2S13314   0.591   2.684   6.830  0.3619 -0.2279  0.0540
  125OSM    H2S13315   0.544   2.585   6.849 -2.6147  0.9135 -0.7795
  125OSM    C3S13316   0.737   2.673   6.890 -0.3025  0.2222  0.0525
  125OSM    H3S13317   0.793   2.769   6.880 -0.9230  0.4275 -1.8639
  125OSM     O313318   0.819   2.578   6.826 -0.3261  0.7226  0.3277
  125OSM    HO313319   0.764   2.544   6.756  2.0313 -0.2333 -1.1981
  125OSM    C4S13320   0.743   2.638   7.039 -0.0091  0.1944  0.3519
  125OSM    H4S13321   0.698   2.540   7.059 -0.2464  0.0964 -0.6080
  125OSM    C5S13322   0.788   2.704   7.143 -0.7333 -0.3918 -0.3258
  125OSM    H5S13323   0.835   2.802   7.130 -2.0327  0.2919 -0.0678
  125OSM    C6S13324   0.789   2.651   7.286  0.1761  0.2132 -0.3542
  125OSM    H6S13325   0.884   2.684   7.334  1.1402  0.4283 -2.2748
  125OSM    H6T13326   0.780   2.542   7.302  0.8199 -0.1787 -2.2946
  125OSM    C7S13327   0.662   2.719   7.355  0.0482 -0.7300  0.3206
  125OSM    H7S13328   0.569   2.674   7.313 -0.6964 -1.5311  2.6371
  125OSM    H7T13329   0.655   2.828   7.340  3.8525 -0.3779  0.2204
  125OSM    C8S13330   0.663   2.685   7.507  0.7431 -0.2949  0.5275
  125OSM    H8S13331   0.647   2.579   7.538 -0.2844 -0.0591  0.8254
  125OSM    H8T13332   0.575   2.741   7.544 -0.4009 -0.8115 -1.2898
  125OSM    C9S13333   0.791   2.735   7.573  0.0356 -0.4191 -0.1677
  125OSM    H9S13334   0.819   2.827   7.518  1.9644 -1.5624 -1.1890
  125OSM    H9T13335   0.874   2.664   7.554  0.2997 -0.4388  0.9532
  125OSM   C10S13336   0.771   2.760   7.722 -0.0001 -0.1582  0.7969
  125OSM   H10S13337   0.721   2.667   7.757 -1.0967  0.2627  0.4158
  125OSM   H10T13338   0.693   2.839   7.728  3.1243  3.2924 -0.2450
  125OSM   C11S13339   0.889   2.808   7.808 -0.1574 -0.8761  0.7756
  125OSM   H11S13340   0.933   2.905   7.775 -0.1386 -0.9369  0.6223
  125OSM   H11T13341   0.959   2.723   7.792 -1.5842 -2.0571  0.5487
  125OSM   C12S13342   0.843   2.828   7.954  0.4494 -0.2614 -0.1021
  125OSM   H12S13343   0.789   2.738   7.990  1.0211 -0.9793 -0.9797
  125OSM   H12T13344   0.776   2.915   7.966  0.3049 -0.4783  0.7293
  125OSM   C13S13345   0.962   2.861   8.049 -0.3365 -1.1040  0.0622
  125OSM   H13S13346   1.025   2.943   8.009 -2.2859  2.5721  3.7088
  125OSM   H13T13347   1.023   2.769   8.047  3.2570  0.9993  2.3500
  125OSM   C14S13348   0.906   2.905   8.183  0.1528 -0.0709 -1.0707
  125OSM   H14S13349   0.828   2.832   8.216  0.2229  0.6341  0.7676
  125OSM   H14T13350   0.862   3.006   8.173  1.7245  0.8622  0.7821
  125OSM   C15S13351   1.021   2.911   8.284 -0.6667  0.7457  0.1966
  125OSM   H15S13352   1.094   2.976   8.232 -0.2372 -1.8611 -2.7740
  125OSM   H15T13353   1.060   2.808   8.300 -1.8505  0.4461  1.3684
  125OSM   C16S13354   0.979   2.947   8.427  0.0900 -0.1973 -0.3448
  125OSM   H16S13355   0.910   2.867   8.463 -0.6459  0.1880 -0.8837
  125OSM   H16T13356   0.916   3.039   8.426  1.9013  1.0787 -1.0106
  125OSM   C17S13357   1.099   2.969   8.525 -0.0507  0.3955 -0.3119
  125OSM   H17S13358   1.053   3.021   8.612 -0.4458 -1.1193  0.4286
  125OSM   H17T13359   1.175   3.041   8.488  0.1663  0.5314  0.3893
  125OSM   C18S13360   1.166   2.838   8.567 -0.4839 -0.0223  0.3486
  125OSM   H18S13361   1.236   2.810   8.485  0.7177  1.6250  0.7630
  125OSM   H18T13362   1.089   2.764   8.598 -1.0774  0.4747  0.0628
  125OSM   H18U13363   1.228   2.869   8.654 -1.7091 -0.9982  1.6181
  125OSM    C1F13364   0.381   2.775   6.868  0.2209  0.2171  0.0678
  125OSM     OF13365   0.326   2.672   6.821 -0.4555 -0.5445 -0.1936
  125OSM    C2F13366   0.296   2.897   6.903 -0.5577  0.3065  0.1869
  125OSM    H2F13367   0.269   2.950   6.809  2.1177 -0.5784 -1.1960
  125OSM    H2G13368   0.366   2.961   6.960  0.3750 -0.1763 -0.3948
  125OSM    C3F13369   0.164   2.853   6.982 -0.7233 -0.2596  0.7894
  125OSM    H3F13370   0.108   2.770   6.934 -1.5641  0.5857  0.2770
  125OSM    H3G13371   0.092   2.935   7.003 -1.6596 -0.1979 -2.2208
  125OSM    C4F13372   0.194   2.796   7.122  0.4051 -0.6202  0.0168
  125OSM    H4F13373   0.285   2.733   7.125  1.4900  0.8539  3.5742
  125OSM    H4G13374   0.106   2.740   7.160 -0.3049  1.3562  1.4035
  125OSM    C5F13375   0.212   2.911   7.224  0.3284  0.3758  0.7324
  125OSM    H5F13376   0.126   2.981   7.227 -0.7594 -0.7684 -1.6957
  125OSM    H5G13377   0.302   2.971   7.199  0.2060  0.4024  0.3615
  125OSM    C6F13378   0.221   2.858   7.369  0.4325 -0.3649  0.7262
  125OSM    H6F13379   0.300   2.781   7.378  1.7641  0.9751  0.7921
  125OSM    H6G13380   0.138   2.787   7.389 -0.2529  0.0780 -0.4360
  125OSM    C7F13381   0.236   2.953   7.482 -0.4205  0.0457  0.0362
  125OSM    H7F13382   0.163   3.037   7.474 -2.0315 -1.4356 -1.7505
  125OSM    H7G13383   0.339   2.995   7.484  1.0561 -3.2938 -0.3429
  125OSM    C8F13384   0.223   2.877   7.612 -0.0370 -0.2718  0.1056
  125OSM    H8F13385   0.288   2.789   7.630  1.0692  0.4599 -0.2652
  125OSM    H8G13386   0.118   2.844   7.593  0.3943 -0.1184 -3.1479
  125OSM    C9F13387   0.220   2.971   7.724  0.1353  0.1058 -0.4632
  125OSM    H9F13388   0.182   3.072   7.705 -0.4279 -0.4899 -2.7186
  125OSM   C10F13389   0.283   2.949   7.845 -0.1565  1.1382 -0.3015
  125OSM   H10F13390   0.287   3.025   7.924 -1.9385  0.9763 -0.0199
  125OSM   C11F13391   0.355   2.817   7.881  0.5793  0.4368  0.7792
  125OSM   H11F13392   0.419   2.791   7.794  0.7708 -0.0284  1.0574
  125OSM   H11G13393   0.275   2.745   7.905  0.3199  0.9064  1.3529
  125OSM   C12F13394   0.448   2.817   8.015  0.2973 -0.5095  0.9177
  125OSM   H12F13395   0.392   2.845   8.107  0.6096  1.9990  0.4147
  125OSM   H12G13396   0.536   2.882   7.995  0.5866 -1.4955 -1.3522
  125OSM   C13F13397   0.488   2.676   8.041 -0.3750  0.0560  0.3956
  125OSM   H13F13398   0.537   2.631   7.952 -2.0984  0.9923 -1.1055
  125OSM   H13G13399   0.394   2.616   8.052 -1.1556  1.3121  0.7416
  125OSM   C14F13400   0.567   2.644   8.170  0.6118 -0.5730  0.3900
  125OSM   H14F13401   0.669   2.687   8.160  0.7373 -1.1618 -1.0987
  125OSM   H14G13402   0.589   2.535   8.169  0.5613 -0.6057  1.5212
  125OSM   C15F13403   0.500   2.699   8.297 -0.1950  0.1704 -0.7938
  125OSM   H15F13404   0.393   2.668   8.296 -0.6594  1.7018 -1.0501
  125OSM   H15G13405   0.502   2.810   8.302 -0.8061  0.1340  0.7806
  125OSM   C16F13406   0.589   2.662   8.418  0.1734 -0.2214 -0.0184
  125OSM   H16F13407   0.689   2.703   8.393 -0.5987  1.1613 -0.9325
  125OSM   H16G13408   0.603   2.553   8.434 -2.6100 -0.3043  2.8008
  125OSM   C17F13409   0.553   2.731   8.550 -0.0272 -0.0854 -0.8561
  125OSM   H17F13410   0.462   2.697   8.603  0.0768 -1.3027 -1.4321
  125OSM   H17G13411   0.528   2.837   8.525  0.9540  0.3242 -0.1614
  125OSM   C18F13412   0.662   2.750   8.658 -0.6889  0.3703  0.1728
  125OSM   H18F13413   0.618   2.768   8.758  1.2256  1.7760  0.8110
  125OSM   H18G13414   0.740   2.819   8.621 -0.2948  0.4780  1.1654
  125OSM   H18H13415   0.717   2.653   8.661 -2.4437 -0.6798  0.3230
  126OSM      N13416   4.429   0.893   6.791  0.1811 -0.3364  0.6889
  126OSM    C1513417   4.506   0.940   6.666  0.1140 -0.2978  0.2386
  126OSM   H15A13418   4.595   0.988   6.706  0.1107 -1.0728  1.2024
  126OSM   H15B13419   4.446   1.011   6.610 -0.8090  0.8964  2.5807
  126OSM   H15C13420   4.544   0.857   6.609  0.5111 -1.2885  1.8906
  126OSM    C1413421   4.392   1.013   6.868  0.0060 -0.0248  0.7267
  126OSM   H14A13422   4.478   1.079   6.873  1.9141 -1.9876 -2.4908
  126OSM   H14B13423   4.354   0.988   6.966  0.7614  0.6590  1.2087
  126OSM   H14C13424   4.321   1.071   6.813  0.1439 -0.9384 -0.4571
  126OSM    C1313425   4.303   0.819   6.750 -0.4994 -0.9870  0.1262
  126OSM   H13A13426   4.331   0.727   6.700 -1.5239 -1.7308  0.8765
  126OSM   H13B13427   4.242   0.875   6.681  1.8928  0.0467 -1.2762
  126OSM   H13C13428   4.241   0.802   6.837 -0.2119  1.2265  0.8079
  126OSM    C1213429   4.526   0.815   6.872 -0.3301  0.4917 -0.7277
  126OSM   H12A13430   4.544   0.721   6.823  0.3662  0.6389 -0.7736
  126OSM   H12B13431   4.470   0.794   6.962  1.0864 -1.6857 -0.2749
  126OSM    C1113432   4.667   0.876   6.909  0.3584  1.0750 -0.0903
  126OSM   H11A13433   4.697   0.812   6.994  0.0101  2.9406  1.5201
  126OSM   H11B13434   4.654   0.978   6.951  0.1112  0.9982  0.0231
  126OSM      P13435   4.806   0.732   6.737  0.1456  0.2369  0.1979
  126OSM    O1313436   4.698   0.630   6.730  0.4030  0.0392 -0.3317
  126OSM    O1413437   4.890   0.757   6.619 -0.5264 -0.5168  0.6589
  126OSM    O1113438   4.906   0.683   6.849 -0.3333 -0.4692 -0.8624
  126OSM    O1213439   4.762   0.872   6.805 -0.8107  0.3220 -0.2771
  126OSM    C1S13440   5.031   0.734   6.885 -0.0521  0.5383  0.3910
  126OSM    H1S13441   5.061   0.812   6.812  2.3652  0.8181  1.5885
  126OSM    H1T13442   5.110   0.657   6.901  1.3343  2.3683  3.0279
  126OSM     NF13443   5.139   0.874   7.066  0.0355 -0.4929  0.6597
  126OSM    HNF13444   5.197   0.838   7.139  2.1885 -0.0518 -0.7145
  126OSM    C2S13445   5.017   0.800   7.028 -0.2329  0.0165  0.0162
  126OSM    H2S13446   4.930   0.869   7.021 -2.0719 -2.0815  1.0343
  126OSM    C3S13447   4.971   0.688   7.136  0.3999 -0.6614 -0.5041
  126OSM    H3S13448   5.057   0.618   7.137  0.9029 -0.0993 -1.6629
  126OSM     O313449   4.847   0.626   7.109  0.2127 -0.0433  0.2161
  126OSM    HO313450   4.841   0.647   7.015  2.9791 -0.9233 -0.2432
  126OSM    C4S13451   4.953   0.747   7.271 -0.2692  0.2326 -0.2207
  126OSM    H4S13452   5.034   0.718   7.340 -0.0870 -0.1701 -0.5953
  126OSM    C5S13453   4.859   0.833   7.314 -1.3117 -0.2566 -0.4840
  126OSM    H5S13454   4.779   0.865   7.246 -1.2006 -0.7741 -0.8655
  126OSM    C6S13455   4.862   0.893   7.459  0.0963  0.4431  0.0709
  126OSM    H6S13456   4.944   0.968   7.464 -1.1382  2.0923 -2.4757
  126OSM    H6T13457   4.876   0.811   7.532 -1.1532 -0.7422 -0.9700
  126OSM    C7S13458   4.734   0.971   7.502 -0.5307  0.4134 -0.5064
  126OSM    H7S13459   4.644   0.910   7.478 -1.1220  0.0449  2.3053
  126OSM    H7T13460   4.735   1.071   7.453  0.1139  0.3112 -0.7109
  126OSM    C8S13461   4.737   0.996   7.655  0.1367  0.3441 -0.5632
  126OSM    H8S13462   4.790   0.914   7.709 -0.3167  1.2800  1.3917
  126OSM    H8T13463   4.631   1.000   7.688  0.1264  1.9113 -0.7287
  126OSM    C9S13464   4.827   1.118   7.695  0.6727  0.2793 -0.5639
  126OSM    H9S13465   4.838   1.189   7.610  0.0920 -0.8674 -1.6279
  126OSM    H9T13466   4.933   1.087   7.702  1.5955  2.0991 -3.8576
  126OSM   C10S13467   4.765   1.195   7.815 -0.0146  0.0087 -0.1005
  126OSM   H10S13468   4.657   1.193   7.791 -0.7034  1.7554  2.5335
  126OSM   H10T13469   4.778   1.305   7.821 -2.0937  0.4108 -1.7406
  126OSM   C11S13470   4.794   1.145   7.953  0.3092  1.0652 -0.0951
  126OSM   H11S13471   4.903   1.162   7.964  0.4774 -0.6114  1.3399
  126OSM   H11T13472   4.756   1.040   7.950  0.0927  1.1384  0.1073
  126OSM   C12S13473   4.721   1.231   8.053 -0.7891 -0.8921 -0.5898
  126OSM   H12S13474   4.716   1.334   8.011  2.8900 -0.7192 -0.9536
  126OSM   H12T13475   4.781   1.236   8.146 -1.5870  2.0128 -0.1641
  126OSM   C13S13476   4.574   1.186   8.073  0.0106  0.3285 -0.5102
  126OSM   H13S13477   4.576   1.087   8.124 -0.8482  0.9102  0.7023
  126OSM   H13T13478   4.522   1.162   7.978 -0.4828  0.1352 -0.1985
  126OSM   C14S13479   4.489   1.281   8.155  0.0043  0.0399 -0.3676
  126OSM   H14S13480   4.390   1.233   8.172  0.8336 -0.4880  4.0507
  126OSM   H14T13481   4.474   1.374   8.095 -1.3969  0.3907  0.4715
  126OSM   C15S13482   4.541   1.298   8.297 -0.3326 -0.3242  0.5877
  126OSM   H15S13483   4.651   1.308   8.286 -0.0519 -3.1429  0.0565
  126OSM   H15T13484   4.527   1.202   8.352  1.0148 -0.0957  1.3653
  126OSM   C16S13485   4.474   1.421   8.365  0.0935 -0.0802  0.3327
  126OSM   H16S13486   4.381   1.374   8.404  1.1901 -1.0406  1.8908
  126OSM   H16T13487   4.460   1.500   8.288 -1.3097 -2.5070 -2.1093
  126OSM   C17S13488   4.546   1.486   8.484  0.0587 -0.1265  0.1788
  126OSM   H17S13489   4.632   1.543   8.443 -0.9002  1.1298 -0.1594
  126OSM   H17T13490   4.583   1.397   8.539 -0.5597 -0.6583 -0.2404
  126OSM   C18S13491   4.475   1.576   8.577  0.5430  0.3399 -0.7719
  126OSM   H18S13492   4.442   1.664   8.517  1.8561  2.1554  1.0205
  126OSM   H18T13493   4.538   1.610   8.662  0.5611  0.2254 -0.7403
  126OSM   H18U13494   4.381   1.534   8.618 -0.2861  1.6088 -1.2896
  126OSM    C1F13495   5.186   0.978   6.989 -0.2946 -0.1472 -0.0617
  126OSM     OF13496   5.123   1.033   6.898 -0.1136 -0.7037 -0.8857
  126OSM    C2F13497   5.318   1.022   7.032  0.3212 -0.4491  0.9224
  126OSM    H2F13498   5.391   0.941   7.010 -1.5437 -1.3807 -2.5931
  126OSM    H2G13499   5.313   1.020   7.143  2.4823 -4.1067  1.1046
  126OSM    C3F13500   5.360   1.149   6.965  0.0793 -0.2129  0.2551
  126OSM    H3F13501   5.305   1.230   7.017  1.2498 -0.1948  1.5323
  126OSM    H3G13502   5.333   1.141   6.857  0.3902  0.4472  0.1190
  126OSM    C4F13503   5.507   1.188   6.986 -0.2285 -0.3194  0.4013
  126OSM    H4F13504   5.551   1.239   6.899  0.5356  1.4613  1.7841
  126OSM    H4G13505   5.568   1.095   6.985 -0.2680 -0.3437 -1.2061
  126OSM    C5F13506   5.529   1.270   7.110  0.6650  0.6050 -0.6654
  126OSM    H5F13507   5.485   1.225   7.201  0.6321  0.1479 -0.9032
  126OSM    H5G13508   5.475   1.366   7.094 -0.6977 -0.3284 -1.9672
  126OSM    C6F13509   5.674   1.299   7.147 -0.5638 -0.5361  0.0380
  126OSM    H6F13510   5.718   1.223   7.216 -0.0703  0.3056  0.6601
  126OSM    H6G13511   5.665   1.392   7.207 -0.7232 -0.0268 -0.7585
  126OSM    C7F13512   5.774   1.331   7.027 -0.0337 -0.0775 -0.3464
  126OSM    H7F13513   5.730   1.403   6.955  2.2625  1.2617 -0.4943
  126OSM    H7G13514   5.779   1.234   6.973  1.4259 -0.4807  0.4664
  126OSM    C8F13515   5.912   1.378   7.059  0.5910 -0.0210 -0.8287
  126OSM    H8F13516   5.972   1.368   6.967  1.0853 -0.7274 -0.4373
  126OSM    H8G13517   5.960   1.305   7.127  4.0926  0.1126 -2.9693
  126OSM    C9F13518   5.921   1.520   7.104  0.6876  0.0550  0.7538
  126OSM    H9F13519   5.883   1.594   7.032  0.5334 -0.6363  0.1106
  126OSM   C10F13520   5.959   1.569   7.227 -1.1174  0.0485 -0.2502
  126OSM   H10F13521   5.971   1.677   7.244 -0.3486 -0.0894  0.1626
  126OSM   C11F13522   6.003   1.490   7.344 -0.0957  0.0835  0.4333
  126OSM   H11F13523   6.057   1.554   7.417 -0.2724  1.1927 -0.3687
  126OSM   H11G13524   6.065   1.403   7.316  1.0771  0.7061  1.0284
  126OSM   C12F13525   5.890   1.424   7.418 -0.0447 -0.2416  0.3765
  126OSM   H12F13526   5.851   1.357   7.338 -1.5239  1.5835 -0.5191
  126OSM   H12G13527   5.814   1.504   7.432  0.8895  1.4270 -2.9184
  126OSM   C13F13528   5.931   1.336   7.536 -0.4075  0.1051  0.3672
  126OSM   H13F13529   5.989   1.249   7.499  1.7615  1.2143  0.9876
  126OSM   H13G13530   5.836   1.292   7.574 -0.9587  0.2955 -0.7578
  126OSM   C14F13531   6.009   1.414   7.640 -0.5712 -0.4871 -0.0521
  126OSM   H14F13532   5.952   1.500   7.681 -1.1500 -0.3068 -1.1925
  126OSM   H14G13533   6.103   1.456   7.600  0.2927 -0.2448  2.0693
  126OSM   C15F13534   6.044   1.329   7.769 -0.4813 -0.2373  0.7051
  126OSM   H15F13535   6.121   1.252   7.749 -2.5000 -2.9814  2.7071
  126OSM   H15G13536   5.961   1.266   7.807 -0.1204 -1.8366 -0.9799
  126OSM   C16F13537   6.099   1.408   7.884  0.3869  0.0516 -0.5444
  126OSM   H16F13538   6.026   1.471   7.940  1.8657  0.9992  0.3839
  126OSM   H16G13539   6.175   1.479   7.846 -0.6424  1.4117 -0.1352
  126OSM   C17F13540   6.180   1.324   7.986  1.3609 -0.1465  0.3130
  126OSM   H17F13541   6.246   1.260   7.923 -0.0976  0.4348 -1.9239
  126OSM   H17G13542   6.105   1.257   8.031  1.2843  0.0525  0.4822
  126OSM   C18F13543   6.262   1.405   8.080  0.3736 -0.3014 -0.3530
  126OSM   H18F13544   6.322   1.476   8.019  2.2019 -1.3616  0.1309
  126OSM   H18G13545   6.345   1.343   8.121  2.2748  1.5100 -1.2480
  126OSM   H18H13546   6.207   1.447   8.166  1.2539  0.7326 -0.2663
  127OSM      N13547   4.930   0.431   6.075 -0.9455  0.1246 -0.4590
  127OSM    C1513548   4.958   0.309   5.993  0.0741 -0.0155  0.5587
  127OSM   H15A13549   4.860   0.279   5.958 -1.0067  2.2973  1.4226
  127OSM   H15B13550   5.005   0.236   6.057  0.5310 -0.9920 -0.8315
  127OSM   H15C13551   5.013   0.334   5.903 -0.2305 -2.1321 -0.2811
  127OSM    C1413552   5.059   0.507   6.094  0.0183 -0.1862 -0.3421
  127OSM   H14A13553   5.143   0.442   6.115 -1.2464 -1.0449  2.4352
  127OSM   H14B13554   5.051   0.590   6.162 -1.2581 -0.7726  0.2409
  127OSM   H14C13555   5.093   0.553   6.002 -0.9252 -1.6131 -1.4495
  127OSM    C1313556   4.843   0.524   5.999  0.5970 -0.0444 -0.1160
  127OSM   H13A13557   4.746   0.484   5.975  0.9572 -1.3685  0.5584
  127OSM   H13B13558   4.893   0.543   5.905 -0.5100  0.8161 -0.5610
  127OSM   H13C13559   4.828   0.620   6.047 -0.4243 -1.0852  1.7583
  127OSM    C1213560   4.867   0.389   6.205  0.0680 -0.7981 -0.5411
  127OSM   H12A13561   4.865   0.477   6.268 -0.0127 -0.6226 -0.7894
  127OSM   H12B13562   4.936   0.322   6.255 -0.4496 -0.9838 -0.0642
  127OSM    C1113563   4.726   0.324   6.200  0.3207 -0.1085  0.0637
  127OSM   H11A13564   4.731   0.231   6.139  0.4790 -0.2228  0.2498
  127OSM   H11B13565   4.650   0.384   6.145  1.6658  1.3654 -0.2632
  127OSM      P13566   4.721   0.159   6.409  0.1072  0.0353  0.2703
  127OSM    O1313567   4.588   0.105   6.452  0.2012 -0.0929  0.8962
  127OSM    O1413568   4.804   0.079   6.316  0.3601  0.0536 -0.0786
  127OSM    O1113569   4.809   0.202   6.531  0.5792  0.7147  0.6696
  127OSM    O1213570   4.693   0.299   6.338 -0.8451 -0.4523  0.3907
  127OSM    C1S13571   4.765   0.304   6.621 -0.2020  0.1907  0.2664
  127OSM    H1S13572   4.660   0.289   6.651  0.1183 -0.7355  0.9689
  127OSM    H1T13573   4.789   0.404   6.577  2.7868  0.2040  1.6805
  127OSM     NF13574   4.778   0.361   6.872  0.0056 -0.1365 -0.5885
  127OSM    HNF13575   4.809   0.455   6.884  0.3765 -0.1636 -1.2515
  127OSM    C2S13576   4.840   0.284   6.763  0.2031  0.0904 -0.3506
  127OSM    H2S13577   4.843   0.176   6.790 -0.7254  0.0816 -0.2436
  127OSM    C3S13578   4.992   0.320   6.739  0.6571 -0.6485  0.3151
  127OSM    H3S13579   4.997   0.429   6.718  1.2393 -0.6509  0.4262
  127OSM     O313580   5.046   0.257   6.627  0.1511 -0.2473  0.6451
  127OSM    HO313581   4.968   0.226   6.581 -0.0347  0.9341  0.1114
  127OSM    C4S13582   5.070   0.311   6.869  0.0621 -0.3192 -0.7656
  127OSM    H4S13583   5.055   0.401   6.932 -0.5497  0.1867 -1.6164
  127OSM    C5S13584   5.152   0.219   6.919 -0.4245  0.9452  0.0941
  127OSM    H5S13585   5.180   0.130   6.860 -3.5515 -0.6210  0.7695
  127OSM    C6S13586   5.220   0.216   7.057 -0.0791 -0.3685 -0.3828
  127OSM    H6S13587   5.194   0.114   7.093 -0.9029  0.3836  1.2988
  127OSM    H6T13588   5.173   0.295   7.120  0.0264  0.7291 -1.6448
  127OSM    C7S13589   5.371   0.228   7.063  0.1143 -0.7772 -0.3059
  127OSM    H7S13590   5.399   0.326   7.019  3.7406 -2.0060 -1.1125
  127OSM    H7T13591   5.432   0.155   7.004  3.1202  1.1016  0.2554
  127OSM    C8S13592   5.424   0.223   7.213 -0.4714 -0.4125  0.0518
  127OSM    H8S13593   5.381   0.134   7.263  1.5988 -1.7906 -0.5284
  127OSM    H8T13594   5.401   0.320   7.263  0.7925 -0.8589  1.5759
  127OSM    C9S13595   5.576   0.205   7.228  0.4012 -0.1542  0.1732
  127OSM    H9S13596   5.620   0.293   7.175 -2.6018  1.3940  0.0343
  127OSM    H9T13597   5.610   0.112   7.179 -0.2097 -1.0623  1.4427
  127OSM   C10S13598   5.610   0.209   7.374 -1.0450 -0.5866 -0.8795
  127OSM   H10S13599   5.714   0.174   7.395 -0.5854  2.1691  2.3170
  127OSM   H10T13600   5.554   0.135   7.434 -1.6151  0.5570  0.0435
  127OSM   C11S13601   5.604   0.339   7.453 -0.3748  0.1146  0.2705
  127OSM   H11S13602   5.495   0.359   7.460 -0.8434 -1.5136 -1.3857
  127OSM   H11T13603   5.663   0.420   7.403  2.3116 -2.1372 -0.5111
  127OSM   C12S13604   5.658   0.330   7.598  0.0634  0.0201 -0.6744
  127OSM   H12S13605   5.769   0.340   7.596  0.1476 -0.5419  0.4467
  127OSM   H12T13606   5.645   0.225   7.634 -0.7192  0.5391  0.6323
  127OSM   C13S13607   5.604   0.418   7.707  0.8797 -1.1372  0.5173
  127OSM   H13S13608   5.628   0.368   7.803  1.9444 -2.8739 -0.6025
  127OSM   H13T13609   5.495   0.438   7.712  1.1884  0.4417  2.3896
  127OSM   C14S13610   5.655   0.564   7.710 -0.6176  0.2822  0.0945
  127OSM   H14S13611   5.593   0.617   7.635 -2.1893 -0.2916  0.9233
  127OSM   H14T13612   5.760   0.566   7.677 -1.3055  1.8247 -2.1813
  127OSM   C15S13613   5.656   0.621   7.848  0.1244 -0.4173  0.4967
  127OSM   H15S13614   5.698   0.723   7.840 -0.9827  0.1015  1.0870
  127OSM   H15T13615   5.718   0.563   7.920 -0.8369 -1.0851  0.8151
  127OSM   C16S13616   5.509   0.637   7.903 -0.3959 -0.3121 -0.0905
  127OSM   H16S13617   5.469   0.534   7.915  0.2697 -0.7735 -1.6808
  127OSM   H16T13618   5.460   0.685   7.816 -1.5127 -0.5291  0.4046
  127OSM   C17S13619   5.502   0.738   8.022 -0.8633 -0.0762  0.6173
  127OSM   H17S13620   5.398   0.776   8.030 -0.6506  0.1148  3.7753
  127OSM   H17T13621   5.583   0.813   8.008  0.6145 -0.9837  3.4034
  127OSM   C18S13622   5.518   0.651   8.145  0.7589 -0.1449  0.1901
  127OSM   H18S13623   5.589   0.569   8.120  1.5742  1.0682 -1.6859
  127OSM   H18T13624   5.423   0.596   8.157  1.9630 -3.4520 -3.3400
  127OSM   H18U13625   5.562   0.709   8.229  1.8096  0.7970 -0.9605
  127OSM    C1F13626   4.654   0.333   6.911 -0.3212  0.2059 -0.0122
  127OSM     OF13627   4.606   0.225   6.886  0.2447 -0.1309  0.2907
  127OSM    C2F13628   4.569   0.438   6.973 -0.1948  0.3467 -0.4037
  127OSM    H2F13629   4.510   0.482   6.890  0.2064 -1.1780 -1.5221
  127OSM    H2G13630   4.627   0.522   7.016  0.1330  0.4461 -1.0298
  127OSM    C3F13631   4.465   0.377   7.073 -0.3253  0.2873  0.9869
  127OSM    H3F13632   4.407   0.295   7.027 -0.3131  1.2386 -0.8306
  127OSM    H3G13633   4.386   0.452   7.093 -0.6420  0.6444 -1.3699
  127OSM    C4F13634   4.531   0.319   7.200  0.1917  0.4048  0.4068
  127OSM    H4F13635   4.587   0.405   7.243 -0.6362  1.3120 -0.2929
  127OSM    H4G13636   4.605   0.242   7.169 -0.9724 -0.4008 -0.4475
  127OSM    C5F13637   4.423   0.274   7.297  0.4849  0.3697 -0.2274
  127OSM    H5F13638   4.377   0.178   7.268 -2.1507  0.8906  1.8519
  127OSM    H5G13639   4.338   0.345   7.293  0.7346  0.6745 -0.1686
  127OSM    C6F13640   4.474   0.260   7.439  0.3125 -0.3634  0.6777
  127OSM    H6F13641   4.483   0.364   7.478 -0.5600  1.3695 -3.2642
  127OSM    H6G13642   4.578   0.220   7.445  0.1868 -0.9732 -0.8038
  127OSM    C7F13643   4.382   0.170   7.522  0.2642  0.0508  0.0420
  127OSM    H7F13644   4.394   0.071   7.474  3.3814  0.8179 -0.9541
  127OSM    H7G13645   4.274   0.198   7.522 -0.3768 -2.0280 -2.1504
  127OSM    C8F13646   4.422   0.159   7.677  0.1130  0.2176  0.4299
  127OSM    H8F13647   4.533   0.171   7.680 -0.0698  1.8392  2.3924
  127OSM    H8G13648   4.391   0.057   7.705 -2.0162  1.4464  2.9212
  127OSM    C9F13649   4.368   0.270   7.760 -0.2559  0.2063 -1.1748
  127OSM    H9F13650   4.371   0.373   7.723  0.4144  0.3462 -0.7560
  127OSM   C10F13651   4.326   0.268   7.889 -0.1244  0.7149  0.1794
  127OSM   H10F13652   4.311   0.365   7.939  2.5031  1.1178  0.3560
  127OSM   C11F13653   4.329   0.153   7.979  0.0860  0.8120  0.1946
  127OSM   H11F13654   4.359   0.060   7.926  2.4833  2.6740 -1.9640
  127OSM   H11G13655   4.225   0.133   8.015  0.3366  1.1983  1.1501
  127OSM   C12F13656   4.412   0.174   8.109 -0.4598  0.3217  0.1057
  127OSM   H12F13657   4.396   0.097   8.188 -0.4226 -2.6319 -2.5871
  127OSM   H12G13658   4.380   0.272   8.151 -2.6572 -1.3191  2.6516
  127OSM   C13F13659   4.565   0.179   8.093 -0.0026 -0.2056 -0.2541
  127OSM   H13F13660   4.592   0.232   7.999  1.0768 -1.7955 -0.8658
  127OSM   H13G13661   4.610   0.078   8.100 -0.7271 -0.4706  0.8510
  127OSM   C14F13662   4.635   0.258   8.203  1.0586 -0.2280  0.3749
  127OSM   H14F13663   4.587   0.357   8.221  0.6803 -0.7820  2.7061
  127OSM   H14G13664   4.744   0.269   8.188  0.7716 -0.0234 -1.8945
  127OSM   C15F13665   4.624   0.181   8.338 -0.4338 -0.0875  0.7494
  127OSM   H15F13666   4.649   0.074   8.322 -1.3269 -0.0509 -1.3028
  127OSM   H15G13667   4.518   0.191   8.371 -1.6827  1.0128 -3.0964
  127OSM   C16F13668   4.700   0.252   8.450 -0.3612  0.1389 -0.7092
  127OSM   H16F13669   4.640   0.336   8.490 -1.2168 -0.1161 -1.4129
  127OSM   H16G13670   4.800   0.283   8.412 -1.0979  0.3534 -2.6039
  127OSM   C17F13671   4.724   0.161   8.573 -0.3427 -0.0415 -0.3391
  127OSM   H17F13672   4.788   0.078   8.535 -0.9400  0.8767 -3.7589
  127OSM   H17G13673   4.633   0.108   8.608  0.5179 -1.3331  0.0088
  127OSM   C18F13674   4.795   0.224   8.697 -0.3787 -0.3583  1.1197
  127OSM   H18F13675   4.890   0.265   8.655  0.4341 -2.1620  1.1001
  127OSM   H18G13676   4.815   0.142   8.769  0.8293 -1.4904 -0.4625
  127OSM   H18H13677   4.724   0.294   8.747  0.5043  1.6651 -0.2905
  128OSM      N13678   0.924   4.401   6.151  0.3234  0.1161 -0.2006
  128OSM    C1513679   0.960   4.275   6.090  0.1873 -0.0654  0.2689
  128OSM   H15A13680   1.052   4.240   6.134  0.9925  2.4712  0.7596
  128OSM   H15B13681   0.987   4.290   5.986  0.1022  0.4803  0.3251
  128OSM   H15C13682   0.891   4.192   6.099 -1.0411 -0.0169 -5.0403
  128OSM    C1413683   1.040   4.499   6.135  0.2451 -0.0509 -0.4771
  128OSM   H14A13684   1.009   4.598   6.163 -0.6977 -0.1093 -1.2415
  128OSM   H14B13685   1.064   4.509   6.030  1.1553 -0.1065 -0.2770
  128OSM   H14C13686   1.122   4.466   6.197 -1.6112  0.7827  2.6626
  128OSM    C1313687   0.806   4.463   6.079 -0.0170 -0.2215  0.1342
  128OSM   H13A13688   0.784   4.560   6.122  0.1838  1.8948 -4.0674
  128OSM   H13B13689   0.718   4.401   6.086 -1.3706  1.7242  1.2975
  128OSM   H13C13690   0.820   4.485   5.975  1.1804  3.6907  0.9559
  128OSM    C1213691   0.893   4.371   6.299 -0.0775  0.4897  0.2051
  128OSM   H12A13692   0.881   4.460   6.359 -1.0378 -0.8036  2.0372
  128OSM   H12B13693   0.981   4.328   6.346 -0.2897 -1.6856 -1.2656
  128OSM    C1113694   0.776   4.275   6.339 -0.0846  0.3990  0.2094
  128OSM   H11A13695   0.684   4.306   6.284 -0.6450 -0.7645  0.4578
  128OSM   H11B13696   0.756   4.287   6.447 -1.4251 -0.9382  0.1392
  128OSM      P13697   0.900   4.042   6.390 -0.1221 -0.1059  0.1309
  128OSM    O1313698   0.936   3.926   6.307 -0.3309  0.7959 -0.2952
  128OSM    O1413699   1.007   4.130   6.445 -0.1466 -0.1005  0.0078
  128OSM    O1113700   0.816   3.997   6.517 -0.2195 -0.2284  0.4373
  128OSM    O1213701   0.811   4.140   6.298  0.2978 -0.5053 -0.7307
  128OSM    C1S13702   0.846   3.883   6.600  0.2463  0.5941 -0.0513
  128OSM    H1S13703   0.901   3.802   6.549  0.4533  0.2606  0.6864
  128OSM    H1T13704   0.752   3.832   6.631  0.3203  0.0903 -0.6514
  128OSM     NF13705   0.960   3.815   6.814  0.1466  0.6379 -0.6069
  128OSM    HNF13706   0.927   3.772   6.897  0.5618  2.7030  0.7138
  128OSM    C2S13707   0.895   3.925   6.739 -0.3325 -0.6934 -0.0928
  128OSM    H2S13708   0.963   4.013   6.735  0.2002 -1.1262 -0.7303
  128OSM    C3S13709   0.759   3.983   6.811  0.3917  0.2592  0.8932
  128OSM    H3S13710   0.691   3.896   6.827  1.8746 -0.5919  2.9629
  128OSM     O313711   0.687   4.079   6.732  0.0910  0.9399 -0.4354
  128OSM    HO313712   0.732   4.089   6.648  2.6023  0.5256  0.7924
  128OSM    C4S13713   0.784   4.039   6.948  0.4891  0.5465 -0.0103
  128OSM    H4S13714   0.751   3.985   7.039  1.2786  1.1165  0.6306
  128OSM    C5S13715   0.830   4.164   6.977 -0.8955  0.2632 -0.2193
  128OSM    H5S13716   0.849   4.233   6.893  0.4239 -1.5412 -1.4665
  128OSM    C6S13717   0.843   4.226   7.115 -0.1122  0.6169 -0.0115
  128OSM    H6S13718   0.772   4.309   7.132 -0.2173  0.8600 -1.4650
  128OSM    H6T13719   0.950   4.258   7.114 -0.2669  1.2586  1.5067
  128OSM    C7S13720   0.817   4.137   7.234 -0.0064  0.9240  0.2418
  128OSM    H7S13721   0.895   4.060   7.219  0.4353  1.2070  1.0324
  128OSM    H7T13722   0.714   4.096   7.245  0.2107  0.7309  1.9976
  128OSM    C8S13723   0.833   4.213   7.364 -0.8813  0.5255 -0.4378
  128OSM    H8S13724   0.760   4.296   7.377 -1.9108  0.0279 -2.6094
  128OSM    H8T13725   0.934   4.260   7.352  1.4702 -3.7452  0.5534
  128OSM    C9S13726   0.846   4.126   7.495  0.3928 -0.3809  0.2321
  128OSM    H9S13727   0.934   4.059   7.479  1.2047  1.1234 -2.2598
  128OSM    H9T13728   0.754   4.069   7.517  0.2346 -0.5261 -0.7409
  128OSM   C10S13729   0.873   4.224   7.613  1.0897  0.2749 -0.1694
  128OSM   H10S13730   0.792   4.297   7.630 -0.6315 -1.5406 -0.1439
  128OSM   H10T13731   0.953   4.287   7.569  3.1415 -0.2356  2.4903
  128OSM   C11S13732   0.897   4.152   7.751 -0.7385  0.1380  0.0862
  128OSM   H11S13733   0.966   4.070   7.723 -0.3595  0.9062 -1.3546
  128OSM   H11T13734   0.795   4.128   7.790 -0.0873  0.6011  2.1821
  128OSM   C12S13735   0.956   4.247   7.860 -0.0484  0.0328  0.9567
  128OSM   H12S13736   0.882   4.329   7.874  0.8795  1.0114  0.2520
  128OSM   H12T13737   1.049   4.296   7.825  0.7090 -0.3622  2.3292
  128OSM   C13S13738   0.976   4.172   7.988  0.4370 -0.5580  0.1040
  128OSM   H13S13739   1.042   4.083   7.979 -0.6123 -1.4208  0.6176
  128OSM   H13T13740   0.880   4.133   8.029  0.5037 -0.2501  0.5698
  128OSM   C14S13741   1.027   4.257   8.102 -0.0986 -0.2100  0.1697
  128OSM   H14S13742   0.957   4.342   8.118 -0.1145 -0.0879 -0.5235
  128OSM   H14T13743   1.127   4.297   8.076 -0.1290 -0.3270 -0.1296
  128OSM   C15S13744   1.036   4.185   8.233 -0.0321 -0.2404  0.1224
  128OSM   H15S13745   1.076   4.084   8.214  0.0798 -0.0440 -0.7069
  128OSM   H15T13746   0.935   4.167   8.276  0.4719  0.4044  1.6434
  128OSM   C16S13747   1.112   4.256   8.341  0.3700  0.0640 -0.2522
  128OSM   H16S13748   1.112   4.367   8.330 -0.7547 -0.1061 -2.3867
  128OSM   H16T13749   1.218   4.224   8.329  0.5377  0.9583 -1.3129
  128OSM   C17S13750   1.050   4.209   8.474  0.6154  0.2290 -0.0762
  128OSM   H17S13751   1.043   4.099   8.485 -0.2011  0.2276 -0.5033
  128OSM   H17T13752   0.943   4.238   8.470  1.0413  1.9222  0.1678
  128OSM   C18S13753   1.106   4.275   8.592 -0.5822  0.2048  0.3902
  128OSM   H18S13754   1.036   4.280   8.678  0.0945  2.6193  0.8876
  128OSM   H18T13755   1.126   4.383   8.575  2.0838  0.2404  3.0223
  128OSM   H18U13756   1.202   4.227   8.619 -1.1458 -0.7739  0.6754
  128OSM    C1F13757   1.083   3.771   6.768  0.6221  0.1344  0.2032
  128OSM     OF13758   1.143   3.834   6.687  0.0370 -0.1759 -0.2063
  128OSM    C2F13759   1.138   3.647   6.835 -0.9560  0.0622 -0.4693
  128OSM    H2F13760   1.169   3.577   6.754 -1.8401 -0.9493  0.0392
  128OSM    H2G13761   1.068   3.602   6.909  0.1887 -0.8842  0.0674
  128OSM    C3F13762   1.266   3.677   6.910 -0.5981 -0.1311 -0.3969
  128OSM    H3F13763   1.267   3.776   6.959  1.4791  0.0540 -0.7077
  128OSM    H3G13764   1.345   3.669   6.832  0.5956 -1.5434  0.8715
  128OSM    C4F13765   1.306   3.557   6.995 -0.0058  0.1901 -0.2543
  128OSM    H4F13766   1.284   3.470   6.929  2.6988 -0.1718 -0.8085
  128OSM    H4G13767   1.236   3.567   7.080 -0.2500  1.5028 -0.5856
  128OSM    C5F13768   1.456   3.543   7.036 -0.0077  0.5693  0.3231
  128OSM    H5F13769   1.475   3.640   7.087 -2.8609  0.3782  1.9444
  128OSM    H5G13770   1.528   3.540   6.951 -2.1055 -1.5285 -1.5314
  128OSM    C6F13771   1.483   3.413   7.119  0.2018 -0.3229 -0.4187
  128OSM    H6F13772   1.592   3.402   7.134  0.0431 -0.7148  0.5061
  128OSM    H6G13773   1.444   3.328   7.058 -1.3905 -0.6854  1.0242
  128OSM    C7F13774   1.420   3.403   7.256  0.6143 -0.0067  0.0219
  128OSM    H7F13775   1.407   3.298   7.288  0.3659 -0.0308 -0.1499
  128OSM    H7G13776   1.312   3.432   7.260  0.6786  0.3364 -0.5792
  128OSM    C8F13777   1.500   3.476   7.361 -0.0917  0.0164  0.7574
  128OSM    H8F13778   1.599   3.431   7.339 -0.7523 -1.3272  0.3757
  128OSM    H8G13779   1.480   3.424   7.457 -2.4951 -1.9787 -0.6738
  128OSM    C9F13780   1.494   3.625   7.371  0.4643  0.1008 -0.1522
  128OSM    H9F13781   1.498   3.676   7.274 -0.8251 -0.9837 -0.8175
  128OSM   C10F13782   1.496   3.694   7.485  0.3273  0.6910 -0.8604
  128OSM   H10F13783   1.495   3.804   7.482  1.5362  0.7776  0.5179
  128OSM   C11F13784   1.498   3.647   7.629 -0.6850  0.3871  0.0214
  128OSM   H11F13785   1.586   3.585   7.657 -0.4400  1.2012  1.0875
  128OSM   H11G13786   1.411   3.579   7.640  0.4109 -1.0115  0.3345
  128OSM   C12F13787   1.488   3.753   7.734  0.0483 -0.9708  0.2927
  128OSM   H12F13788   1.406   3.824   7.711  0.1945 -1.1495 -0.8531
  128OSM   H12G13789   1.584   3.809   7.728  0.0870 -1.1633 -1.5661
  128OSM   C13F13790   1.472   3.693   7.870 -0.3946  0.4176 -0.3631
  128OSM   H13F13791   1.539   3.607   7.884  0.1841  0.9575  0.2234
  128OSM   H13G13792   1.368   3.654   7.875 -0.3164 -0.0253 -1.7487
  128OSM   C14F13793   1.495   3.798   7.981  0.1122  0.1934  0.5367
  128OSM   H14F13794   1.442   3.891   7.950 -1.0801 -1.0680 -1.4538
  128OSM   H14G13795   1.603   3.824   7.979 -0.1783  1.4573 -0.2011
  128OSM   C15F13796   1.439   3.741   8.113  0.8393  0.4763 -0.6203
  128OSM   H15F13797   1.523   3.678   8.152  0.8399  0.8856  0.0549
  128OSM   H15G13798   1.345   3.689   8.084  0.7822  0.9131 -1.2425
  128OSM   C16F13799   1.422   3.840   8.223 -0.7683 -0.2870 -0.9213
  128OSM   H16F13800   1.345   3.911   8.186  0.4881  1.0411 -1.1129
  128OSM   H16G13801   1.521   3.891   8.232 -1.2815  0.6345 -0.3308
  128OSM   C17F13802   1.380   3.771   8.354 -0.1132  0.1945 -0.3414
  128OSM   H17F13803   1.465   3.705   8.382 -0.8250 -0.4264  0.4451
  128OSM   H17G13804   1.287   3.711   8.343 -0.6954  1.1203 -0.5137
  128OSM   C18F13805   1.354   3.872   8.475  0.0180  0.6778 -0.1561
  128OSM   H18F13806   1.449   3.922   8.501  0.4877 -0.8033  1.1864
  128OSM   H18G13807   1.324   3.811   8.564 -1.7584  0.5103 -0.8309
  128OSM   H18H13808   1.282   3.952   8.447  0.1638  0.4682 -1.1537
  129OSM      N13809   4.973   6.461   6.221  0.3096  0.6424 -0.7619
  129OSM    C1513810   4.845   6.535   6.247 -0.2020  0.3082  0.0895
  129OSM   H15A13811   4.779   6.465   6.297 -1.4773  1.4679  0.0880
  129OSM   H15B13812   4.797   6.574   6.159  0.2719  0.5027 -0.0822
  129OSM   H15C13813   4.876   6.615   6.311  1.6568 -1.5370  1.6422
  129OSM    C1413814   4.934   6.335   6.147  0.2165  0.4913  1.3300
  129OSM   H14A13815   5.014   6.302   6.081 -1.7856 -1.1956 -0.4031
  129OSM   H14B13816   4.860   6.357   6.072 -0.6892  0.4422  2.1976
  129OSM   H14C13817   4.878   6.262   6.203  1.2188 -1.2972  0.1031
  129OSM    C1313818   5.053   6.543   6.136 -0.5594  0.0355  0.0747
  129OSM   H13A13819   5.071   6.642   6.174  2.3959 -1.0314  1.7673
  129OSM   H13B13820   5.014   6.562   6.037 -1.2438 -2.8928 -0.3095
  129OSM   H13C13821   5.150   6.499   6.119 -0.0539  1.0629  0.2492
  129OSM    C1213822   5.038   6.428   6.354 -0.2616 -0.5082  0.2157
  129OSM   H12A13823   5.074   6.517   6.404 -1.1626 -0.4685  0.8073
  129OSM   H12B13824   5.131   6.375   6.337  0.8016  1.0639  0.9220
  129OSM    C1113825   4.952   6.340   6.451 -0.0118  0.2446 -0.0953
  129OSM   H11A13826   5.016   6.304   6.533  1.9448  0.4143 -1.4784
  129OSM   H11B13827   4.919   6.251   6.393 -0.1238  0.8547 -1.0009
  129OSM      P13828   4.706   6.331   6.544 -0.0352 -0.0744  0.1322
  129OSM    O1313829   4.586   6.415   6.513  0.0180  0.2260  0.6657
  129OSM    O1413830   4.713   6.195   6.496  0.2484  0.1665  0.1719
  129OSM    O1113831   4.725   6.337   6.698 -0.2652 -0.1668 -0.4179
  129OSM    O1213832   4.831   6.407   6.496  0.0567 -0.4214 -0.2457
  129OSM    C1S13833   4.694   6.445   6.784 -0.2498 -0.0650 -0.3846
  129OSM    H1S13834   4.583   6.441   6.792 -0.2996  1.6075  0.0678
  129OSM    H1T13835   4.726   6.541   6.736  0.0639  0.5612  1.0251
  129OSM     NF13836   4.707   6.536   7.013 -0.3356  0.8313 -0.3439
  129OSM    HNF13837   4.755   6.624   7.020  0.2448  0.4811  0.2422
  129OSM    C2S13838   4.767   6.442   6.922 -0.6070  0.0080  0.4188
  129OSM    H2S13839   4.751   6.338   6.956 -2.0323 -0.5299 -1.7076
  129OSM    C3S13840   4.915   6.463   6.897 -0.4211 -0.0204  0.3175
  129OSM    H3S13841   4.926   6.559   6.842 -0.6598 -0.3058 -0.2227
  129OSM     O313842   4.991   6.372   6.820  0.6717 -0.7556  0.3682
  129OSM    HO313843   4.926   6.307   6.791  0.0661 -0.1056  0.2521
  129OSM    C4S13844   4.982   6.462   7.032  0.4075 -0.7160  0.8004
  129OSM    H4S13845   4.971   6.368   7.087 -0.3484 -0.1850  1.5856
  129OSM    C5S13846   5.018   6.574   7.089  0.0246  0.2300  0.2819
  129OSM    H5S13847   4.992   6.671   7.043 -0.8372  0.2241  0.7396
  129OSM    C6S13848   5.063   6.578   7.233 -0.0091 -0.3354  0.1698
  129OSM    H6S13849   5.043   6.681   7.269  0.7248  0.6139 -1.9400
  129OSM    H6T13850   5.174   6.575   7.225 -0.1248 -0.1533 -2.7863
  129OSM    C7S13851   5.019   6.460   7.315  0.5817 -0.4487 -0.3442
  129OSM    H7S13852   5.081   6.370   7.293  1.2270  0.1426 -1.0429
  129OSM    H7T13853   4.913   6.432   7.298  0.4853  0.0643 -0.6105
  129OSM    C8S13854   5.037   6.499   7.463 -0.0478 -0.4066  0.4558
  129OSM    H8S13855   4.969   6.585   7.482 -0.4776 -0.4774 -0.6644
  129OSM    H8T13856   5.133   6.553   7.468 -0.7529  1.1473 -1.5745
  129OSM    C9S13857   5.030   6.381   7.561  0.1037  0.0465  0.0052
  129OSM    H9S13858   5.094   6.301   7.519 -1.9116 -1.9946  0.6024
  129OSM    H9T13859   4.926   6.342   7.563 -1.7385  4.3832  1.8449
  129OSM   C10S13860   5.069   6.422   7.705 -0.3512  0.2986 -0.1224
  129OSM   H10S13861   5.170   6.468   7.698 -1.3122  3.0175  2.1437
  129OSM   H10T13862   5.054   6.332   7.769  0.0457 -0.3045 -0.8550
  129OSM   C11S13863   4.989   6.528   7.773  0.0910  0.2175  0.1709
  129OSM   H11S13864   4.888   6.485   7.788 -0.5222  1.3950 -0.4383
  129OSM   H11T13865   4.981   6.616   7.706  1.3017 -2.3360 -3.6746
  129OSM   C12S13866   5.020   6.582   7.912  0.0892  0.0343 -0.1905
  129OSM   H12S13867   4.942   6.659   7.929  1.6021  1.8579 -1.2441
  129OSM   H12T13868   5.123   6.622   7.914  0.9121 -1.9263 -1.0271
  129OSM   C13S13869   4.988   6.498   8.041  0.2527 -0.3568  0.6509
  129OSM   H13S13870   5.057   6.411   8.045 -1.4329 -1.7352  1.2583
  129OSM   H13T13871   4.881   6.467   8.032 -0.1418  1.1997 -0.4235
  129OSM   C14S13872   5.007   6.579   8.169  0.1353  0.5662  0.3297
  129OSM   H14S13873   4.946   6.671   8.161 -1.0888 -0.2942 -0.8056
  129OSM   H14T13874   5.109   6.613   8.195  0.6283  0.8748 -1.8421
  129OSM   C15S13875   4.954   6.492   8.287 -0.3995 -0.6843  0.7566
  129OSM   H15S13876   5.013   6.400   8.304  0.4150 -0.0089  1.6288
  129OSM   H15T13877   4.846   6.475   8.266 -0.5940  2.5027 -1.5616
  129OSM   C16S13878   4.969   6.565   8.422  0.2817  0.0773  0.4372
  129OSM   H16S13879   4.904   6.504   8.488  0.9407 -2.2281 -0.9317
  129OSM   H16T13880   4.921   6.664   8.405  1.8813  0.7917 -0.1100
  129OSM   C17S13881   5.111   6.578   8.473  0.0181 -0.0427 -0.1446
  129OSM   H17S13882   5.167   6.641   8.401 -2.0250  2.9245  0.6700
  129OSM   H17T13883   5.157   6.476   8.473 -1.5068 -0.7899  1.4908
  129OSM   C18S13884   5.113   6.640   8.615  0.0498 -0.2006 -0.2453
  129OSM   H18S13885   5.036   6.605   8.687  0.6277  2.1561  1.6809
  129OSM   H18T13886   5.089   6.748   8.600 -1.8861 -0.6326 -0.4287
  129OSM   H18U13887   5.215   6.631   8.659 -0.2752  0.4042  0.6531
  129OSM    C1F13888   4.582   6.523   7.059  0.5435  0.9055  0.4681
  129OSM     OF13889   4.512   6.423   7.036  0.1884 -0.3993  0.5558
  129OSM    C2F13890   4.529   6.631   7.144 -0.8236 -0.3332 -0.0041
  129OSM    H2F13891   4.427   6.612   7.186 -1.4026 -0.6471 -1.5004
  129OSM    H2G13892   4.531   6.724   7.084 -0.0812 -0.1765  0.2658
  129OSM    C3F13893   4.623   6.657   7.264  0.6810 -0.0680  0.3871
  129OSM    H3F13894   4.600   6.753   7.316  3.0894  0.7505  0.0596
  129OSM    H3G13895   4.730   6.672   7.236  1.1947 -0.2044  2.1605
  129OSM    C4F13896   4.615   6.542   7.365  0.2054 -0.1928  0.0104
  129OSM    H4F13897   4.683   6.459   7.335 -0.2546 -0.1911 -1.0983
  129OSM    H4G13898   4.513   6.498   7.363  0.5790 -1.2227  1.5614
  129OSM    C5F13899   4.635   6.588   7.509 -0.5293 -0.1588  0.8598
  129OSM    H5F13900   4.569   6.673   7.535 -1.3585 -0.9941  1.5179
  129OSM    H5G13901   4.737   6.632   7.519 -0.9124  1.3414 -1.1279
  129OSM    C6F13902   4.619   6.481   7.619  0.3755 -0.1743 -0.4996
  129OSM    H6F13903   4.624   6.527   7.721 -1.3219 -2.3249  0.6491
  129OSM    H6G13904   4.704   6.410   7.609 -0.7851 -1.8195  0.6379
  129OSM    C7F13905   4.483   6.412   7.625 -0.5893  0.1558 -0.6495
  129OSM    H7F13906   4.490   6.302   7.607  0.1138 -0.1716  1.3556
  129OSM    H7G13907   4.416   6.459   7.550  0.0679  1.7675 -0.2656
  129OSM    C8F13908   4.401   6.434   7.759  0.7594  0.6735  0.1940
  129OSM    H8F13909   4.293   6.431   7.734  0.7331  3.7642 -0.4031
  129OSM    H8G13910   4.411   6.541   7.788  2.5222 -0.1009  2.8763
  129OSM    C9F13911   4.443   6.346   7.871 -0.2276 -0.8505 -0.1255
  129OSM    H9F13912   4.414   6.242   7.850 -0.0368 -1.6617  3.0966
  129OSM   C10F13913   4.491   6.380   7.994 -0.6651  0.4385 -0.3405
  129OSM   H10F13914   4.524   6.297   8.058  0.3417 -0.5697 -2.0605
  129OSM   C11F13915   4.521   6.524   8.036  0.5950  0.3022 -0.7213
  129OSM   H11F13916   4.435   6.593   8.024  0.6332  0.3376 -0.7949
  129OSM   H11G13917   4.597   6.576   7.974  0.3091  0.3982 -0.9912
  129OSM   C12F13918   4.578   6.530   8.180  0.8948 -0.3825 -0.1868
  129OSM   H12F13919   4.643   6.619   8.193 -0.5926  0.9627 -1.5177
  129OSM   H12G13920   4.641   6.440   8.196 -0.4370 -0.9847  2.1915
  129OSM   C13F13921   4.481   6.542   8.294  0.1737 -0.3011  0.2449
  129OSM   H13F13922   4.391   6.481   8.271 -1.9531  2.2705  1.1685
  129OSM   H13G13923   4.445   6.647   8.283 -1.1611 -0.7575  0.0709
  129OSM   C14F13924   4.542   6.500   8.430 -0.7223 -0.1885  0.6897
  129OSM   H14F13925   4.652   6.519   8.425 -0.7162 -0.4559 -3.3238
  129OSM   H14G13926   4.528   6.391   8.446 -0.6447 -0.2979  0.0477
  129OSM   C15F13927   4.481   6.572   8.552 -0.5503  0.2661  1.0386
  129OSM   H15F13928   4.464   6.679   8.528 -1.4796 -0.2027 -0.5007
  129OSM   H15G13929   4.553   6.559   8.636 -0.7789 -0.3078  1.1450
  129OSM   C16F13930   4.347   6.513   8.582  0.5089  0.2947  0.1043
  129OSM   H16F13931   4.339   6.402   8.592 -1.4508  0.4705  1.0576
  129OSM   H16G13932   4.276   6.563   8.513 -1.2372 -0.2663  1.4049
  129OSM   C17F13933   4.291   6.566   8.721  0.7472 -0.7539 -0.4059
  129OSM   H17F13934   4.310   6.672   8.749 -0.6029 -0.9311  1.3239
  129OSM   H17G13935   4.356   6.516   8.796  1.2039  2.3411  1.4540
  129OSM   C18F13936   4.143   6.534   8.753  0.3025  0.5337 -0.0650
  129OSM   H18F13937   4.086   6.571   8.665  2.4506  1.3831 -1.1765
  129OSM   H18G13938   4.111   6.573   8.852  2.1530 -1.1279  1.2722
  129OSM   H18H13939   4.140   6.423   8.763  1.4238  0.4328 -0.7452
  130OSM      N13940   1.651   1.892   6.088 -0.1296  0.2500 -0.5225
  130OSM    C1513941   1.657   2.027   6.154 -0.1808  0.4177 -0.0702
  130OSM   H15A13942   1.572   2.090   6.132  0.7820  2.0235  0.6524
  130OSM   H15B13943   1.739   2.081   6.110 -0.9455 -0.1155 -2.2614
  130OSM   H15C13944   1.661   2.020   6.262  0.3225 -1.1298 -0.1628
  130OSM    C1413945   1.520   1.830   6.095 -0.5294  0.2165 -1.5863
  130OSM   H14A13946   1.433   1.891   6.076 -2.3480 -1.5797  0.4061
  130OSM   H14B13947   1.521   1.774   6.187  0.1550  0.3215 -1.5253
  130OSM   H14C13948   1.507   1.753   6.020  1.6557 -2.2815  0.3910
  130OSM    C1313949   1.670   1.917   5.939  0.4935 -0.0234 -0.2433
  130OSM   H13A13950   1.768   1.964   5.941  0.0381  0.9643 -0.2331
  130OSM   H13B13951   1.600   1.990   5.900  0.2698  0.6364  1.3161
  130OSM   H13C13952   1.688   1.831   5.876  0.6768 -0.0680 -0.1292
  130OSM    C1213953   1.769   1.816   6.148 -0.4614  0.1355  0.0991
  130OSM   H12A13954   1.781   1.716   6.109 -2.7617 -0.2704  0.3024
  130OSM   H12B13955   1.755   1.803   6.254  1.7105 -4.3848  0.0673
  130OSM    C1113956   1.908   1.883   6.137  0.1787  0.5395 -0.6095
  130OSM   H11A13957   1.924   1.913   6.031  0.2911  0.1677 -0.7000
  130OSM   H11B13958   1.987   1.808   6.162  1.7219  2.0590 -0.7282
  130OSM      P13959   2.007   2.120   6.194 -0.0275  0.1492  0.0180
  130OSM    O1313960   2.149   2.096   6.170  0.7452  0.9388 -0.3181
  130OSM    O1413961   1.936   2.200   6.094  0.2109  0.3390  0.3314
  130OSM    O1113962   1.981   2.211   6.324  0.1350 -0.3698  0.5756
  130OSM    O1213963   1.926   1.987   6.222 -0.3648 -0.6846  0.1143
  130OSM    C1S13964   1.883   2.177   6.434 -0.2889  0.3463 -0.4148
  130OSM    H1S13965   1.818   2.089   6.415  1.7241 -1.2099 -0.4702
  130OSM    H1T13966   1.812   2.260   6.457 -2.3056 -0.5527 -2.9046
  130OSM     NF13967   1.870   2.116   6.670  0.1069  0.0405  0.0971
  130OSM    HNF13968   1.850   2.181   6.743 -1.6211 -1.5230  1.0889
  130OSM    C2S13969   1.962   2.158   6.566 -0.0760 -0.3560  0.3053
  130OSM    H2S13970   2.039   2.078   6.555 -0.6946 -1.3102  2.4830
  130OSM    C3S13971   2.047   2.280   6.605  0.0760  0.5107 -0.2069
  130OSM    H3S13972   1.987   2.373   6.610 -1.6316 -0.5813  0.7511
  130OSM     O313973   2.152   2.311   6.515  0.1491 -0.6418  0.8560
  130OSM    HO313974   2.121   2.272   6.434 -0.6037  0.6991  0.4676
  130OSM    C4S13975   2.100   2.253   6.750 -0.5843 -0.1528  0.5610
  130OSM    H4S13976   2.027   2.285   6.826 -1.0917 -0.9173  0.3961
  130OSM    C5S13977   2.213   2.219   6.790  0.0450 -0.5087 -0.9304
  130OSM    H5S13978   2.294   2.215   6.715  2.1758  2.3992  0.9930
  130OSM    C6S13979   2.270   2.183   6.935  0.2109 -0.7723  0.5533
  130OSM    H6S13980   2.303   2.282   6.973  1.0116 -0.8875  0.1730
  130OSM    H6T13981   2.366   2.128   6.926  0.7807  0.3652 -0.5675
  130OSM    C7S13982   2.162   2.129   7.029 -0.4300 -0.1312  0.2035
  130OSM    H7S13983   2.122   2.027   7.006 -1.2485 -0.2139  1.7925
  130OSM    H7T13984   2.070   2.190   7.019 -1.1904 -1.2551  0.0927
  130OSM    C8S13985   2.205   2.142   7.173 -0.2900 -0.2163  0.2101
  130OSM    H8S13986   2.214   2.251   7.193  3.3501 -0.1268 -1.0728
  130OSM    H8T13987   2.305   2.094   7.182 -0.9060 -1.1772  2.6458
  130OSM    C9S13988   2.118   2.076   7.279  0.4035 -0.0951  0.2266
  130OSM    H9S13989   2.134   1.969   7.253  2.8315  0.4296 -0.7526
  130OSM    H9T13990   2.010   2.099   7.269  0.4030  0.5348  1.5412
  130OSM   C10S13991   2.167   2.094   7.425  0.1860 -0.1774  0.4649
  130OSM   H10S13992   2.109   2.180   7.463  1.3774  1.2863 -0.9261
  130OSM   H10T13993   2.277   2.107   7.430  0.1318  1.0664 -1.0575
  130OSM   C11S13994   2.127   1.970   7.507  0.2318  0.0464 -0.6218
  130OSM   H11S13995   2.200   1.888   7.496  0.1942  0.0138 -0.6285
  130OSM   H11T13996   2.029   1.932   7.473 -0.0996  1.1288 -0.9140
  130OSM   C12S13997   2.121   2.015   7.665 -0.0577 -0.4023 -0.6250
  130OSM   H12S13998   2.055   2.105   7.663  0.4305 -0.0325 -3.1974
  130OSM   H12T13999   2.227   2.028   7.696  0.3748 -1.5697 -1.5819
  130OSM   C13S14000   2.062   1.904   7.749 -0.0123  0.4887  0.3065
  130OSM   H13S14001   2.079   1.937   7.853  0.3193  0.8411  0.1436
  130OSM   H13T14002   2.126   1.815   7.728 -0.8260 -0.0356 -0.0052
  130OSM   C14S14003   1.917   1.875   7.725 -0.1714  0.7785 -0.4777
  130OSM   H14S14004   1.893   1.844   7.621  1.5024  1.4569 -1.1062
  130OSM   H14T14005   1.868   1.972   7.744 -0.0494  1.1579 -1.9516
  130OSM   C15S14006   1.855   1.767   7.819 -0.9330 -0.6880  0.0609
  130OSM   H15S14007   1.904   1.671   7.791 -1.7277 -0.4422 -2.4247
  130OSM   H15T14008   1.747   1.767   7.794 -1.0745  1.0166  0.5406
  130OSM   C16S14009   1.873   1.784   7.970 -0.2204  0.5474 -0.0999
  130OSM   H16S14010   1.835   1.885   7.996 -0.9226  0.3993 -0.5192
  130OSM   H16T14011   1.982   1.784   7.994 -0.3003 -1.4803  0.4789
  130OSM   C17S14012   1.788   1.675   8.039  1.2778 -0.2226 -0.3223
  130OSM   H17S14013   1.775   1.596   7.962 -0.3942 -1.4448  1.1204
  130OSM   H17T14014   1.682   1.706   8.055  1.2350 -1.5885  2.7207
  130OSM   C18S14015   1.839   1.629   8.178 -0.0766 -0.0796 -0.2033
  130OSM   H18S14016   1.939   1.581   8.165 -0.2257 -1.0407  1.9106
  130OSM   H18T14017   1.774   1.557   8.232  0.9346 -2.1280 -1.5379
  130OSM   H18U14018   1.843   1.719   8.242 -4.5000 -1.5153  2.4851
  130OSM    C1F14019   1.830   1.991   6.666  0.8750  0.6121  0.7337
  130OSM     OF14020   1.875   1.921   6.580 -0.6190  0.0316 -0.0274
  130OSM    C2F14021   1.730   1.946   6.761  0.0272  0.1112 -0.1708
  130OSM    H2F14022   1.667   1.869   6.713 -1.1927  0.0885  1.3759
  130OSM    H2G14023   1.658   2.029   6.780 -1.7536 -0.5634 -3.3515
  130OSM    C3F14024   1.797   1.906   6.891 -0.0063  0.2951  0.0431
  130OSM    H3F14025   1.878   1.979   6.911  0.6743  0.6817 -3.4072
  130OSM    H3G14026   1.847   1.807   6.889 -1.3804 -0.4505  1.0616
  130OSM    C4F14027   1.684   1.889   6.995 -0.5298  0.5195  0.5738
  130OSM    H4F14028   1.601   1.827   6.955  0.4942 -0.4749 -0.0580
  130OSM    H4G14029   1.654   1.988   7.035 -1.6759  0.8067 -0.8977
  130OSM    C5F14030   1.743   1.828   7.129 -0.0765  0.0908  0.8196
  130OSM    H5F14031   1.850   1.856   7.143 -0.0184  0.1527  0.2961
  130OSM    H5G14032   1.744   1.717   7.123  0.2095  0.1344 -0.2358
  130OSM    C6F14033   1.675   1.889   7.249  0.2578  0.1193 -0.7389
  130OSM    H6F14034   1.565   1.873   7.249  0.1777 -0.1398  3.0746
  130OSM    H6G14035   1.670   1.999   7.243 -0.6480  0.1822  0.7741
  130OSM    C7F14036   1.744   1.844   7.381  0.1317  0.1101 -0.4084
  130OSM    H7F14037   1.721   1.919   7.460 -1.7484 -2.1107  1.2963
  130OSM    H7G14038   1.853   1.847   7.359  0.6479 -0.1570  1.8333
  130OSM    C8F14039   1.703   1.704   7.429  0.0806  0.3990  0.3797
  130OSM    H8F14040   1.728   1.691   7.536 -2.1491 -1.5932  0.7443
  130OSM    H8G14041   1.768   1.645   7.361  1.0333  1.5054  0.2885
  130OSM    C9F14042   1.560   1.661   7.407 -0.3322  0.0613 -0.5107
  130OSM    H9F14043   1.523   1.676   7.305  1.1680 -0.2121 -1.1228
  130OSM   C10F14044   1.466   1.604   7.496 -0.6187  0.3874 -0.2952
  130OSM   H10F14045   1.368   1.575   7.455 -0.5407 -0.1558 -0.1085
  130OSM   C11F14046   1.490   1.560   7.641 -0.3608 -0.6746  0.0011
  130OSM   H11F14047   1.580   1.606   7.687  0.0761 -1.3535 -0.1719
  130OSM   H11G14048   1.505   1.451   7.651  1.3446 -0.4245  0.6014
  130OSM   C12F14049   1.376   1.603   7.741 -0.0096 -0.5080 -0.0027
  130OSM   H12F14050   1.285   1.552   7.703  0.0441 -1.2889  0.8995
  130OSM   H12G14051   1.357   1.713   7.737 -2.7915 -0.8910  0.4220
  130OSM   C13F14052   1.398   1.546   7.888 -0.2651  0.4076 -0.7094
  130OSM   H13F14053   1.468   1.605   7.950  0.3471 -1.0072 -0.0134
  130OSM   H13G14054   1.438   1.445   7.866  0.2938  0.9905 -2.5386
  130OSM   C14F14055   1.268   1.526   7.966 -0.0151  0.3260 -0.5363
  130OSM   H14F14056   1.214   1.442   7.919 -1.5897 -0.9852  3.2205
  130OSM   H14G14057   1.206   1.618   7.974 -0.1749  0.0855  2.0177
  130OSM   C15F14058   1.294   1.486   8.110  0.1010 -0.7958 -0.2796
  130OSM   H15F14059   1.197   1.507   8.160  0.8762  0.3192  0.8112
  130OSM   H15G14060   1.374   1.549   8.154 -1.5426 -0.4851  2.5319
  130OSM   C16F14061   1.321   1.337   8.123 -0.3100  0.6847 -0.2391
  130OSM   H16F14062   1.400   1.312   8.050 -0.9358 -0.1476 -0.6454
  130OSM   H16G14063   1.236   1.268   8.105 -1.4827  1.0129  3.1820
  130OSM   C17F14064   1.357   1.308   8.265 -0.1155 -0.2816 -0.6384
  130OSM   H17F14065   1.263   1.325   8.322  0.1276  0.8202 -0.5516
  130OSM   H17G14066   1.435   1.372   8.313 -0.9712  1.7551 -1.8359
  130OSM   C18F14067   1.388   1.159   8.295 -0.1276 -0.5119 -0.4840
  130OSM   H18F14068   1.305   1.093   8.262 -0.0874 -0.8146  0.0031
  130OSM   H18G14069   1.400   1.157   8.406 -0.4563 -0.0242 -0.4368
  130OSM   H18H14070   1.481   1.129   8.243  0.3189  0.2582 -0.1523
  131OSM      N14071   5.948   5.896   6.206 -0.3281 -0.3875  0.1086
  131OSM    C1514072   5.967   5.838   6.340  0.0418  0.7121 -0.6427
  131OSM   H15A14073   6.045   5.883   6.399 -1.3863  1.0419  1.1023
  131OSM   H15B14074   6.009   5.740   6.330 -1.5788 -0.6746  3.7103
  131OSM   H15C14075   5.870   5.829   6.386 -0.6470 -0.1229 -2.1744
  131OSM    C1414076   5.870   6.023   6.207  0.6757 -0.0120 -0.1781
  131OSM   H14A14077   5.837   6.047   6.108  1.0952 -1.2876 -0.6436
  131OSM   H14B14078   5.936   6.097   6.251 -0.1668 -0.0638  1.2338
  131OSM   H14C14079   5.781   6.027   6.269  1.7836  1.3408  1.4441
  131OSM    C1314080   6.079   5.916   6.143 -0.2252  0.4142  0.2005
  131OSM   H13A14081   6.143   5.975   6.207  1.6494  0.7040 -1.8429
  131OSM   H13B14082   6.075   5.968   6.048 -0.1167  1.1348  0.5818
  131OSM   H13C14083   6.132   5.824   6.126 -0.6914  0.3066 -0.7169
  131OSM    C1214084   5.874   5.804   6.118 -0.7214  0.0841  0.5887
  131OSM   H12A14085   5.889   5.835   6.015 -0.8096 -2.8255 -0.3773
  131OSM   H12B14086   5.769   5.824   6.134 -0.3280  2.3827  0.6271
  131OSM    C1114087   5.900   5.644   6.116 -0.5232  0.0069 -0.9084
  131OSM   H11A14088   5.822   5.597   6.052 -1.1049  0.2936 -0.4266
  131OSM   H11B14089   5.891   5.608   6.221  1.3226 -0.3268 -0.8264
  131OSM      P14090   6.158   5.561   6.121 -0.0430  0.2459  0.2765
  131OSM    O1314091   6.180   5.421   6.073 -0.0016 -0.2182  0.3257
  131OSM    O1414092   6.264   5.663   6.099 -0.3274 -0.1395  0.2073
  131OSM    O1114093   6.133   5.551   6.274 -0.0447  0.5903 -0.1025
  131OSM    O1214094   6.025   5.617   6.062 -0.2698 -0.1777 -0.0663
  131OSM    C1S14095   6.224   5.619   6.365  0.7584 -0.8284 -0.2536
  131OSM    H1S14096   6.217   5.730   6.364  0.3792 -0.8199  1.3257
  131OSM    H1T14097   6.330   5.597   6.339  0.7490  1.3792 -2.5880
  131OSM     NF14098   6.279   5.660   6.596  0.3148 -0.6946 -0.1868
  131OSM    HNF14099   6.342   5.608   6.653  1.5383  0.6773 -0.2315
  131OSM    C2S14100   6.188   5.582   6.511  0.1736 -0.0152  0.3107
  131OSM    H2S14101   6.083   5.615   6.527  0.0107  0.3399 -1.3385
  131OSM    C3S14102   6.206   5.431   6.529  0.4880 -0.6999  0.3558
  131OSM    H3S14103   6.311   5.395   6.536  1.2315  1.1959 -0.2646
  131OSM     O314104   6.147   5.347   6.431 -0.0264  0.0098  0.7194
  131OSM    HO314105   6.105   5.399   6.362  2.5313  2.0681  0.5535
  131OSM    C4S14106   6.155   5.393   6.669  0.6450  0.1422 -0.1392
  131OSM    H4S14107   6.238   5.386   6.740  0.2322 -2.7514  0.1645
  131OSM    C5S14108   6.026   5.360   6.693 -0.0037 -0.7110 -1.0938
  131OSM    H5S14109   5.954   5.362   6.610  0.3680  0.0303 -1.4078
  131OSM    C6S14110   5.986   5.315   6.836  0.4635  0.1235  0.2981
  131OSM    H6S14111   5.911   5.234   6.820  1.4854 -0.3347 -2.9026
  131OSM    H6T14112   5.927   5.397   6.883 -0.1537 -0.5840  0.7797
  131OSM    C7S14113   6.078   5.257   6.944  0.3399 -0.1998  0.6991
  131OSM    H7S14114   6.168   5.320   6.957 -0.3878  0.8986  0.6253
  131OSM    H7T14115   6.120   5.158   6.916 -0.6285 -0.7487  1.1303
  131OSM    C8S14116   5.999   5.235   7.072  0.5227  0.0882 -0.4033
  131OSM    H8S14117   5.936   5.143   7.073  3.2360 -1.9066 -1.4071
  131OSM    H8T14118   5.935   5.323   7.095 -1.2040 -0.8245 -1.4153
  131OSM    C9S14119   6.091   5.207   7.199  0.5118 -0.2536  0.1555
  131OSM    H9S14120   6.179   5.275   7.184  1.6696 -1.9776 -1.3251
  131OSM    H9T14121   6.127   5.103   7.182 -1.1258 -0.9368  0.7521
  131OSM   C10S14122   6.016   5.218   7.333 -0.1053  0.3050 -0.1140
  131OSM   H10S14123   5.949   5.130   7.343 -0.5151  0.7384  1.1126
  131OSM   H10T14124   5.960   5.314   7.328 -0.3084  0.1313 -2.7498
  131OSM   C11S14125   6.113   5.232   7.460  0.5775  0.3218  0.2415
  131OSM   H11S14126   6.043   5.260   7.542  0.0301 -1.1428  0.3015
  131OSM   H11T14127   6.177   5.322   7.449 -0.3769  0.7570 -3.0572
  131OSM   C12S14128   6.196   5.115   7.509 -0.1896  0.9112  0.5936
  131OSM   H12S14129   6.278   5.146   7.578 -0.4339  1.2171  0.7476
  131OSM   H12T14130   6.261   5.090   7.422  0.1489  0.6243  0.9251
  131OSM   C13S14131   6.117   4.985   7.555 -0.2583 -0.4826 -0.1591
  131OSM   H13S14132   6.073   4.929   7.470  0.8912 -1.2890 -0.2471
  131OSM   H13T14133   6.035   5.017   7.624  3.6021  1.4318  4.0667
  131OSM   C14S14134   6.211   4.882   7.610 -0.1764 -0.5978  0.3040
  131OSM   H14S14135   6.296   4.927   7.665  0.4405 -0.8548 -0.4106
  131OSM   H14T14136   6.273   4.835   7.531  0.0669  0.3817 -0.1016
  131OSM   C15S14137   6.138   4.771   7.696  0.1022  1.1781 -0.0413
  131OSM   H15S14138   6.055   4.718   7.645 -0.5218  2.1652 -0.0722
  131OSM   H15T14139   6.107   4.823   7.789  2.5437  0.0748  1.4933
  131OSM   C16S14140   6.247   4.663   7.736  0.4826  0.2669 -0.5151
  131OSM   H16S14141   6.304   4.707   7.821  0.4026 -2.1548  0.9100
  131OSM   H16T14142   6.314   4.645   7.649  0.8591 -1.7771  0.1238
  131OSM   C17S14143   6.188   4.528   7.788 -0.5703 -0.6842 -0.0142
  131OSM   H17S14144   6.278   4.462   7.788  0.3555  0.3305 -3.8482
  131OSM   H17T14145   6.117   4.480   7.717  0.9491 -0.6585 -1.6181
  131OSM   C18S14146   6.130   4.540   7.925  0.2218 -0.5788  0.0168
  131OSM   H18S14147   6.207   4.580   7.995  0.5310  1.3704 -1.3506
  131OSM   H18T14148   6.093   4.447   7.973  1.3222  0.2358  2.6329
  131OSM   H18U14149   6.046   4.612   7.917  1.4447  0.9083  0.0326
  131OSM    C1F14150   6.258   5.791   6.623 -0.3597  0.0336  0.0875
  131OSM     OF14151   6.155   5.844   6.580  0.1139 -0.3415 -0.2378
  131OSM    C2F14152   6.348   5.858   6.727  0.0431  0.4704  0.0139
  131OSM    H2F14153   6.355   5.964   6.695 -1.2310  0.9383  1.1857
  131OSM    H2G14154   6.444   5.802   6.724 -0.1820  0.0775 -0.0230
  131OSM    C3F14155   6.302   5.832   6.870  0.7386  0.0166  0.1113
  131OSM    H3F14156   6.302   5.725   6.899  1.8524 -0.2092 -0.6639
  131OSM    H3G14157   6.195   5.863   6.868  1.3556  2.3715 -1.8292
  131OSM    C4F14158   6.391   5.905   6.970  0.4700 -0.3415  0.2800
  131OSM    H4F14159   6.379   6.014   6.956 -0.5686 -0.3890  0.7399
  131OSM    H4G14160   6.500   5.894   6.950  0.2463  1.1321 -2.0817
  131OSM    C5F14161   6.360   5.871   7.118 -0.0285 -0.8105  0.3591
  131OSM    H5F14162   6.313   5.771   7.114 -1.6091 -0.1026  0.4508
  131OSM    H5G14163   6.275   5.928   7.163 -0.5078 -0.9749 -0.3285
  131OSM    C6F14164   6.481   5.879   7.211  0.1152 -0.0193  0.1990
  131OSM    H6F14165   6.518   5.983   7.216 -0.2324  0.0622  1.2196
  131OSM    H6G14166   6.558   5.819   7.157  0.1622 -1.8945  2.1972
  131OSM    C7F14167   6.462   5.826   7.353  0.3928 -0.2583 -0.2791
  131OSM    H7F14168   6.418   5.723   7.351 -0.4009  0.0742 -0.4179
  131OSM    H7G14169   6.388   5.892   7.403  1.9966 -0.0939  2.0140
  131OSM    C8F14170   6.598   5.830   7.427 -0.0459 -0.1939  0.1586
  131OSM    H8F14171   6.684   5.783   7.374  1.5106  0.0660  2.3437
  131OSM    H8G14172   6.581   5.766   7.516  1.4459 -1.0994 -0.1696
  131OSM    C9F14173   6.624   5.965   7.494  0.1118  0.2906  0.1043
  131OSM    H9F14174   6.686   6.032   7.432  1.8055 -0.2698  1.1339
  131OSM   C10F14175   6.605   6.000   7.626 -0.0190  0.4785  0.1267
  131OSM   H10F14176   6.629   6.104   7.653  0.3922  0.9372 -1.8066
  131OSM   C11F14177   6.546   5.915   7.736 -0.1216  0.0405 -0.4255
  131OSM   H11F14178   6.488   5.824   7.709  0.2106  0.2548 -1.9130
  131OSM   H11G14179   6.484   5.970   7.811 -2.7709 -2.4374 -0.6470
  131OSM   C12F14180   6.664   5.851   7.801  0.0802 -0.5755 -0.0021
  131OSM   H12F14181   6.755   5.915   7.808  1.3851 -2.3220 -0.1860
  131OSM   H12G14182   6.699   5.761   7.746 -2.8935 -0.5643 -2.1030
  131OSM   C13F14183   6.627   5.815   7.948 -0.6530  0.3548 -0.0112
  131OSM   H13F14184   6.538   5.750   7.959 -0.4496 -0.0044 -0.4578
  131OSM   H13G14185   6.594   5.911   7.995  0.0748  1.0755 -0.9182
  131OSM   C14F14186   6.745   5.750   8.032  0.3588  0.6846  0.1929
  131OSM   H14F14187   6.823   5.829   8.034 -0.5689  1.6660 -0.6831
  131OSM   H14G14188   6.782   5.661   7.976 -1.0477  0.7157 -0.8579
  131OSM   C15F14189   6.701   5.694   8.168  0.0213  0.7566  0.0196
  131OSM   H15F14190   6.790   5.630   8.185  1.3017  2.2931 -0.6549
  131OSM   H15G14191   6.607   5.635   8.167  0.9878 -0.8244 -0.8670
  131OSM   C16F14192   6.691   5.799   8.278  0.0265 -0.7489 -0.0634
  131OSM   H16F14193   6.637   5.885   8.234  1.3328 -0.2547 -0.7328
  131OSM   H16G14194   6.785   5.850   8.309 -1.1104  1.9749 -0.8060
  131OSM   C17F14195   6.616   5.742   8.401  0.4219 -0.0042 -0.5603
  131OSM   H17F14196   6.511   5.731   8.365  0.8232  1.3340 -2.2899
  131OSM   H17G14197   6.622   5.823   8.477 -0.0758 -0.5435  0.0600
  131OSM   C18F14198   6.673   5.613   8.459  0.2812 -0.3564  0.2615
  131OSM   H18F14199   6.666   5.533   8.382 -1.7398  1.5475 -1.7064
  131OSM   H18G14200   6.619   5.573   8.547 -2.2894 -0.3033 -1.1839
  131OSM   H18H14201   6.781   5.612   8.484  0.3504  1.4319  0.1991
  132OSM      N14202   0.183   6.247   6.155  0.3737 -0.1495 -0.3177
  132OSM    C1514203   0.106   6.373   6.114  0.1043  0.2604 -0.0161
  132OSM   H15A14204   0.081   6.383   6.010  0.8002  1.5677 -0.0743
  132OSM   H15B14205   0.158   6.461   6.148  0.5953 -0.5177  1.3261
  132OSM   H15C14206   0.009   6.374   6.163  0.1905  0.0108  0.1657
  132OSM    C1414207   0.115   6.134   6.092 -0.1284 -0.2781 -0.4091
  132OSM   H14A14208   0.127   6.141   5.985  0.5750  0.7705 -0.2799
  132OSM   H14B14209   0.012   6.125   6.120  0.5977 -0.5150  2.5307
  132OSM   H14C14210   0.149   6.038   6.131 -1.4834 -0.7652 -0.3902
  132OSM    C1314211   0.311   6.254   6.081  0.4530  0.1186  0.5199
  132OSM   H13A14212   0.297   6.250   5.974 -0.1675  2.9977  0.4187
  132OSM   H13B14213   0.360   6.160   6.103 -1.6359 -1.3745 -0.7543
  132OSM   H13C14214   0.375   6.339   6.099  1.1137 -0.5458  1.4389
  132OSM    C1214215   0.204   6.233   6.304  1.0383  0.3904 -1.2292
  132OSM   H12A14216   0.244   6.137   6.334  0.0734  0.4474  0.3447
  132OSM   H12B14217   0.103   6.236   6.340 -1.1084 -0.4514 -6.3763
  132OSM    C1114218   0.302   6.336   6.373 -0.4570 -0.0376 -0.7124
  132OSM   H11A14219   0.299   6.301   6.478 -2.3855 -1.7029 -1.2349
  132OSM   H11B14220   0.246   6.431   6.359  1.3571  1.3290  0.8232
  132OSM      P14221   0.505   6.470   6.296  0.1288  0.0655  0.4694
  132OSM    O1314222   0.639   6.443   6.247 -0.5682 -0.1698 -0.2553
  132OSM    O1414223   0.419   6.553   6.216  0.7816  0.3459 -0.1769
  132OSM    O1114224   0.517   6.531   6.441  0.2833 -0.4488 -0.3290
  132OSM    O1214225   0.437   6.328   6.318 -0.1013 -0.1029  0.2937
  132OSM    C1S14226   0.577   6.459   6.547 -0.1414  0.2777  0.1486
  132OSM    H1S14227   0.683   6.429   6.531 -1.1310 -2.7733 -1.4712
  132OSM    H1T14228   0.517   6.366   6.559 -3.1297  1.9677 -0.6281
  132OSM     NF14229   0.673   6.448   6.777  0.0237  0.5604  0.1983
  132OSM    HNF14230   0.620   6.399   6.846 -0.9488  1.2260 -0.0517
  132OSM    C2S14231   0.586   6.531   6.687  0.0740  1.1825 -0.8022
  132OSM    H2S14232   0.630   6.627   6.655  0.8660  1.2536  0.4153
  132OSM    C3S14233   0.443   6.570   6.744 -0.4773 -0.1164  0.1274
  132OSM    H3S14234   0.398   6.473   6.771  0.7918 -0.8986 -0.5029
  132OSM     O314235   0.360   6.632   6.652 -0.9532 -0.6535 -0.5953
  132OSM    HO314236   0.383   6.594   6.567 -0.3898  1.0122 -1.2426
  132OSM    C4S14237   0.462   6.653   6.875  0.5154 -0.2066 -0.5683
  132OSM    H4S14238   0.442   6.598   6.969 -0.8073 -0.9793 -1.2580
  132OSM    C5S14239   0.478   6.785   6.885  0.4522 -0.2071 -0.3802
  132OSM    H5S14240   0.469   6.842   6.791 -2.0900  0.0700 -0.0315
  132OSM    C6S14241   0.479   6.861   7.014  0.3004  0.5705 -0.6680
  132OSM    H6S14242   0.388   6.835   7.073  1.3705  1.5134  1.5361
  132OSM    H6T14243   0.486   6.969   6.994 -2.1832  0.9635  0.2118
  132OSM    C7S14244   0.601   6.825   7.096 -0.7772 -0.3085  0.2044
  132OSM    H7S14245   0.695   6.828   7.036  0.0529 -2.8448  1.2146
  132OSM    H7T14246   0.584   6.721   7.132  0.9662 -1.1449 -1.2239
  132OSM    C8S14247   0.602   6.916   7.216  0.3740  0.7999  0.3486
  132OSM    H8S14248   0.502   6.934   7.260 -0.0997 -0.7357 -0.0403
  132OSM    H8T14249   0.656   7.009   7.187 -1.1454  0.9639 -2.2390
  132OSM    C9S14250   0.684   6.854   7.331  0.1512  0.1610 -0.5222
  132OSM    H9S14251   0.785   6.828   7.294 -0.0975 -0.3334 -0.8567
  132OSM    H9T14252   0.633   6.763   7.369 -1.4465  2.1174  2.5090
  132OSM   C10S14253   0.700   6.949   7.454  0.2447 -0.4102  0.3783
  132OSM   H10S14254   0.598   6.992   7.457  0.4173  0.1210 -0.9432
  132OSM   H10T14255   0.777   7.022   7.422  0.9873 -1.0906  0.5776
  132OSM   C11S14256   0.747   6.875   7.581 -0.1270  0.3372 -0.3985
  132OSM   H11S14257   0.836   6.811   7.563  0.1774  0.4229  0.6907
  132OSM   H11T14258   0.657   6.815   7.610  0.7069 -0.3016  0.9988
  132OSM   C12S14259   0.789   6.952   7.704 -0.4693  0.1588 -0.7208
  132OSM   H12S14260   0.721   7.033   7.737  0.6622  0.9189 -0.2102
  132OSM   H12T14261   0.885   6.994   7.668  0.8854 -2.2955 -0.1999
  132OSM   C13S14262   0.820   6.856   7.827  0.4818 -0.4564  0.3257
  132OSM   H13S14263   0.876   6.769   7.785 -0.1743 -0.2867 -0.9652
  132OSM   H13T14264   0.719   6.823   7.857  0.5011  0.4911  1.5248
  132OSM   C14S14265   0.898   6.932   7.938  0.3045  0.1009 -0.0795
  132OSM   H14S14266   0.842   7.019   7.980  0.5745  1.1901 -1.8768
  132OSM   H14T14267   0.984   6.982   7.888 -0.5001  0.8509 -0.7414
  132OSM   C15S14268   0.945   6.834   8.049 -0.2241 -0.5827 -0.4195
  132OSM   H15S14269   1.019   6.768   7.998  0.3149  0.6529 -1.2743
  132OSM   H15T14270   0.854   6.781   8.087 -0.8570 -0.0390 -1.1455
  132OSM   C16S14271   1.017   6.910   8.163  0.2915 -0.8810  0.1637
  132OSM   H16S14272   0.936   6.964   8.217 -1.5319 -1.8810 -1.4133
  132OSM   H16T14273   1.094   6.973   8.113  2.0179 -0.1038  3.5202
  132OSM   C17S14274   1.078   6.809   8.268 -0.2725  0.2089  0.0431
  132OSM   H17S14275   1.157   6.749   8.217  0.6295  0.1173  1.4782
  132OSM   H17T14276   1.004   6.740   8.313 -0.7078  1.4253  1.2709
  132OSM   C18S14277   1.139   6.891   8.384 -0.0093  0.8396 -0.0170
  132OSM   H18S14278   1.152   6.814   8.463  0.0360  0.6709 -0.1879
  132OSM   H18T14279   1.077   6.971   8.430 -1.8071 -0.9379  0.8028
  132OSM   H18U14280   1.240   6.933   8.360  0.3260 -0.2580 -0.5690
  132OSM    C1F14281   0.800   6.424   6.756 -0.1004  0.0673  0.0177
  132OSM     OF14282   0.870   6.497   6.685 -0.0428  0.4732 -0.1246
  132OSM    C2F14283   0.857   6.297   6.815 -0.2250  0.4145  0.4199
  132OSM    H2F14284   0.964   6.306   6.841  0.0255  0.6250 -0.6577
  132OSM    H2G14285   0.853   6.220   6.735 -0.8854  1.9409 -1.0945
  132OSM    C3F14286   0.767   6.236   6.929  0.3826  0.8733  0.7374
  132OSM    H3F14287   0.786   6.128   6.945 -0.3705  0.7240  0.6586
  132OSM    H3G14288   0.663   6.226   6.892 -0.2691 -0.2276  2.7132
  132OSM    C4F14289   0.781   6.311   7.064  0.8372 -1.0351  0.0285
  132OSM    H4F14290   0.799   6.416   7.034 -1.1922 -0.3095  1.1499
  132OSM    H4G14291   0.881   6.276   7.099  1.9540  1.0984 -0.8249
  132OSM    C5F14292   0.662   6.302   7.152  0.0685  0.0874  0.0022
  132OSM    H5F14293   0.646   6.195   7.178 -1.0203  0.4371  0.8537
  132OSM    H5G14294   0.577   6.336   7.089  0.4802 -0.5852 -0.9386
  132OSM    C6F14295   0.666   6.380   7.285 -0.4529 -0.1426  0.5476
  132OSM    H6F14296   0.665   6.489   7.265 -0.2760  0.2221  2.3685
  132OSM    H6G14297   0.759   6.355   7.340 -0.7723  1.2680  1.7895
  132OSM    C7F14298   0.547   6.351   7.370 -0.2051  0.2679 -0.3245
  132OSM    H7F14299   0.547   6.246   7.406 -0.7642  0.1102 -0.7878
  132OSM    H7G14300   0.461   6.358   7.301 -1.0537 -2.9742  0.2164
  132OSM    C8F14301   0.526   6.453   7.485  0.4597  0.0027  0.0863
  132OSM    H8F14302   0.424   6.427   7.523 -0.8965  1.3434 -2.4035
  132OSM    H8G14303   0.512   6.555   7.445  0.5083 -0.4512 -1.1159
  132OSM    C9F14304   0.644   6.451   7.575  0.5994  0.4776 -0.1083
  132OSM    H9F14305   0.737   6.490   7.530  1.0722 -0.5876 -0.0840
  132OSM   C10F14306   0.640   6.417   7.701 -0.3319 -0.2103 -0.2483
  132OSM   H10F14307   0.726   6.415   7.770 -0.9179 -0.1981  0.4907
  132OSM   C11F14308   0.508   6.377   7.770  0.0467 -0.2400  0.1577
  132OSM   H11F14309   0.499   6.268   7.750  0.5995  0.2956 -3.8408
  132OSM   H11G14310   0.417   6.433   7.740  1.5362  2.4416  0.3653
  132OSM   C12F14311   0.498   6.385   7.927  0.6561  0.4119 -0.8512
  132OSM   H12F14312   0.588   6.332   7.966  0.3268  0.5671  0.1560
  132OSM   H12G14313   0.406   6.346   7.974  0.7985  0.9247 -0.1185
  132OSM   C13F14314   0.508   6.535   7.970  0.7188  0.0160 -0.2968
  132OSM   H13F14315   0.427   6.595   7.923  0.2504 -0.1976  0.2342
  132OSM   H13G14316   0.606   6.568   7.928  0.8302 -1.4926 -1.3003
  132OSM   C14F14317   0.512   6.564   8.119 -0.5811  0.1709 -0.3647
  132OSM   H14F14318   0.429   6.519   8.177 -1.2366 -0.5874 -1.8153
  132OSM   H14G14319   0.489   6.672   8.129 -1.9038  0.1481 -2.5052
  132OSM   C15F14320   0.645   6.503   8.174  0.4324 -0.1546  0.4655
  132OSM   H15F14321   0.728   6.541   8.111 -0.5082 -0.6618 -1.1383
  132OSM   H15G14322   0.634   6.392   8.170  1.6156 -0.4225  2.7182
  132OSM   C16F14323   0.657   6.545   8.315 -0.8014 -0.0838  0.1627
  132OSM   H16F14324   0.568   6.520   8.377 -0.0224 -5.0070 -0.3020
  132OSM   H16G14325   0.673   6.655   8.317  0.8631 -0.2157 -2.3414
  132OSM   C17F14326   0.784   6.478   8.382 -0.0645 -0.3231 -0.2413
  132OSM   H17F14327   0.865   6.496   8.308  0.2841 -0.4968  0.0936
  132OSM   H17G14328   0.773   6.370   8.403  1.8471 -0.1407  2.2752
  132OSM   C18F14329   0.802   6.541   8.517  0.2864  0.2913 -0.1992
  132OSM   H18F14330   0.790   6.652   8.520  0.9605  0.3594  0.0206
  132OSM   H18G14331   0.905   6.538   8.558  0.1265  0.7729  0.2438
  132OSM   H18H14332   0.739   6.499   8.597  0.8294 -0.2545 -0.0536
  133OSM      N14333   0.554   0.136   6.064  0.2756 -0.1854 -0.2131
  133OSM    C1514334   0.470   0.093   5.950  0.7382  0.3382  0.1360
  133OSM   H15A14335   0.369   0.114   5.982  0.0944 -0.9128 -0.9714
  133OSM   H15B14336   0.483  -0.012   5.928  1.7262  0.1163  1.6329
  133OSM   H15C14337   0.502   0.137   5.856 -1.5662 -1.3815 -1.5746
  133OSM    C1414338   0.696   0.089   6.051  0.2803  1.3111 -0.8127
  133OSM   H14A14339   0.750   0.080   6.144  1.9590  0.4118 -1.8114
  133OSM   H14B14340   0.763   0.151   5.993 -0.3218  1.0863 -1.7813
  133OSM   H14C14341   0.691  -0.014   6.019 -3.7219  0.9396  0.4815
  133OSM    C1314342   0.553   0.285   6.074  0.3484  0.7686 -0.1403
  133OSM   H13A14343   0.590   0.330   5.983  2.2199  2.3686  1.3144
  133OSM   H13B14344   0.609   0.319   6.160  0.3073 -1.7045  0.9453
  133OSM   H13C14345   0.449   0.313   6.079 -0.0469 -0.7530  0.9561
  133OSM    C1214346   0.491   0.092   6.199  0.2211  0.4415  0.2969
  133OSM   H12A14347   0.472  -0.013   6.182  0.0128  0.8034 -1.9228
  133OSM   H12B14348   0.398   0.143   6.219  0.4023  1.3516 -1.1206
  133OSM    C1114349   0.577   0.105   6.335  0.3015  0.8879  0.8868
  133OSM   H11A14350   0.669   0.048   6.313  0.4571  1.0134  1.1993
  133OSM   H11B14351   0.528   0.058   6.423  0.4086  0.1890  0.5769
  133OSM      P14352   0.509   0.330   6.451  0.0997  0.0861  0.0411
  133OSM    O1314353   0.529   0.475   6.431  0.4046 -0.0743 -0.2155
  133OSM    O1414354   0.368   0.280   6.445 -0.1838  0.1995 -0.0755
  133OSM    O1114355   0.562   0.303   6.599 -0.0733  0.1958  0.3107
  133OSM    O1214356   0.603   0.244   6.357 -0.3205  0.1408 -0.3469
  133OSM    C1S14357   0.646   0.386   6.677  0.6922 -0.4202 -0.3039
  133OSM    H1S14358   0.579   0.452   6.737 -0.9527 -1.2350 -1.1551
  133OSM    H1T14359   0.711   0.451   6.615  2.3269 -1.8176 -0.1221
  133OSM     NF14360   0.837   0.402   6.836 -0.1187  0.2373  0.7433
  133OSM    HNF14361   0.924   0.413   6.789 -0.1988  1.9588  0.9499
  133OSM    C2S14362   0.750   0.306   6.765 -0.8515 -0.4953 -0.2966
  133OSM    H2S14363   0.690   0.248   6.837 -2.1310 -1.1591 -1.8325
  133OSM    C3S14364   0.821   0.192   6.678  0.6626 -0.0227 -1.0831
  133OSM    H3S14365   0.881   0.235   6.594  1.1420  0.3351 -0.5684
  133OSM     O314366   0.740   0.097   6.608 -0.4752  0.2555 -0.1335
  133OSM    HO314367   0.657   0.144   6.593  0.4313  2.6318  1.7357
  133OSM    C4S14368   0.924   0.135   6.769  0.1980 -0.0413  0.5209
  133OSM    H4S14369   1.021   0.186   6.764 -0.3131  1.1029  1.7047
  133OSM    C5S14370   0.905   0.026   6.852  0.6394  0.2149 -0.2077
  133OSM    H5S14371   0.804  -0.018   6.845  0.3211  0.8991  0.0250
  133OSM    C6S14372   0.996  -0.051   6.944 -0.2045 -0.2414  0.2983
  133OSM    H6S14373   1.091   0.006   6.948 -0.4964  0.2340  0.5171
  133OSM    H6T14374   1.027  -0.154   6.916  1.3909  0.5357 -0.9940
  133OSM    C7S14375   0.937  -0.053   7.092 -0.1259  0.2815 -0.2414
  133OSM    H7S14376   0.832  -0.088   7.102 -0.7476  2.5237  2.2138
  133OSM    H7T14377   0.927   0.049   7.137  1.1038 -0.5683  2.1365
  133OSM    C8S14378   1.029  -0.148   7.178 -0.0952  0.3530 -0.3691
  133OSM    H8S14379   1.134  -0.114   7.163  0.3064 -1.5550 -2.4532
  133OSM    H8T14380   1.020  -0.250   7.136 -1.7450  0.8005 -1.1664
  133OSM    C9S14381   0.977  -0.148   7.325  0.0013 -0.0133 -0.2107
  133OSM    H9S14382   0.878  -0.200   7.325  0.0241 -0.0948 -1.3119
  133OSM    H9T14383   0.969  -0.041   7.351 -1.2326  0.0593 -0.8055
  133OSM   C10S14384   1.082  -0.208   7.418  0.2558  0.5416 -0.1675
  133OSM   H10S14385   1.181  -0.158   7.424 -0.2473  1.3989  2.8122
  133OSM   H10T14386   1.105  -0.306   7.372 -0.2075  0.6732 -0.6915
  133OSM   C11S14387   1.040  -0.211   7.565 -0.1765 -0.3844  0.0261
  133OSM   H11S14388   0.949  -0.275   7.573 -1.4515  1.2108 -1.1992
  133OSM   H11T14389   1.007  -0.110   7.597  2.3084 -0.2030  2.4099
  133OSM   C12S14390   1.152  -0.251   7.662 -1.1860  0.1944  0.3345
  133OSM   H12S14391   1.248  -0.199   7.640 -1.8700  0.3136 -2.9320
  133OSM   H12T14392   1.161  -0.360   7.647 -0.5071  0.0980  1.3463
  133OSM   C13S14393   1.115  -0.233   7.813  0.4312  0.2824 -0.0789
  133OSM   H13S14394   1.020  -0.286   7.837 -0.0148  2.0872  2.6012
  133OSM   H13T14395   1.097  -0.124   7.825 -0.1871  0.0180  1.6108
  133OSM   C14S14396   1.222  -0.306   7.903  0.4828 -0.6921  0.3117
  133OSM   H14S14397   1.320  -0.258   7.879 -0.3412 -0.6868 -3.8583
  133OSM   H14T14398   1.229  -0.412   7.870  1.7336 -1.0973  1.7635
  133OSM   C15S14399   1.194  -0.302   8.054  0.0572 -0.1534  0.4144
  133OSM   H15S14400   1.093  -0.340   8.081  0.6566 -0.6685  2.0669
  133OSM   H15T14401   1.197  -0.201   8.099 -1.7425  0.8906 -1.6467
  133OSM   C16S14402   1.296  -0.386   8.134  0.1979 -0.2371  0.5492
  133OSM   H16S14403   1.392  -0.338   8.105 -0.7055  0.0891 -2.1736
  133OSM   H16T14404   1.302  -0.487   8.089  4.0489 -0.2490  0.7680
  133OSM   C17S14405   1.274  -0.370   8.285 -0.1651  0.1204  0.2205
  133OSM   H17S14406   1.171  -0.403   8.309 -0.6210  0.4454 -1.1849
  133OSM   H17T14407   1.279  -0.266   8.322 -1.0110  0.2497 -0.0172
  133OSM   C18S14408   1.375  -0.468   8.355 -0.0091  1.5660  0.5841
  133OSM   H18S14409   1.483  -0.447   8.339  0.8524  0.7151  4.3642
  133OSM   H18T14410   1.351  -0.565   8.306  0.4120  1.9733 -0.4495
  133OSM   H18U14411   1.353  -0.471   8.464 -2.5255 -1.5414  0.1495
  133OSM    C1F14412   0.809   0.485   6.933 -1.0047 -0.1580  0.0986
  133OSM     OF14413   0.695   0.514   6.968  0.4120  0.2009 -0.1032
  133OSM    C2F14414   0.932   0.533   7.001 -0.0180  0.0462 -0.5792
  133OSM    H2F14415   0.929   0.641   7.028  1.7445 -0.0584  0.1481
  133OSM    H2G14416   1.010   0.503   6.929  0.2302  0.0302 -0.3029
  133OSM    C3F14417   0.948   0.467   7.140  0.2397  0.0200 -0.7836
  133OSM    H3F14418   0.872   0.509   7.210 -0.1788 -1.0985 -0.5472
  133OSM    H3G14419   1.045   0.504   7.178 -0.1985 -0.3932  0.8110
  133OSM    C4F14420   0.950   0.313   7.150 -0.7404 -0.1337  0.1830
  133OSM    H4F14421   0.973   0.268   7.051 -0.9458  2.7284 -1.2859
  133OSM    H4G14422   0.852   0.276   7.186 -0.4108 -0.5365  0.6692
  133OSM    C5F14423   1.051   0.269   7.255  0.2745 -0.6330  0.0093
  133OSM    H5F14424   1.027   0.161   7.266 -1.7458 -0.2611 -0.3564
  133OSM    H5G14425   1.033   0.323   7.351  1.9536 -3.0073  1.7993
  133OSM    C6F14426   1.198   0.282   7.207  0.4311  0.3100 -0.0639
  133OSM    H6F14427   1.238   0.384   7.224 -0.7042  0.2091  4.8417
  133OSM    H6G14428   1.191   0.245   7.103 -1.2596  0.8573 -0.1647
  133OSM    C7F14429   1.294   0.187   7.284 -0.5322 -0.2776  0.2603
  133OSM    H7F14430   1.360   0.142   7.207 -1.5648  0.8392 -1.3575
  133OSM    H7G14431   1.231   0.101   7.317 -1.5407  0.4109  0.1688
  133OSM    C8F14432   1.358   0.244   7.409 -0.3250 -0.2400 -0.7497
  133OSM    H8F14433   1.432   0.310   7.359 -2.0005  0.5129 -2.3952
  133OSM    H8G14434   1.413   0.171   7.473 -0.6160 -0.2823 -0.5446
  133OSM    C9F14435   1.255   0.320   7.487  0.1699 -0.0550  0.3820
  133OSM    H9F14436   1.226   0.416   7.440 -1.0587  0.1328  1.4594
  133OSM   C10F14437   1.192   0.272   7.597 -0.1184 -0.0646  0.6501
  133OSM   H10F14438   1.112   0.331   7.642 -0.5335 -1.4666  1.8397
  133OSM   C11F14439   1.232   0.142   7.667  0.3457  0.3828  0.6071
  133OSM   H11F14440   1.287   0.076   7.597 -1.3443  0.2387 -0.6624
  133OSM   H11G14441   1.142   0.090   7.705 -0.6196  1.2730 -0.3682
  133OSM   C12F14442   1.311   0.189   7.788  0.0964  0.3919  0.1409
  133OSM   H12F14443   1.257   0.261   7.852  0.3265  1.9914 -1.3928
  133OSM   H12G14444   1.407   0.228   7.748  0.7404  0.8655  2.0678
  133OSM   C13F14445   1.357   0.060   7.862 -0.1294  0.3092 -0.6150
  133OSM   H13F14446   1.386  -0.009   7.780  1.0877  1.5335 -1.2590
  133OSM   H13G14447   1.267   0.021   7.914  1.4571 -2.8579 -0.0172
  133OSM   C14F14448   1.459   0.071   7.974  0.3050 -0.0372 -0.2296
  133OSM   H14F14449   1.566   0.097   7.954  0.7679 -1.6150  0.0522
  133OSM   H14G14450   1.461  -0.023   8.033  1.1916  0.2789  0.2745
  133OSM   C15F14451   1.419   0.179   8.072  0.3308 -2.1534 -0.4133
  133OSM   H15F14452   1.313   0.181   8.105  0.3488 -1.5541 -0.3873
  133OSM   H15G14453   1.435   0.273   8.014 -1.3484 -0.7735  1.2570
  133OSM   C16F14454   1.510   0.173   8.190 -0.0491 -0.4727  0.0561
  133OSM   H16F14455   1.614   0.152   8.156  0.2920 -0.1270  0.8593
  133OSM   H16G14456   1.491   0.082   8.252 -2.0298  0.5826  1.0753
  133OSM   C17F14457   1.514   0.299   8.280  0.3834  0.3048  0.2908
  133OSM   H17F14458   1.418   0.350   8.298  0.5236  1.8112 -2.6104
  133OSM   H17G14459   1.558   0.369   8.206 -1.6463 -1.0110 -2.3557
  133OSM   C18F14460   1.601   0.279   8.403 -0.0946 -0.0117 -0.5304
  133OSM   H18F14461   1.629   0.378   8.445  3.1836 -0.1058 -2.2005
  133OSM   H18G14462   1.693   0.220   8.382 -0.5675 -0.6229 -0.9253
  133OSM   H18H14463   1.541   0.235   8.486 -0.7249  1.3795 -0.2176
  134OSM      N14464   2.088   2.622   6.199 -0.4190 -0.1395  0.5422
  134OSM    C1514465   2.118   2.472   6.183  0.2285  0.2975 -0.1532
  134OSM   H15A14466   2.222   2.460   6.208 -0.2778 -0.6948  1.6253
  134OSM   H15B14467   2.111   2.444   6.079  0.3536  2.7386 -0.8806
  134OSM   H15C14468   2.048   2.412   6.240 -1.2014  0.7181 -1.3795
  134OSM    C1414469   2.174   2.692   6.100  0.1587 -0.2414  0.1420
  134OSM   H14A14470   2.140   2.793   6.083  0.7733  0.4934  2.8475
  134OSM   H14B14471   2.170   2.651   6.000 -0.9815  2.8552 -1.2278
  134OSM   H14C14472   2.278   2.704   6.127  0.1918  2.5107 -0.8939
  134OSM    C1314473   1.947   2.651   6.171 -0.6070 -0.2130 -0.1434
  134OSM   H13A14474   1.884   2.591   6.234  1.0448 -0.1231  1.7077
  134OSM   H13B14475   1.924   2.631   6.067  0.0328 -0.4060 -0.2566
  134OSM   H13C14476   1.930   2.756   6.186 -0.2168  0.0449 -1.3841
  134OSM    C1214477   2.121   2.668   6.338 -0.3341  0.0180 -0.4642
  134OSM   H12A14478   2.223   2.638   6.361 -0.7370 -2.4663 -1.5578
  134OSM   H12B14479   2.067   2.598   6.400 -0.5550 -1.8100 -2.5965
  134OSM    C1114480   2.103   2.820   6.379  0.3346  0.3560 -0.5512
  134OSM   H11A14481   2.133   2.886   6.295  0.2793 -0.3000 -1.0964
  134OSM   H11B14482   2.155   2.851   6.472 -0.2606 -1.1554  0.3346
  134OSM      P14483   1.891   2.775   6.538 -0.0348  0.0027  0.0004
  134OSM    O1314484   1.854   2.901   6.614  0.0259  0.1319  0.3432
  134OSM    O1414485   1.782   2.684   6.508  0.1794 -0.4747  0.2187
  134OSM    O1114486   2.000   2.686   6.613  0.4922 -0.6199 -0.3856
  134OSM    O1214487   1.963   2.834   6.397  0.5092 -0.1695  0.0860
  134OSM    C1S14488   2.022   2.738   6.749  0.9781 -0.3921 -0.2659
  134OSM    H1S14489   1.941   2.714   6.821 -0.1506  0.4570 -1.2213
  134OSM    H1T14490   2.042   2.847   6.759 -0.8909 -0.1453  1.6068
  134OSM     NF14491   2.176   2.743   6.945  0.3807 -0.0048 -0.2106
  134OSM    HNF14492   2.256   2.803   6.947  1.2747 -1.1721  0.6152
  134OSM    C2S14493   2.152   2.678   6.823 -0.7764 -0.3341  0.8008
  134OSM    H2S14494   2.133   2.569   6.833  0.3238 -0.5853  0.3170
  134OSM    C3S14495   2.280   2.685   6.730  0.5972  1.0528 -0.2818
  134OSM    H3S14496   2.311   2.787   6.699 -1.0133  1.0419 -2.1387
  134OSM     O314497   2.258   2.642   6.597  0.4015 -0.1727  0.3898
  134OSM    HO314498   2.162   2.634   6.592  0.3231  0.1542  1.1506
  134OSM    C4S14499   2.392   2.605   6.787 -0.2851  0.3411  1.1158
  134OSM    H4S14500   2.365   2.501   6.810  0.1703  0.4676  2.3077
  134OSM    C5S14501   2.512   2.646   6.815 -0.6398  0.1903 -0.1040
  134OSM    H5S14502   2.531   2.754   6.803 -1.0953  0.1380 -1.5630
  134OSM    C6S14503   2.622   2.556   6.864  0.1107 -0.1020 -0.5587
  134OSM    H6S14504   2.712   2.614   6.893  0.2915 -0.3899 -0.5458
  134OSM    H6T14505   2.675   2.514   6.776  1.1543 -2.7101  1.1971
  134OSM    C7S14506   2.588   2.452   6.963  0.5655 -0.2113 -0.1670
  134OSM    H7S14507   2.683   2.407   6.999  0.2960 -2.3947 -1.9348
  134OSM    H7T14508   2.522   2.376   6.915 -1.8900  0.3417  2.0753
  134OSM    C8S14509   2.526   2.509   7.087 -0.5127  0.0907 -0.6211
  134OSM    H8S14510   2.425   2.553   7.071 -1.9492 -1.8227  2.1921
  134OSM    H8T14511   2.602   2.580   7.125 -1.7193  1.2863 -0.3831
  134OSM    C9S14512   2.510   2.404   7.201 -0.2163 -0.5998 -0.0940
  134OSM    H9S14513   2.608   2.354   7.218  1.9318  3.1914 -0.2702
  134OSM    H9T14514   2.425   2.342   7.166 -1.5863  0.9679  0.3793
  134OSM   C10S14515   2.477   2.465   7.333 -0.2673 -0.2759  0.4810
  134OSM   H10S14516   2.406   2.549   7.321  1.1134  0.8003 -0.4149
  134OSM   H10T14517   2.566   2.510   7.382 -1.2058  1.8547  0.2990
  134OSM   C11S14518   2.411   2.362   7.431 -0.2205  0.4050  0.4076
  134OSM   H11S14519   2.485   2.283   7.457  0.2022  0.7620  0.3120
  134OSM   H11T14520   2.318   2.323   7.385 -0.6865  2.1206 -0.2059
  134OSM   C12S14521   2.371   2.431   7.560  0.2316 -0.5036 -0.8647
  134OSM   H12S14522   2.271   2.478   7.567 -0.5177 -1.8260 -2.0714
  134OSM   H12T14523   2.434   2.522   7.560 -0.7661  0.2925  1.8969
  134OSM   C13S14524   2.381   2.352   7.690 -0.1894 -0.2433 -0.3012
  134OSM   H13S14525   2.482   2.306   7.694 -0.8419 -1.6272  1.7592
  134OSM   H13T14526   2.294   2.283   7.689 -1.7504  1.6149 -1.2019
  134OSM   C14S14527   2.370   2.447   7.809  0.1492 -0.3285  0.2167
  134OSM   H14S14528   2.281   2.514   7.804 -1.0564 -1.8364  0.7570
  134OSM   H14T14529   2.454   2.516   7.786  0.0774 -0.1731  0.4122
  134OSM   C15S14530   2.397   2.386   7.949  1.0972 -0.4949  1.1591
  134OSM   H15S14531   2.496   2.341   7.924  2.2109  2.0518  0.6960
  134OSM   H15T14532   2.326   2.302   7.968  0.0407  0.1928  0.3304
  134OSM   C16S14533   2.412   2.487   8.067  0.3756 -0.5005 -0.0832
  134OSM   H16S14534   2.309   2.530   8.071 -0.0267 -1.4570  3.9523
  134OSM   H16T14535   2.484   2.568   8.042 -1.2901  0.3051 -2.7444
  134OSM   C17S14536   2.422   2.417   8.195 -0.6769  1.0139  0.2716
  134OSM   H17S14537   2.327   2.362   8.216 -0.4801  0.0193 -1.2369
  134OSM   H17T14538   2.441   2.497   8.269 -1.0875  0.0869  1.4084
  134OSM   C18S14539   2.531   2.321   8.194 -0.2645 -0.1908 -0.2238
  134OSM   H18S14540   2.616   2.359   8.134 -0.3219  0.3415  0.0321
  134OSM   H18T14541   2.498   2.230   8.139  2.0038 -0.2237 -1.6236
  134OSM   H18U14542   2.557   2.285   8.296  0.0451  0.7629  0.0439
  134OSM    C1F14543   2.093   2.733   7.050 -0.0236 -0.4255 -0.2304
  134OSM     OF14544   1.991   2.664   7.051 -0.1847 -0.3287  0.7892
  134OSM    C2F14545   2.124   2.824   7.167 -0.6593  0.7676  0.1184
  134OSM    H2F14546   2.055   2.912   7.161 -1.6667  0.0422  0.7775
  134OSM    H2G14547   2.231   2.853   7.159 -0.0135 -1.5139 -0.1728
  134OSM    C3F14548   2.096   2.738   7.286 -0.0499  0.4178 -0.7428
  134OSM    H3F14549   2.155   2.644   7.275  2.1714  1.2744  2.4589
  134OSM    H3G14550   1.990   2.706   7.287  0.8695 -3.0337 -0.2907
  134OSM    C4F14551   2.126   2.800   7.421 -0.6043 -0.8392 -0.2458
  134OSM    H4F14552   2.106   2.910   7.418 -1.3339 -0.7190  3.7157
  134OSM    H4G14553   2.233   2.791   7.451 -0.5322  1.5944  0.4744
  134OSM    C5F14554   2.044   2.745   7.535  0.4537 -0.5709 -0.1649
  134OSM    H5F14555   2.031   2.635   7.535 -3.5274 -0.3216  2.1075
  134OSM    H5G14556   1.944   2.792   7.532  0.4666 -0.6011 -1.6407
  134OSM    C6F14557   2.110   2.786   7.666 -0.0842 -0.1962 -0.1158
  134OSM    H6F14558   2.134   2.894   7.659 -1.4543  0.2278  1.1348
  134OSM    H6G14559   2.201   2.729   7.692 -0.7976 -0.4921  1.9078
  134OSM    C7F14560   2.013   2.757   7.787 -0.2820  0.0500 -0.1098
  134OSM    H7F14561   2.009   2.646   7.787  2.0173 -0.1028  1.9215
  134OSM    H7G14562   1.912   2.792   7.755 -0.7534 -0.8555  0.3462
  134OSM    C8F14563   2.053   2.803   7.931 -0.2624  0.2452  0.4327
  134OSM    H8F14564   2.122   2.889   7.918  0.5963 -0.5968 -0.7952
  134OSM    H8G14565   2.120   2.726   7.974 -1.7514 -0.5381  1.4454
  134OSM    C9F14566   1.947   2.824   8.033 -0.4771  0.1959  0.0975
  134OSM    H9F14567   1.850   2.847   7.987 -0.5546 -2.5079 -1.3189
  134OSM   C10F14568   1.957   2.818   8.167  1.2014  0.7181  0.3172
  134OSM   H10F14569   1.866   2.829   8.228 -0.2656 -0.9428 -1.4137
  134OSM   C11F14570   2.080   2.787   8.246  0.4158  0.2830  0.0515
  134OSM   H11F14571   2.101   2.867   8.321  0.7589  1.9863 -1.7566
  134OSM   H11G14572   2.173   2.773   8.187  2.0042  2.0028  1.9931
  134OSM   C12F14573   2.049   2.661   8.330  0.5783  0.5240  0.5071
  134OSM   H12F14574   2.035   2.577   8.260  1.0189  1.5549 -0.8697
  134OSM   H12G14575   1.953   2.677   8.384 -0.0037 -0.5962 -0.1724
  134OSM   C13F14576   2.166   2.629   8.424 -0.4065 -0.0536  0.2316
  134OSM   H13F14577   2.199   2.715   8.486 -1.2665 -1.2694  2.4556
  134OSM   H13G14578   2.254   2.589   8.370  0.0936 -0.8337  1.5891
  134OSM   C14F14579   2.131   2.530   8.539  0.1558 -0.2504  0.7367
  134OSM   H14F14580   2.078   2.442   8.497 -1.7365  2.0196 -1.9996
  134OSM   H14G14581   2.060   2.583   8.606 -1.2847 -0.9415 -0.1867
  134OSM   C15F14582   2.248   2.478   8.620  0.5146  0.8473  0.1553
  134OSM   H15F14583   2.202   2.429   8.708  2.8668  0.3436  1.2034
  134OSM   H15G14584   2.314   2.548   8.675  3.7495 -2.0727  0.3635
  134OSM   C16F14585   2.338   2.383   8.551 -0.8592 -0.2466  0.2492
  134OSM   H16F14586   2.432   2.376   8.610 -0.6492  5.3344  1.1272
  134OSM   H16G14587   2.350   2.417   8.445 -1.9971 -2.0905 -0.5116
  134OSM   C17F14588   2.279   2.245   8.542 -0.0759  0.1341  0.7431
  134OSM   H17F14589   2.317   2.202   8.447 -0.3136 -0.3489  0.8609
  134OSM   H17G14590   2.168   2.247   8.542 -0.0648  1.5728  1.2167
  134OSM   C18F14591   2.327   2.151   8.661  0.2889  0.3752 -0.4668
  134OSM   H18F14592   2.284   2.051   8.640 -3.9354  2.6015 -4.4624
  134OSM   H18G14593   2.293   2.192   8.758 -0.3182 -0.5086 -0.2994
  134OSM   H18H14594   2.437   2.137   8.650  0.1304 -0.1451 -1.5578
  135OSM      N14595   1.158   2.500   6.582 -0.2223 -0.0134  0.3848
  135OSM    C1514596   1.217   2.418   6.471  0.6713  0.0026  0.7745
  135OSM   H15A14597   1.324   2.411   6.465  0.5474 -2.9663  0.2692
  135OSM   H15B14598   1.168   2.448   6.380  2.4532 -0.3811 -0.3609
  135OSM   H15C14599   1.193   2.314   6.488  1.0539 -1.0132 -3.6227
  135OSM    C1414600   1.194   2.637   6.553 -0.1562  0.1646 -0.5088
  135OSM   H14A14601   1.301   2.644   6.539 -0.0901  2.2471  0.7277
  135OSM   H14B14602   1.161   2.706   6.629  2.0584 -0.9555  1.6078
  135OSM   H14C14603   1.144   2.665   6.461 -1.6394  3.0160  1.0373
  135OSM    C1314604   1.003   2.495   6.567  0.3676 -0.0296 -0.3707
  135OSM   H13A14605   0.970   2.544   6.658  1.7924 -2.4418  1.5769
  135OSM   H13B14606   0.961   2.396   6.557  0.3168  0.0284 -0.7139
  135OSM   H13C14607   0.966   2.548   6.481 -1.4094 -0.1090  0.3133
  135OSM    C1214608   1.207   2.453   6.719  0.2286 -0.1771  0.9879
  135OSM   H12A14609   1.164   2.356   6.740 -0.2985 -0.8857 -2.6283
  135OSM   H12B14610   1.159   2.511   6.797 -0.9572  0.3642 -0.0979
  135OSM    C1114611   1.357   2.450   6.736 -0.0101  0.4818  0.2600
  135OSM   H11A14612   1.381   2.442   6.844 -1.2513 -1.3292  0.4437
  135OSM   H11B14613   1.409   2.540   6.697  2.7012 -1.1809 -0.1895
  135OSM      P14614   1.530   2.283   6.624 -0.0343 -0.1608 -0.4066
  135OSM    O1314615   1.528   2.140   6.605  0.7677  0.0101  0.2663
  135OSM    O1414616   1.553   2.362   6.497  0.6162 -0.0160  0.9186
  135OSM    O1114617   1.640   2.326   6.729  0.3047  0.3125  0.5882
  135OSM    O1214618   1.396   2.329   6.680 -0.2536 -0.1695  0.1239
  135OSM    C1S14619   1.696   2.453   6.756 -0.1942 -0.2060  0.4573
  135OSM    H1S14620   1.629   2.528   6.709 -1.8899 -2.1360 -0.3715
  135OSM    H1T14621   1.794   2.443   6.703  0.5370  0.0283  1.7229
  135OSM     NF14622   1.727   2.615   6.940  0.2147 -0.2337 -0.1110
  135OSM    HNF14623   1.816   2.635   6.980  0.3039 -1.5648  0.4187
  135OSM    C2S14624   1.705   2.471   6.912  0.0906 -1.0094 -0.3296
  135OSM    H2S14625   1.606   2.443   6.955 -1.1815  1.3642 -1.5192
  135OSM    C3S14626   1.814   2.379   6.967  0.1569 -0.6665  0.2857
  135OSM    H3S14627   1.915   2.420   6.945 -0.3991  0.6921  0.1883
  135OSM     O314628   1.796   2.249   6.916  0.3533 -0.0180 -0.5276
  135OSM    HO314629   1.714   2.257   6.867 -1.1517 -1.3228  1.6628
  135OSM    C4S14630   1.805   2.369   7.117  0.1508 -0.0057  0.0138
  135OSM    H4S14631   1.874   2.438   7.168  1.4034 -1.8202  0.8617
  135OSM    C5S14632   1.731   2.285   7.195  0.6407  0.4702  0.3212
  135OSM    H5S14633   1.661   2.218   7.144  0.7007  2.3580 -2.4918
  135OSM    C6S14634   1.733   2.286   7.348 -0.1897 -0.1846  0.2773
  135OSM    H6S14635   1.707   2.187   7.391 -0.5538  0.8811  2.6973
  135OSM    H6T14636   1.649   2.353   7.375  0.9906  0.9343  1.3093
  135OSM    C7S14637   1.854   2.336   7.431  0.6784 -0.0018  0.3539
  135OSM    H7S14638   1.861   2.445   7.407  1.3066 -0.5229 -2.0471
  135OSM    H7T14639   1.949   2.286   7.403  0.6276  0.5658 -0.9216
  135OSM    C8S14640   1.831   2.312   7.580  0.5167  0.0262 -0.1509
  135OSM    H8S14641   1.836   2.203   7.601 -0.0277  0.2462  1.2688
  135OSM    H8T14642   1.737   2.355   7.622  0.7026 -0.1171  0.4221
  135OSM    C9S14643   1.930   2.377   7.673  0.5292 -0.0101  0.3163
  135OSM    H9S14644   1.910   2.486   7.673  2.0966  0.3135 -0.4318
  135OSM    H9T14645   2.037   2.362   7.645  0.9783  0.1806  1.8288
  135OSM   C10S14646   1.916   2.319   7.822  0.1213  0.1344  0.2639
  135OSM   H10S14647   1.949   2.213   7.823 -0.5426 -0.1056 -1.3159
  135OSM   H10T14648   1.808   2.321   7.846 -0.3667 -1.1719 -1.6363
  135OSM   C11S14649   1.995   2.398   7.925 -0.2410 -0.1311 -0.1488
  135OSM   H11S14650   1.944   2.492   7.952  1.5179  0.1678  2.4377
  135OSM   H11T14651   2.094   2.418   7.878 -0.8701  0.7430 -1.1559
  135OSM   C12S14652   2.014   2.308   8.047 -0.2868 -0.6330  0.3849
  135OSM   H12S14653   2.088   2.362   8.110 -1.6355 -0.8656  2.2676
  135OSM   H12T14654   2.068   2.218   8.014 -1.1204 -0.5649 -1.2870
  135OSM   C13S14655   1.888   2.263   8.129 -1.0312  0.1054 -0.1411
  135OSM   H13S14656   1.844   2.173   8.081  1.2685 -1.5601  0.6740
  135OSM   H13T14657   1.818   2.349   8.141  1.2463  1.9387  0.7269
  135OSM   C14S14658   1.922   2.215   8.274 -0.7264 -0.4913  0.3349
  135OSM   H14S14659   2.028   2.247   8.285 -0.4898 -0.4168 -1.7956
  135OSM   H14T14660   1.921   2.105   8.261 -0.2566 -0.5412  0.6792
  135OSM   C15S14661   1.815   2.262   8.375  0.0706 -0.3146  0.2813
  135OSM   H15S14662   1.711   2.233   8.349 -0.6224  1.9040  0.3620
  135OSM   H15T14663   1.816   2.371   8.353  0.2666 -0.3425  0.1494
  135OSM   C16S14664   1.838   2.226   8.526 -0.0388 -0.2719  0.6629
  135OSM   H16S14665   1.744   2.234   8.583 -0.0423 -1.6855  0.8869
  135OSM   H16T14666   1.916   2.288   8.575 -0.9709  0.2092  1.5594
  135OSM   C17S14667   1.871   2.071   8.550 -0.8518 -0.1723  0.3904
  135OSM   H17S14668   1.870   2.048   8.659  0.1136 -1.9769  0.0668
  135OSM   H17T14669   1.973   2.045   8.516  0.7310  1.7336  3.3029
  135OSM   C18S14670   1.764   1.990   8.475 -0.5864  0.6722  0.7960
  135OSM   H18S14671   1.757   1.885   8.510 -2.5644  0.4625 -0.0932
  135OSM   H18T14672   1.792   1.983   8.367 -1.0260  0.0531  0.7153
  135OSM   H18U14673   1.663   2.037   8.478 -0.2332  1.8679 -2.3581
  135OSM    C1F14674   1.641   2.712   6.922  0.3696 -0.1001  1.3192
  135OSM     OF14675   1.529   2.691   6.879 -0.3317  0.5708 -0.7248
  135OSM    C2F14676   1.685   2.857   6.945  0.4035 -0.5290  0.7374
  135OSM    H2F14677   1.592   2.916   6.926  0.7213 -0.2614 -0.0353
  135OSM    H2G14678   1.764   2.881   6.871 -1.1184  0.7862 -0.5550
  135OSM    C3F14679   1.721   2.871   7.095  0.3420  0.2655  0.0596
  135OSM    H3F14680   1.822   2.827   7.111 -0.3957 -1.8844 -0.8018
  135OSM    H3G14681   1.648   2.813   7.155  2.1347  0.6275  2.7688
  135OSM    C4F14682   1.708   3.010   7.154 -0.0572 -0.3962  0.2996
  135OSM    H4F14683   1.605   3.050   7.144  0.0154 -0.3977 -0.5235
  135OSM    H4G14684   1.770   3.084   7.100 -1.3959  1.2561  0.9514
  135OSM    C5F14685   1.743   3.018   7.307  0.5558  0.2067 -0.0809
  135OSM    H5F14686   1.840   2.970   7.332  0.8441  0.5737 -0.4912
  135OSM    H5G14687   1.664   2.955   7.354 -0.0222  0.7567 -0.2983
  135OSM    C6F14688   1.735   3.158   7.367 -0.2173 -0.0876  0.2483
  135OSM    H6F14689   1.629   3.189   7.371 -0.9088 -2.3418  0.2543
  135OSM    H6G14690   1.804   3.219   7.304 -0.3089 -1.9700 -1.7881
  135OSM    C7F14691   1.796   3.152   7.514 -0.1179  0.0457  0.0424
  135OSM    H7F14692   1.813   3.254   7.555  1.1166 -0.5655  1.1306
  135OSM    H7G14693   1.888   3.089   7.516 -0.6645 -0.7661 -0.0080
  135OSM    C8F14694   1.696   3.081   7.603 -0.8634  0.3987  0.1950
  135OSM    H8F14695   1.644   2.995   7.557  0.0925 -0.0442 -0.0689
  135OSM    H8G14696   1.621   3.163   7.611 -0.3582  1.0417 -1.2677
  135OSM    C9F14697   1.771   3.052   7.736  0.1645 -0.5099  0.0502
  135OSM    H9F14698   1.837   2.965   7.746 -0.1220 -0.6541  0.6829
  135OSM   C10F14699   1.767   3.128   7.849 -0.0819 -0.6567  0.1319
  135OSM   H10F14700   1.821   3.091   7.937 -0.4634  1.3897  1.2904
  135OSM   C11F14701   1.686   3.249   7.878  0.2243  0.6326  0.6765
  135OSM   H11F14702   1.599   3.212   7.937 -3.0369  3.0069 -2.2519
  135OSM   H11G14703   1.653   3.282   7.778  1.0332 -0.6081 -0.0328
  135OSM   C12F14704   1.759   3.361   7.954  0.3041  0.3243  0.7638
  135OSM   H12F14705   1.695   3.448   7.978 -0.4843 -0.2126  0.6640
  135OSM   H12G14706   1.844   3.411   7.903  1.0165  1.0278  2.5424
  135OSM   C13F14707   1.809   3.313   8.091  0.2250  0.3412 -0.2901
  135OSM   H13F14708   1.886   3.235   8.070 -0.0180  0.0210  0.0041
  135OSM   H13G14709   1.722   3.263   8.139  0.0060  1.0226  0.0401
  135OSM   C14F14710   1.867   3.433   8.179 -0.2947 -0.2019  0.4912
  135OSM   H14F14711   1.788   3.510   8.189  0.8487  0.9288  1.0903
  135OSM   H14G14712   1.944   3.490   8.124  0.6683 -0.0929  1.9011
  135OSM   C15F14713   1.929   3.398   8.308  0.8190  0.3485 -0.1326
  135OSM   H15F14714   2.029   3.354   8.292  1.6128  1.2080  2.0293
  135OSM   H15G14715   1.867   3.328   8.368  1.2869 -0.1878 -0.2796
  135OSM   C16F14716   1.951   3.517   8.397 -0.4722 -0.3742  0.2661
  135OSM   H16F14717   1.861   3.582   8.387  0.6772  1.2209 -0.1548
  135OSM   H16G14718   2.035   3.573   8.351 -0.5576 -1.1916 -0.9374
  135OSM   C17F14719   1.966   3.491   8.538  0.3494 -0.1950 -0.4100
  135OSM   H17F14720   1.872   3.440   8.566 -0.2497  0.4527 -1.2240
  135OSM   H17G14721   1.976   3.582   8.602 -0.1223  0.4548 -1.2367
  135OSM   C18F14722   2.091   3.403   8.570  0.0076  0.1959 -0.4617
  135OSM   H18F14723   2.107   3.396   8.680  0.1576  0.3597 -0.4740
  135OSM   H18G14724   2.185   3.439   8.524 -0.0874 -0.1914 -0.9711
  135OSM   H18H14725   2.085   3.301   8.526 -0.9504  0.4994 -1.0696
  136OSM      N14726   6.647   3.699   6.030  0.4340 -0.3551 -0.8854
  136OSM    C1514727   6.753   3.781   5.953  0.0191  0.6122 -0.0802
  136OSM   H15A14728   6.709   3.872   5.915 -0.4424  0.3918 -0.0760
  136OSM   H15B14729   6.785   3.734   5.861 -0.1343  1.6668 -0.6833
  136OSM   H15C14730   6.846   3.795   6.005  2.1979  1.2234 -3.7950
  136OSM    C1414731   6.522   3.683   5.945  0.1782  0.3924 -0.0815
  136OSM   H14A14732   6.485   3.774   5.900 -1.0896  0.3570  0.8029
  136OSM   H14B14733   6.439   3.655   6.009  1.6997  1.0810  2.3694
  136OSM   H14C14734   6.551   3.620   5.863  2.1711  0.8452  0.2325
  136OSM    C1314735   6.710   3.564   6.062  0.6546  0.2605  0.3316
  136OSM   H13A14736   6.740   3.512   5.973  1.7008  1.4267 -0.0147
  136OSM   H13B14737   6.636   3.500   6.108 -0.7834  0.9769 -0.9192
  136OSM   H13C14738   6.791   3.565   6.133  0.6127 -0.9052  0.4220
  136OSM    C1214739   6.608   3.769   6.155  0.6808  0.3269 -0.5307
  136OSM   H12A14740   6.531   3.714   6.208  2.9097 -1.3477  1.1979
  136OSM   H12B14741   6.561   3.861   6.124  1.4595  0.7766 -0.4021
  136OSM    C1114742   6.721   3.802   6.250 -0.8832  0.1167  0.1852
  136OSM   H11A14743   6.669   3.853   6.334 -1.2164  1.1502 -0.6250
  136OSM   H11B14744   6.782   3.873   6.191 -0.3536 -0.2306  0.3110
  136OSM      P14745   6.959   3.695   6.310  0.5624  0.1026 -0.0636
  136OSM    O1314746   7.025   3.565   6.272  0.7729 -0.2225  0.4603
  136OSM    O1414747   7.013   3.821   6.257  0.3268  0.2269 -0.4196
  136OSM    O1114748   6.979   3.719   6.462  0.3170 -0.1498 -0.0992
  136OSM    O1214749   6.804   3.684   6.289 -0.1179 -0.8347  0.1055
  136OSM    C1S14750   6.930   3.629   6.561 -0.1103  0.4494  0.6259
  136OSM    H1S14751   7.007   3.552   6.583 -1.3817 -1.4549 -1.1865
  136OSM    H1T14752   6.842   3.575   6.520 -0.8125  2.4001 -0.5991
  136OSM     NF14753   6.812   3.587   6.775 -0.2380 -0.5311  0.5137
  136OSM    HNF14754   6.713   3.584   6.787 -0.4858  2.2036 -0.0174
  136OSM    C2S14755   6.871   3.697   6.693 -0.7553 -0.3231 -0.3872
  136OSM    H2S14756   6.948   3.745   6.758 -0.0713  1.1283 -2.1954
  136OSM    C3S14757   6.770   3.806   6.655 -0.2446 -0.2388  0.0909
  136OSM    H3S14758   6.693   3.765   6.587  2.4399 -3.2850 -1.4156
  136OSM     O314759   6.832   3.915   6.583 -0.3386 -0.5097 -0.0422
  136OSM    HO314760   6.915   3.883   6.546 -0.7567 -0.1930 -1.2980
  136OSM    C4S14761   6.709   3.845   6.785 -0.1218  0.2759  0.0437
  136OSM    H4S14762   6.625   3.778   6.807  0.1006 -0.3681 -1.0024
  136OSM    C5S14763   6.716   3.956   6.852  0.0334 -0.3279 -0.4153
  136OSM    H5S14764   6.764   4.046   6.812  0.6350 -1.2090 -1.7258
  136OSM    C6S14765   6.639   3.967   6.983 -0.4477 -0.0229 -1.0320
  136OSM    H6S14766   6.563   3.890   7.008 -0.3139 -0.2917 -1.4287
  136OSM    H6T14767   6.581   4.061   6.982 -0.6686 -0.1188  0.4620
  136OSM    C7S14768   6.736   3.961   7.106 -1.0376  0.3269  0.8383
  136OSM    H7S14769   6.810   4.042   7.088  0.2957 -1.1767 -0.7500
  136OSM    H7T14770   6.776   3.858   7.105  2.2485  1.5058  0.7560
  136OSM    C8S14771   6.677   3.984   7.240  0.2545 -0.9838  0.1068
  136OSM    H8S14772   6.599   3.907   7.257 -0.7302  0.1990  1.1714
  136OSM    H8T14773   6.633   4.086   7.240  2.7826  0.2281  1.5728
  136OSM    C9S14774   6.767   3.972   7.361  0.3981 -0.2763 -0.9710
  136OSM    H9S14775   6.858   4.036   7.364 -1.3396  2.2545  0.6078
  136OSM    H9T14776   6.790   3.864   7.379 -1.3592 -0.4101  0.7765
  136OSM   C10S14777   6.679   4.007   7.481 -0.3214  0.0695 -0.2845
  136OSM   H10S14778   6.579   3.961   7.469  1.4540 -4.5296  0.4673
  136OSM   H10T14779   6.678   4.118   7.484 -1.1475  0.1169 -1.5036
  136OSM   C11S14780   6.719   3.952   7.617 -0.5353 -0.0276 -0.0686
  136OSM   H11S14781   6.816   4.001   7.642  0.1785 -1.2127 -0.4761
  136OSM   H11T14782   6.739   3.844   7.606  1.0326  0.2611 -0.3028
  136OSM   C12S14783   6.607   3.963   7.725  0.8737 -0.1077  0.5595
  136OSM   H12S14784   6.520   3.900   7.697  1.4337 -0.2603 -0.8999
  136OSM   H12T14785   6.577   4.070   7.736  1.5284  0.1166  0.1606
  136OSM   C13S14786   6.654   3.915   7.870  0.5587 -0.0964 -0.2893
  136OSM   H13S14787   6.742   3.976   7.897  1.3772 -1.8611  1.2371
  136OSM   H13T14788   6.691   3.811   7.860  1.3813  0.2535 -0.9325
  136OSM   C14S14789   6.551   3.909   7.991 -0.3648  0.0014 -1.0019
  136OSM   H14S14790   6.476   3.830   7.968 -1.2650 -0.3940  2.7788
  136OSM   H14T14791   6.506   4.010   7.997 -2.6315 -0.9949  0.0434
  136OSM   C15S14792   6.615   3.868   8.123 -0.7479  0.5077  0.0333
  136OSM   H15S14793   6.695   3.936   8.158 -1.8821  1.2733  1.2505
  136OSM   H15T14794   6.667   3.771   8.113  0.8113  1.3126  0.0662
  136OSM   C16S14795   6.513   3.855   8.233  0.2947 -0.3195 -0.6893
  136OSM   H16S14796   6.434   3.781   8.211 -1.1858  1.2729 -0.9843
  136OSM   H16T14797   6.454   3.948   8.248  0.1271 -0.5185 -0.0801
  136OSM   C17S14798   6.575   3.839   8.378 -0.3455  0.3315  0.1447
  136OSM   H17S14799   6.645   3.925   8.375  0.5053 -0.2126  2.3517
  136OSM   H17T14800   6.643   3.752   8.390 -0.7711  0.3065  3.3567
  136OSM   C18S14801   6.477   3.853   8.491  0.9974 -0.2715 -0.5102
  136OSM   H18S14802   6.382   3.796   8.485  0.5772  0.4290 -0.6450
  136OSM   H18T14803   6.433   3.955   8.500 -0.4495 -0.7602 -1.5457
  136OSM   H18U14804   6.519   3.821   8.588  0.6559 -2.3211 -1.0019
  136OSM    C1F14805   6.883   3.491   6.825  0.9131 -0.3721  0.5507
  136OSM     OF14806   7.000   3.470   6.800  0.1442  0.7777 -0.1519
  136OSM    C2F14807   6.811   3.398   6.921  0.2232 -0.2416  0.0580
  136OSM    H2F14808   6.725   3.354   6.866  0.8539 -1.9884  0.4014
  136OSM    H2G14809   6.782   3.437   7.021  4.2291  0.2793  1.2015
  136OSM    C3F14810   6.900   3.274   6.959  1.0652 -0.9383  0.5576
  136OSM    H3F14811   6.960   3.246   6.869  0.6778 -0.1176  0.0349
  136OSM    H3G14812   6.828   3.190   6.975 -0.9276  0.4191 -0.8561
  136OSM    C4F14813   6.992   3.288   7.076 -0.0182 -0.2243 -0.0618
  136OSM    H4F14814   7.063   3.371   7.055 -2.6505  1.7210 -1.7608
  136OSM    H4G14815   7.047   3.191   7.078 -0.7627 -0.6320  1.8219
  136OSM    C5F14816   6.917   3.306   7.203  0.0594 -0.0161  0.4259
  136OSM    H5F14817   6.838   3.228   7.206  1.8609 -1.9074  0.9269
  136OSM    H5G14818   6.854   3.398   7.203 -0.0687 -0.0623 -1.6842
  136OSM    C6F14819   6.995   3.308   7.337  0.8789 -0.3414 -0.2579
  136OSM    H6F14820   7.063   3.396   7.344 -1.5413  1.6071  0.2710
  136OSM    H6G14821   7.051   3.213   7.345 -0.9915 -1.6970 -2.4136
  136OSM    C7F14822   6.900   3.341   7.461 -0.0732  0.2331 -0.5564
  136OSM    H7F14823   6.841   3.247   7.465  3.9102 -2.5340 -0.7433
  136OSM    H7G14824   6.830   3.426   7.445  1.4563  1.7678  0.5376
  136OSM    C8F14825   6.975   3.360   7.590 -0.1510 -0.5750 -1.1207
  136OSM    H8F14826   7.046   3.444   7.583  0.3290 -0.9140 -0.4286
  136OSM    H8G14827   7.033   3.268   7.613  2.5923  1.2065 -0.4826
  136OSM    C9F14828   6.877   3.371   7.709  0.0912 -0.2243 -0.3911
  136OSM    H9F14829   6.798   3.294   7.709 -0.8097  0.6710 -1.5152
  136OSM   C10F14830   6.879   3.474   7.795 -0.5357 -0.6309  0.2583
  136OSM   H10F14831   6.805   3.489   7.875  2.5198  0.7188  3.0605
  136OSM   C11F14832   6.978   3.588   7.795  0.7571 -0.6187  0.7081
  136OSM   H11F14833   6.936   3.666   7.728 -0.1531  1.5801  3.6382
  136OSM   H11G14834   7.073   3.553   7.750  0.0751 -1.3776 -0.1783
  136OSM   C12F14835   6.988   3.637   7.940 -0.4915 -0.3621 -0.2380
  136OSM   H12F14836   7.026   3.551   8.001  0.5641  1.6655  2.1279
  136OSM   H12G14837   6.888   3.663   7.982  0.7520 -1.2235  3.7105
  136OSM   C13F14838   7.078   3.755   7.954 -0.6668  0.5239 -0.0850
  136OSM   H13F14839   7.021   3.845   7.921  0.3836  1.8112  1.4517
  136OSM   H13G14840   7.159   3.755   7.877  0.8576 -2.5846  1.3762
  136OSM   C14F14841   7.130   3.774   8.096 -0.7619 -0.5769 -0.6448
  136OSM   H14F14842   7.183   3.677   8.105 -0.3224 -0.4037 -1.3283
  136OSM   H14G14843   7.057   3.778   8.180  0.1628 -0.0772  0.1634
  136OSM   C15F14844   7.217   3.897   8.113 -0.3136 -0.2719 -0.4329
  136OSM   H15F14845   7.270   3.918   8.017  0.7256  1.1602  0.4125
  136OSM   H15G14846   7.298   3.869   8.183 -1.9975 -1.8066  1.0180
  136OSM   C16F14847   7.148   4.025   8.147 -1.4505 -0.2844 -0.2701
  136OSM   H16F14848   7.123   4.023   8.255  0.9000  1.6800  0.3864
  136OSM   H16G14849   7.061   4.036   8.079 -1.5320  1.3188  0.0594
  136OSM   C17F14850   7.240   4.142   8.132 -0.0788  0.2053  0.5242
  136OSM   H17F14851   7.293   4.149   8.035  1.7968  0.9675  1.5493
  136OSM   H17G14852   7.318   4.119   8.208  2.1789  0.7284 -1.5281
  136OSM   C18F14853   7.178   4.278   8.155 -0.0577 -0.0867 -0.1204
  136OSM   H18F14854   7.096   4.287   8.080 -0.0352  0.3858 -0.0886
  136OSM   H18G14855   7.243   4.365   8.134 -2.6575  2.3507  1.2770
  136OSM   H18H14856   7.141   4.291   8.258 -1.9463  2.3718 -1.0302
  137OSM      N14857   5.131   1.901   6.373  0.1274 -0.2773  0.2866
  137OSM    C1514858   5.176   2.003   6.473  0.3034  0.7062 -0.4569
  137OSM   H15A14859   5.253   1.974   6.542 -2.2631  0.6409  2.5958
  137OSM   H15B14860   5.094   2.046   6.529 -1.6170 -0.2538 -2.3528
  137OSM   H15C14861   5.223   2.083   6.418  0.4661  0.5529 -0.5432
  137OSM    C1414862   5.075   1.972   6.251 -0.0985  0.1481  0.0618
  137OSM   H14A14863   4.989   2.034   6.274  0.3417  0.3066  1.3340
  137OSM   H14B14864   5.039   1.902   6.176 -1.1548  0.7434 -0.0186
  137OSM   H14C14865   5.148   2.038   6.206  0.7948 -1.2338 -0.5797
  137OSM    C1314866   5.252   1.817   6.339 -0.0828  0.2626  0.1328
  137OSM   H13A14867   5.256   1.734   6.408  0.4919  0.6529  0.5683
  137OSM   H13B14868   5.337   1.879   6.363  0.8541 -0.1542 -1.8781
  137OSM   H13C14869   5.253   1.768   6.243 -1.6183 -2.5937  1.4398
  137OSM    C1214870   5.028   1.807   6.440 -0.8556 -0.2697  0.0324
  137OSM   H12A14871   5.069   1.766   6.531 -1.2601 -2.3190 -0.6767
  137OSM   H12B14872   4.998   1.726   6.376 -0.4019  0.3467 -0.9941
  137OSM    C1114873   4.880   1.864   6.462 -0.7904 -0.4358  0.2116
  137OSM   H11A14874   4.838   1.871   6.359 -1.3128  0.1934  0.4580
  137OSM   H11B14875   4.897   1.962   6.512  2.7236 -1.8650  2.1243
  137OSM      P14876   4.760   1.636   6.472 -0.4375  0.3817 -0.1966
  137OSM    O1314877   4.625   1.654   6.425  0.2582 -0.2428 -0.0352
  137OSM    O1414878   4.858   1.593   6.364  0.6123  0.5557 -0.0196
  137OSM    O1114879   4.770   1.530   6.592 -0.4703 -0.2507  0.1851
  137OSM    O1214880   4.818   1.766   6.539 -0.3241  0.4287 -0.0157
  137OSM    C1S14881   4.754   1.552   6.732 -0.1197  0.2704  0.1835
  137OSM    H1S14882   4.806   1.643   6.770 -1.2389  1.1108 -0.2772
  137OSM    H1T14883   4.796   1.466   6.790 -0.9709 -0.2204  0.0797
  137OSM     NF14884   4.584   1.576   6.906  0.4884  0.2807  0.6176
  137OSM    HNF14885   4.562   1.508   6.974  1.0393  0.5278  1.0497
  137OSM    C2S14886   4.608   1.532   6.774 -0.1994 -0.6109  0.2344
  137OSM    H2S14887   4.546   1.589   6.701  1.1056 -0.1830 -0.5890
  137OSM    C3S14888   4.575   1.381   6.763  0.4608  0.0902 -0.4209
  137OSM    H3S14889   4.640   1.323   6.833  0.2941 -2.6891 -2.3994
  137OSM     O314890   4.602   1.329   6.632  0.1946 -0.1306  0.5427
  137OSM    HO314891   4.660   1.395   6.593  0.2222 -1.1410 -1.2249
  137OSM    C4S14892   4.433   1.352   6.802  0.6371  0.6441  0.4795
  137OSM    H4S14893   4.420   1.341   6.911 -0.5578 -2.1215  0.1467
  137OSM    C5S14894   4.323   1.347   6.718  0.4384 -0.3836  0.2974
  137OSM    H5S14895   4.339   1.368   6.612  1.0162 -1.5295  0.1322
  137OSM    C6S14896   4.182   1.323   6.767 -0.1455  0.8363 -0.5537
  137OSM    H6S14897   4.134   1.230   6.730  4.6155 -1.9170 -0.5693
  137OSM    H6T14898   4.128   1.410   6.724  2.2593  1.5472 -2.3477
  137OSM    C7S14899   4.166   1.304   6.924  0.4175 -0.2367  0.4027
  137OSM    H7S14900   4.190   1.396   6.982 -2.2567  3.0067 -3.1886
  137OSM    H7T14901   4.223   1.215   6.960  0.4205 -0.5294 -0.3150
  137OSM    C8S14902   4.024   1.259   6.965 -0.3652  0.2487  0.0480
  137OSM    H8S14903   3.992   1.169   6.909  0.7777  0.0762 -0.3538
  137OSM    H8T14904   3.960   1.349   6.947 -0.0468 -0.0356 -3.1273
  137OSM    C9S14905   4.029   1.213   7.113 -0.4562  0.2004  0.4033
  137OSM    H9S14906   4.086   1.292   7.167 -2.6896  0.9304  1.8398
  137OSM    H9T14907   4.094   1.123   7.127 -0.8195 -0.2285 -0.6295
  137OSM   C10S14908   3.894   1.199   7.184 -0.5742  0.2139 -0.4667
  137OSM   H10S14909   3.818   1.187   7.104 -1.0231  0.4166 -0.0719
  137OSM   H10T14910   3.858   1.292   7.233 -1.5797 -1.1517  1.5399
  137OSM   C11S14911   3.898   1.072   7.282  0.4965  0.3404 -0.0801
  137OSM   H11S14912   3.982   1.089   7.353  1.3222 -4.7529  0.4903
  137OSM   H11T14913   3.932   0.987   7.220 -0.3854  2.0763 -3.1788
  137OSM   C12S14914   3.768   1.038   7.351  0.5755 -0.0049  0.5374
  137OSM   H12S14915   3.691   1.018   7.273  0.8992  1.3549 -0.1616
  137OSM   H12T14916   3.733   1.132   7.398 -0.1266  0.2970 -0.5493
  137OSM   C13S14917   3.781   0.931   7.460  0.0645 -0.5734  0.2536
  137OSM   H13S14918   3.798   0.830   7.418 -1.1457 -0.1672 -1.3267
  137OSM   H13T14919   3.685   0.919   7.515 -0.7233 -0.1530 -0.9929
  137OSM   C14S14920   3.887   0.949   7.575  0.1497 -0.3662 -0.2776
  137OSM   H14S14921   3.842   1.033   7.632 -2.1239 -1.2003 -0.7567
  137OSM   H14T14922   3.977   0.995   7.528 -0.5934  1.0533 -0.3582
  137OSM   C15S14923   3.916   0.827   7.657  0.2157  0.9946  0.7278
  137OSM   H15S14924   4.017   0.835   7.702  0.3532  3.6871  0.1091
  137OSM   H15T14925   3.927   0.748   7.580  0.6733  0.2407  1.5443
  137OSM   C16S14926   3.807   0.790   7.753  0.4661  0.2010 -0.4200
  137OSM   H16S14927   3.829   0.686   7.782  0.1781  0.0122 -0.8652
  137OSM   H16T14928   3.708   0.776   7.704  0.8008 -0.8048 -0.8254
  137OSM   C17S14929   3.809   0.868   7.888  0.9013  0.0529  0.1855
  137OSM   H17S14930   3.807   0.976   7.864  3.3835 -0.2607 -1.8540
  137OSM   H17T14931   3.910   0.859   7.932  0.8581 -0.9300  0.1061
  137OSM   C18S14932   3.708   0.815   7.990  0.5964 -0.1463 -0.8748
  137OSM   H18S14933   3.700   0.704   7.991  1.2120 -0.1881 -0.7186
  137OSM   H18T14934   3.605   0.858   7.982 -0.7998 -3.1774 -0.7034
  137OSM   H18U14935   3.747   0.857   8.085 -1.1259  0.9985 -0.6249
  137OSM    C1F14936   4.604   1.695   6.953  0.9124 -0.8045  0.1512
  137OSM     OF14937   4.608   1.794   6.878 -0.1023 -0.0530 -0.3589
  137OSM    C2F14938   4.628   1.701   7.098  0.0667  0.6047 -0.0602
  137OSM    H2F14939   4.561   1.640   7.162 -0.7534  2.4064  0.8932
  137OSM    H2G14940   4.610   1.809   7.120 -0.8285  0.7011 -1.1780
  137OSM    C3F14941   4.774   1.655   7.118 -0.0538 -0.1659  1.0566
  137OSM    H3F14942   4.837   1.717   7.051 -0.6894 -0.0161  0.5936
  137OSM    H3G14943   4.789   1.551   7.083  1.2276  0.0988  0.7458
  137OSM    C4F14944   4.818   1.662   7.260 -0.5328 -0.3936  0.6436
  137OSM    H4F14945   4.929   1.653   7.261 -0.6337 -2.3284 -0.2611
  137OSM    H4G14946   4.783   1.570   7.313 -2.2824  0.8520  1.7385
  137OSM    C5F14947   4.785   1.784   7.348  0.1793 -0.3949  0.1830
  137OSM    H5F14948   4.677   1.792   7.324 -0.1408 -1.6332  1.1451
  137OSM    H5G14949   4.823   1.878   7.301 -1.9013  0.2409 -0.3111
  137OSM    C6F14950   4.805   1.770   7.495 -0.3826 -0.6438  0.0807
  137OSM    H6F14951   4.756   1.675   7.525 -1.1329 -0.7287 -1.3035
  137OSM    H6G14952   4.758   1.852   7.552 -0.1539 -0.4888  0.0494
  137OSM    C7F14953   4.952   1.759   7.540  0.5420 -0.4109 -0.3085
  137OSM    H7F14954   5.014   1.845   7.507  0.5391 -0.2137  0.1998
  137OSM    H7G14955   5.004   1.670   7.497  2.3737  0.6005 -0.2773
  137OSM    C8F14956   4.973   1.768   7.697  0.5265  0.0639  0.2243
  137OSM    H8F14957   4.921   1.692   7.760  1.0292  0.9281  1.7513
  137OSM    H8G14958   4.916   1.861   7.722 -2.6954 -0.5184 -3.8737
  137OSM    C9F14959   5.109   1.779   7.739 -0.4931  0.0746  0.0054
  137OSM    H9F14960   5.176   1.692   7.734  0.4686  0.8181 -0.5540
  137OSM   C10F14961   5.168   1.887   7.782 -0.2462 -0.8217 -0.4807
  137OSM   H10F14962   5.275   1.890   7.807 -0.1929 -0.2294 -0.7590
  137OSM   C11F14963   5.114   2.024   7.815 -0.3786 -0.3731  0.7844
  137OSM   H11F14964   5.041   2.063   7.741  0.1977  0.4239  0.6200
  137OSM   H11G14965   5.199   2.095   7.816 -0.9185  0.3924 -1.5923
  137OSM   C12F14966   5.049   2.034   7.949  0.0666 -0.1768 -0.6691
  137OSM   H12F14967   4.949   1.986   7.945  0.3091 -0.6165 -1.9066
  137OSM   H12G14968   5.028   2.142   7.965  2.0859  0.3586 -1.2976
  137OSM   C13F14969   5.144   1.984   8.065 -0.6797  0.1246 -0.1143
  137OSM   H13F14970   5.234   2.050   8.062 -0.2045 -0.4130  1.5257
  137OSM   H13G14971   5.178   1.880   8.044 -1.5075 -0.5217  1.5886
  137OSM   C14F14972   5.099   2.004   8.212 -0.3720  0.4987  0.3903
  137OSM   H14F14973   4.999   1.954   8.219 -0.7022  0.9796 -0.6450
  137OSM   H14G14974   5.080   2.113   8.210  0.7662  0.6940 -1.1800
  137OSM   C15F14975   5.196   1.953   8.313 -0.4489 -0.2520  0.2350
  137OSM   H15F14976   5.286   2.013   8.287 -1.3113  0.1242 -2.1530
  137OSM   H15G14977   5.226   1.847   8.297  1.7481  0.6944 -2.9506
  137OSM   C16F14978   5.172   1.992   8.458  0.0316  0.4735 -0.0037
  137OSM   H16F14979   5.150   2.100   8.456 -1.4503  0.1949 -2.4316
  137OSM   H16G14980   5.255   1.971   8.529 -0.2312  0.0583  0.1885
  137OSM   C17F14981   5.051   1.920   8.516 -0.2507 -0.0856  0.6554
  137OSM   H17F14982   5.077   1.813   8.526 -2.8697 -0.7321  1.1562
  137OSM   H17G14983   4.956   1.936   8.461 -0.5457 -2.4534  0.3931
  137OSM   C18F14984   5.029   1.970   8.661  0.3923  0.7832 -0.3496
  137OSM   H18F14985   4.948   1.918   8.718  1.4449 -0.9619 -0.3595
  137OSM   H18G14986   5.016   2.080   8.662  0.7577  0.8462  1.8141
  137OSM   H18H14987   5.122   1.955   8.720 -0.5902  2.4769  1.7905
  138OSM      N14988   4.480   2.837   6.057  0.3791  0.5928 -0.3838
  138OSM    C1514989   4.583   2.876   5.958  0.3278  0.2718  0.3448
  138OSM   H15A14990   4.537   2.932   5.878  1.0114 -0.2284 -0.4117
  138OSM   H15B14991   4.617   2.784   5.911  0.2294  0.7419 -0.6705
  138OSM   H15C14992   4.665   2.933   5.999  0.1932 -0.4193  1.6247
  138OSM    C1414993   4.368   2.763   5.999  0.9637 -0.0833  0.0384
  138OSM   H14A14994   4.389   2.674   5.942 -0.6610 -0.3299 -0.2046
  138OSM   H14B14995   4.317   2.828   5.930 -0.7401  0.7985  2.0086
  138OSM   H14C14996   4.293   2.728   6.069  0.1171 -2.1033 -1.7786
  138OSM    C1314997   4.548   2.748   6.157  0.5961  0.1311  0.3600
  138OSM   H13A14998   4.613   2.813   6.215  0.9465  1.1857 -1.1367
  138OSM   H13B14999   4.605   2.668   6.113  0.6093  1.1098 -1.5224
  138OSM   H13C15000   4.475   2.701   6.221 -0.6963  0.9915 -0.4318
  138OSM    C1215001   4.426   2.958   6.132 -0.2945 -0.0663  0.4525
  138OSM   H12A15002   4.509   3.009   6.177  0.4653  0.6642 -1.6709
  138OSM   H12B15003   4.352   2.929   6.205  1.0336 -0.1996  1.7844
  138OSM    C1115004   4.350   3.054   6.030 -0.5427 -0.5772 -0.8428
  138OSM   H11A15005   4.414   3.081   5.944  0.4515 -0.7181 -0.1698
  138OSM   H11B15006   4.340   3.149   6.087 -0.5274 -1.5839  0.9253
  138OSM      P15007   4.101   3.000   6.093 -0.3167  0.5282  0.1526
  138OSM    O1315008   3.989   3.081   6.045 -0.0098 -0.0642 -0.2757
  138OSM    O1415009   4.075   2.856   6.113 -0.4675  0.2690  0.1094
  138OSM    O1115010   4.168   3.059   6.221  0.3490  0.0884  0.1748
  138OSM    O1215011   4.222   3.009   5.989 -0.0975 -0.1602 -0.5644
  138OSM    C1S15012   4.100   3.034   6.344 -0.4588 -0.7137  0.6122
  138OSM    H1S15013   4.103   2.927   6.374  0.6036 -0.9244 -0.2015
  138OSM    H1T15014   3.995   3.071   6.341  0.4646  2.1209 -0.0874
  138OSM     NF15015   4.140   3.055   6.581  0.8015  0.3571 -0.3446
  138OSM    HNF15016   4.073   3.112   6.628  2.1816  0.1691  2.0663
  138OSM    C2S15017   4.180   3.106   6.450 -0.4571 -0.6239 -0.1480
  138OSM    H2S15018   4.289   3.090   6.443 -0.0770  1.9332 -1.2392
  138OSM    C3S15019   4.161   3.265   6.432  0.6120 -0.3882 -0.1451
  138OSM    H3S15020   4.052   3.287   6.441  0.6394 -0.2185 -0.2333
  138OSM     O315021   4.187   3.311   6.300  0.6320  0.6232 -0.3425
  138OSM    HO315022   4.199   3.226   6.258  0.5422  0.5709 -0.2621
  138OSM    C4S15023   4.229   3.343   6.545 -0.4001  0.4116 -0.0488
  138OSM    H4S15024   4.159   3.373   6.624  0.0004 -0.5155  0.6728
  138OSM    C5S15025   4.359   3.389   6.565  0.5138  0.3392 -0.1357
  138OSM    H5S15026   4.444   3.375   6.496  0.0116  0.6985 -0.8364
  138OSM    C6S15027   4.407   3.471   6.688 -0.1776 -0.3121  0.1206
  138OSM    H6S15028   4.408   3.579   6.660  1.0640 -0.5610 -0.8953
  138OSM    H6T15029   4.507   3.431   6.715 -1.3658 -2.2117  2.0088
  138OSM    C7S15030   4.323   3.462   6.819 -0.2121 -0.4233 -0.2216
  138OSM    H7S15031   4.326   3.355   6.851  0.8184 -0.1122  0.7766
  138OSM    H7T15032   4.216   3.490   6.807 -0.1568 -0.6235 -1.3728
  138OSM    C8S15033   4.379   3.549   6.931 -0.0043  0.1697 -0.4150
  138OSM    H8S15034   4.351   3.654   6.910  0.2764  0.4327  0.4845
  138OSM    H8T15035   4.490   3.542   6.928 -0.0054  0.3267 -1.0626
  138OSM    C9S15036   4.324   3.512   7.066  0.4718  0.8598 -0.5464
  138OSM    H9S15037   4.214   3.496   7.077  0.4770  0.7925 -0.5983
  138OSM    H9T15038   4.332   3.595   7.140  1.0341  0.2755  0.0547
  138OSM   C10S15039   4.382   3.392   7.126  0.6998 -0.0928  0.7515
  138OSM   H10S15040   4.492   3.397   7.109  0.3178  0.5336 -1.8210
  138OSM   H10T15041   4.356   3.315   7.050  2.6970 -0.4146  0.3352
  138OSM   C11S15042   4.330   3.370   7.268 -0.4124 -0.3227  0.3952
  138OSM   H11S15043   4.346   3.264   7.296  0.4408 -0.0096  1.1613
  138OSM   H11T15044   4.220   3.378   7.257 -0.2666  0.1793 -0.8979
  138OSM   C12S15045   4.376   3.474   7.381  0.5478  0.6813 -0.1047
  138OSM   H12S15046   4.342   3.579   7.363 -0.4685  0.4250  0.2505
  138OSM   H12T15047   4.486   3.474   7.368  0.4711 -1.2898 -1.0978
  138OSM   C13S15048   4.340   3.433   7.522  1.1154 -0.4406 -0.0491
  138OSM   H13S15049   4.382   3.333   7.548 -1.4241 -1.4675  0.3128
  138OSM   H13T15050   4.231   3.435   7.540  1.0495 -0.0826 -0.4804
  138OSM   C14S15051   4.394   3.532   7.626  0.0097  0.4254 -0.0864
  138OSM   H14S15052   4.343   3.628   7.601 -1.5142 -0.1637  0.6651
  138OSM   H14T15053   4.503   3.555   7.620 -0.2750  1.7150 -0.8097
  138OSM   C15S15054   4.340   3.505   7.767 -0.3640  0.1318 -0.2951
  138OSM   H15S15055   4.238   3.462   7.756 -0.2157  0.2250 -2.2836
  138OSM   H15T15056   4.330   3.601   7.821  0.1378  1.9791 -3.2538
  138OSM   C16S15057   4.425   3.413   7.854  0.1493 -0.2261  0.3860
  138OSM   H16S15058   4.533   3.438   7.846  0.3360 -0.9782  0.4568
  138OSM   H16T15059   4.424   3.307   7.819  1.6357 -0.6003  1.3756
  138OSM   C17S15060   4.382   3.413   8.011 -0.0104  0.1148  0.0937
  138OSM   H17S15061   4.275   3.385   8.021 -0.3464  1.3863  0.1700
  138OSM   H17T15062   4.386   3.514   8.056 -3.3274 -0.1850  1.2993
  138OSM   C18S15063   4.466   3.321   8.106 -0.0405 -0.2769  0.1403
  138OSM   H18S15064   4.565   3.368   8.127 -0.4066  0.1984  0.8104
  138OSM   H18T15065   4.488   3.228   8.048 -1.4798 -0.0960 -0.7251
  138OSM   H18U15066   4.415   3.296   8.201  3.3525  0.9178  2.4568
  138OSM    C1F15067   4.178   2.928   6.627  0.4891 -0.6088  0.0382
  138OSM     OF15068   4.247   2.852   6.565 -0.6527  0.5898 -0.5421
  138OSM    C2F15069   4.121   2.888   6.759 -0.2824  0.0917 -0.0031
  138OSM    H2F15070   4.013   2.912   6.752  0.0999  1.5056 -2.1981
  138OSM    H2G15071   4.163   2.954   6.838  0.5395  0.9201 -1.1064
  138OSM    C3F15072   4.136   2.738   6.797 -0.4489 -0.0470 -0.6270
  138OSM    H3F15073   4.245   2.715   6.803 -0.3730  0.1121 -1.3309
  138OSM    H3G15074   4.101   2.674   6.713 -1.7288 -0.9279  0.5415
  138OSM    C4F15075   4.051   2.702   6.922  0.3453 -0.3048 -0.3374
  138OSM    H4F15076   4.037   2.592   6.933  2.2328 -0.4407  1.2804
  138OSM    H4G15077   3.952   2.746   6.899  0.0135  0.9248  2.9164
  138OSM    C5F15078   4.094   2.767   7.057  0.9519  0.1308  0.5225
  138OSM    H5F15079   4.099   2.878   7.048 -0.1186  0.3613  2.3003
  138OSM    H5G15080   4.197   2.733   7.082  1.8648  0.5779 -2.2745
  138OSM    C6F15081   3.996   2.724   7.168 -0.0036  0.2546 -0.8356
  138OSM    H6F15082   4.007   2.615   7.187  0.2484  0.8999  3.8917
  138OSM    H6G15083   3.890   2.743   7.142 -0.6445  0.4315  1.6471
  138OSM    C7F15084   4.030   2.803   7.296  0.6265 -0.0285 -0.1520
  138OSM    H7F15085   4.024   2.908   7.260  0.3341 -0.9890 -3.1912
  138OSM    H7G15086   4.135   2.776   7.324 -0.0385 -0.7044  1.8670
  138OSM    C8F15087   3.923   2.796   7.416  0.4124 -0.0044  0.5242
  138OSM    H8F15088   3.836   2.858   7.385 -0.2982 -1.2514 -0.0789
  138OSM    H8G15089   3.967   2.834   7.510  3.4184 -3.5089  0.7668
  138OSM    C9F15090   3.870   2.660   7.463  0.5458 -0.5910 -0.3723
  138OSM    H9F15091   3.904   2.570   7.410 -0.6739 -0.9256 -0.6162
  138OSM   C10F15092   3.781   2.644   7.560 -0.0236 -0.1244  0.2872
  138OSM   H10F15093   3.749   2.543   7.589 -2.6069  0.9610  1.6134
  138OSM   C11F15094   3.723   2.756   7.642 -0.3660  0.6332  0.4607
  138OSM   H11F15095   3.614   2.740   7.658 -0.5238 -0.9334 -1.7732
  138OSM   H11G15096   3.726   2.853   7.589  0.5790 -0.2004 -1.0578
  138OSM   C12F15097   3.785   2.777   7.787 -0.1481 -0.0928  0.2386
  138OSM   H12F15098   3.718   2.858   7.820 -0.2771 -0.0651 -0.0892
  138OSM   H12G15099   3.887   2.815   7.762  0.5926 -1.2514  1.3704
  138OSM   C13F15100   3.776   2.654   7.871  0.4008  0.5756 -0.3576
  138OSM   H13F15101   3.828   2.570   7.821  1.3689 -0.0688  1.6056
  138OSM   H13G15102   3.669   2.623   7.879 -0.2274  2.9165  1.1555
  138OSM   C14F15103   3.846   2.666   8.005 -0.2571  0.6543  0.7745
  138OSM   H14F15104   3.810   2.585   8.072 -1.1237  1.1007  0.8731
  138OSM   H14G15105   3.825   2.764   8.054  1.0736  1.7043 -0.6320
  138OSM   C15F15106   4.006   2.673   7.998  0.1706 -0.7406 -0.0084
  138OSM   H15F15107   4.028   2.733   7.907 -0.7808  1.2236  0.9981
  138OSM   H15G15108   4.044   2.570   7.984 -1.1321 -1.3584  0.8356
  138OSM   C16F15109   4.068   2.738   8.127  0.1688  0.7152 -0.5956
  138OSM   H16F15110   4.024   2.838   8.143  3.2278  2.2596 -1.0588
  138OSM   H16G15111   4.173   2.768   8.103  0.0699  1.3391 -0.2586
  138OSM   C17F15112   4.046   2.650   8.250  0.4992  0.2445  0.8590
  138OSM   H17F15113   4.150   2.635   8.287  1.1911  0.6878 -0.8074
  138OSM   H17G15114   4.009   2.550   8.222  0.9713  0.3902 -0.3213
  138OSM   C18F15115   3.960   2.718   8.354 -0.0409  0.5503 -0.8891
  138OSM   H18F15116   3.947   2.648   8.440  2.8932  0.5266 -0.3604
  138OSM   H18G15117   3.856   2.741   8.324 -0.7550 -1.6107 -0.2893
  138OSM   H18H15118   4.011   2.806   8.398 -0.6162  0.6875 -0.4920
  139OSM      N15119   1.562   4.081   6.437 -0.0979 -0.0999  0.2784
  139OSM    C1515120   1.609   3.946   6.428  0.2384 -0.2424 -0.2747
  139OSM   H15A15121   1.715   3.941   6.407  0.4544 -0.1024  0.7446
  139OSM   H15B15122   1.559   3.900   6.344 -0.4295 -1.4331  0.7374
  139OSM   H15C15123   1.599   3.880   6.513  2.2367  0.3054  0.4386
  139OSM    C1415124   1.593   4.144   6.307  0.9353 -0.4490 -0.3198
  139OSM   H14A15125   1.564   4.248   6.307  0.3383 -0.6138 -0.5885
  139OSM   H14B15126   1.551   4.086   6.226 -0.3565  0.6594 -0.4639
  139OSM   H14C15127   1.700   4.148   6.292  0.9455  0.2114 -0.0855
  139OSM    C1315128   1.420   4.081   6.447  0.4352  0.2148 -0.1286
  139OSM   H13A15129   1.370   4.175   6.430 -1.8917 -1.0514 -0.6956
  139OSM   H13B15130   1.393   4.033   6.540  0.8229  1.3921  0.6145
  139OSM   H13C15131   1.385   4.015   6.369  0.7616 -0.6410  0.4317
  139OSM    C1215132   1.624   4.163   6.551  0.1707  0.3757 -0.3115
  139OSM   H12A15133   1.732   4.152   6.542  0.5137  3.1430 -0.2618
  139OSM   H12B15134   1.586   4.110   6.637 -2.0480 -0.0822 -1.5044
  139OSM    C1115135   1.585   4.316   6.564  0.1919 -0.1452 -0.1966
  139OSM   H11A15136   1.617   4.350   6.665 -2.4448 -1.7317  1.2918
  139OSM   H11B15137   1.476   4.325   6.584  0.3347  1.0729  0.1248
  139OSM      P15138   1.790   4.422   6.437 -0.0137 -0.1322 -0.0322
  139OSM    O1315139   1.852   4.313   6.359 -0.3855 -0.0738  0.4859
  139OSM    O1415140   1.808   4.563   6.395 -0.0284 -0.5808  0.4947
  139OSM    O1115141   1.835   4.408   6.586 -0.0118 -0.2804 -0.3690
  139OSM    O1215142   1.631   4.392   6.448 -0.1450 -0.3430  0.2423
  139OSM    C1S15143   1.979   4.433   6.615  0.0653 -0.1216 -0.3098
  139OSM    H1S15144   2.003   4.538   6.586 -2.5204  1.1294  1.6369
  139OSM    H1T15145   2.037   4.357   6.560  0.3250 -0.9449  1.0587
  139OSM     NF15146   2.120   4.462   6.812 -0.1584 -0.2846  0.0991
  139OSM    HNF15147   2.198   4.399   6.808 -2.2334 -3.1020  1.1121
  139OSM    C2S15148   1.996   4.419   6.774  0.5666 -0.4438  0.3178
  139OSM    H2S15149   1.919   4.481   6.824  0.8286  0.1715 -0.0242
  139OSM    C3S15150   1.969   4.269   6.800 -0.2481  0.5978 -0.3040
  139OSM    H3S15151   2.026   4.204   6.731 -2.0884 -0.4709 -0.9013
  139OSM     O315152   1.840   4.223   6.765 -0.6216  0.5617  0.3383
  139OSM    HO315153   1.790   4.295   6.726 -2.1664 -0.8835 -0.4766
  139OSM    C4S15154   1.996   4.230   6.946  0.6280  0.2018  0.0294
  139OSM    H4S15155   1.925   4.261   7.024  0.1646 -0.9788  0.0972
  139OSM    C5S15156   2.085   4.137   6.988  0.2696  0.5294  1.1138
  139OSM    H5S15157   2.151   4.093   6.912  0.6848  2.7943  0.0725
  139OSM    C6S15158   2.094   4.085   7.128 -0.3824 -0.3939 -0.4879
  139OSM    H6S15159   2.199   4.062   7.153 -0.3906  1.7979  2.1345
  139OSM    H6T15160   2.036   3.991   7.140 -2.2348  0.5608 -1.5336
  139OSM    C7S15161   2.048   4.184   7.247 -0.5649 -0.0335  0.3686
  139OSM    H7S15162   1.940   4.205   7.231 -0.0197  3.0556  0.1772
  139OSM    H7T15163   2.094   4.285   7.238 -1.4316  0.3756  0.4371
  139OSM    C8S15164   2.061   4.122   7.382  0.4996 -0.3398  0.0201
  139OSM    H8S15165   2.162   4.075   7.387  0.3572 -0.9494 -2.0138
  139OSM    H8T15166   1.987   4.039   7.384  0.8428 -0.6556 -0.2838
  139OSM    C9S15167   2.024   4.235   7.484  0.4002 -0.2060 -0.8676
  139OSM    H9S15168   1.928   4.277   7.447  0.3795  2.6692  1.9993
  139OSM    H9T15169   2.093   4.320   7.470 -0.4385  0.6335 -0.0416
  139OSM   C10S15170   2.030   4.189   7.631  0.4257 -0.1929  0.5171
  139OSM   H10S15171   2.121   4.126   7.645 -1.5110 -2.9850  1.4297
  139OSM   H10T15172   1.938   4.133   7.657  0.4089 -1.3939 -1.8335
  139OSM   C11S15173   2.048   4.316   7.717  0.2185 -0.3217  0.5668
  139OSM   H11S15174   1.953   4.375   7.719 -0.0240 -0.6936  0.2545
  139OSM   H11T15175   2.134   4.377   7.682 -0.0088 -1.5944 -2.5327
  139OSM   C12S15176   2.073   4.275   7.863  0.2307  0.6775  0.4974
  139OSM   H12S15177   2.164   4.211   7.858 -0.4464 -0.3627  1.3292
  139OSM   H12T15178   1.979   4.220   7.882 -0.3043  2.6450  4.4138
  139OSM   C13S15179   2.079   4.385   7.966  0.1896  0.8731  0.0149
  139OSM   H13S15180   1.986   4.445   7.951  0.1475  0.9989  0.7814
  139OSM   H13T15181   2.167   4.445   7.936  1.3524  0.2295  1.9754
  139OSM   C14S15182   2.091   4.339   8.107  0.2448  0.8941  0.7105
  139OSM   H14S15183   2.171   4.267   8.132 -2.3724 -2.3800  0.3901
  139OSM   H14T15184   2.017   4.257   8.114  1.3421 -0.0109  2.7944
  139OSM   C15S15185   2.062   4.448   8.214  0.3967 -0.0437  0.4936
  139OSM   H15S15186   1.975   4.511   8.184  0.8627  0.1150 -0.5441
  139OSM   H15T15187   2.147   4.519   8.222 -1.6181  2.6283 -0.3890
  139OSM   C16S15188   2.027   4.378   8.345 -0.0786  0.3098  0.6931
  139OSM   H16S15189   2.118   4.329   8.388 -0.5196 -1.6196 -0.4452
  139OSM   H16T15190   1.962   4.290   8.328 -1.1652  0.8666  1.8017
  139OSM   C17S15191   1.952   4.461   8.449 -0.2245  0.4083 -0.0629
  139OSM   H17S15192   1.912   4.404   8.536 -1.6970 -0.3627 -1.1863
  139OSM   H17T15193   1.854   4.478   8.399 -0.8384  0.8546  1.2443
  139OSM   C18S15194   2.027   4.599   8.491  0.4064  0.6021  0.1953
  139OSM   H18S15195   1.959   4.660   8.555 -3.3735 -2.4478 -0.4813
  139OSM   H18T15196   2.052   4.661   8.403  3.7654 -0.3658  0.3193
  139OSM   H18U15197   2.117   4.573   8.551  0.3337 -3.4836 -1.1483
  139OSM    C1F15198   2.144   4.592   6.822  0.3569  0.6452  0.2938
  139OSM     OF15199   2.062   4.671   6.789 -0.0753 -0.0998  0.6797
  139OSM    C2F15200   2.277   4.632   6.877 -0.0552  0.3357 -0.4372
  139OSM    H2F15201   2.355   4.617   6.799  0.8168 -0.4343  0.5666
  139OSM    H2G15202   2.303   4.563   6.959 -0.4517 -0.2634 -0.8111
  139OSM    C3F15203   2.275   4.779   6.920  0.0686 -0.0674  0.5354
  139OSM    H3F15204   2.240   4.853   6.845  0.1893 -1.4407 -0.9155
  139OSM    H3G15205   2.383   4.797   6.941 -0.1331 -0.2668  1.8206
  139OSM    C4F15206   2.198   4.804   7.049  0.5442  0.1109 -0.1598
  139OSM    H4F15207   2.243   4.744   7.131 -1.3788  0.2223  1.0402
  139OSM    H4G15208   2.089   4.780   7.047  0.4468  0.4423  0.7419
  139OSM    C5F15209   2.207   4.954   7.093 -0.6860  0.6625  0.8658
  139OSM    H5F15210   2.187   5.023   7.009  0.6076  0.6529  0.5185
  139OSM    H5G15211   2.309   4.982   7.128 -0.2485 -1.4723  1.4299
  139OSM    C6F15212   2.117   4.990   7.213 -0.2003  0.0751 -0.3116
  139OSM    H6F15213   2.136   4.917   7.294  0.5717  0.3131 -0.2709
  139OSM    H6G15214   2.012   4.973   7.180  1.1647 -0.4718 -5.1515
  139OSM    C7F15215   2.126   5.135   7.262  0.1896 -0.4993  0.2313
  139OSM    H7F15216   2.103   5.202   7.176 -0.3968  0.4162  1.0825
  139OSM    H7G15217   2.230   5.159   7.292 -0.4106 -0.7131  2.6661
  139OSM    C8F15218   2.033   5.159   7.387 -0.1054  0.3780 -0.1308
  139OSM    H8F15219   1.938   5.104   7.369 -1.0817  2.0285 -0.2162
  139OSM    H8G15220   2.009   5.267   7.395  0.7430  0.6465 -0.9725
  139OSM    C9F15221   2.091   5.085   7.505 -0.1682 -0.4587 -0.5923
  139OSM    H9F15222   2.115   4.978   7.492 -1.9087 -0.8556 -0.7742
  139OSM   C10F15223   2.092   5.130   7.633 -0.3563  0.1594  0.2783
  139OSM   H10F15224   2.132   5.074   7.719 -0.2681  0.6078  0.5320
  139OSM   C11F15225   2.022   5.254   7.668 -0.0574 -0.0365 -0.1724
  139OSM   H11F15226   1.935   5.273   7.601  0.1856 -3.1106 -1.5484
  139OSM   H11G15227   2.096   5.336   7.674  0.8971 -0.9022  0.2348
  139OSM   C12F15228   1.969   5.249   7.819 -0.5018  0.5242 -0.0023
  139OSM   H12F15229   1.890   5.171   7.831 -0.4000  0.6474  1.7044
  139OSM   H12G15230   1.927   5.348   7.846  3.2701  2.2306  0.1782
  139OSM   C13F15231   2.084   5.233   7.920  0.2210  0.2944  1.1305
  139OSM   H13F15232   2.173   5.293   7.892 -0.2031  0.1319 -0.6851
  139OSM   H13G15233   2.122   5.129   7.914  0.7895  0.5740 -0.6502
  139OSM   C14F15234   2.048   5.277   8.066  0.2325 -0.2534  0.2118
  139OSM   H14F15235   1.955   5.232   8.107 -0.1351  0.0364 -0.2746
  139OSM   H14G15236   2.022   5.385   8.068  0.4722 -0.1452 -1.2194
  139OSM   C15F15237   2.161   5.265   8.162  0.0303  0.8470  0.4224
  139OSM   H15F15238   2.246   5.334   8.143  0.4015 -0.3279 -2.8008
  139OSM   H15G15239   2.216   5.169   8.152 -1.2031  0.0861  0.7297
  139OSM   C16F15240   2.106   5.268   8.311  0.2000 -0.0180 -0.4819
  139OSM   H16F15241   2.039   5.180   8.321  1.2983 -1.0680 -2.1092
  139OSM   H16G15242   2.044   5.361   8.319  2.2176  1.4919 -1.5347
  139OSM   C17F15243   2.224   5.257   8.412 -0.2413 -0.0006 -0.1840
  139OSM   H17F15244   2.301   5.336   8.396 -0.4744  0.7291  1.9686
  139OSM   H17G15245   2.269   5.158   8.387 -2.1868 -1.2073  0.8885
  139OSM   C18F15246   2.178   5.265   8.555  0.1887  0.6498  0.1376
  139OSM   H18F15247   2.138   5.368   8.570  0.2851  0.8257 -0.7455
  139OSM   H18G15248   2.253   5.234   8.631 -1.1951 -2.0356  0.5286
  139OSM   H18H15249   2.093   5.194   8.564  0.1238  0.7498  0.3313
  140OSM      N15250   3.346   6.139   6.363 -0.1669  0.0030 -0.2493
  140OSM    C1515251   3.405   6.050   6.253 -0.0670  0.0035 -0.2225
  140OSM   H15A15252   3.447   5.959   6.294 -0.9301  0.1553  1.0688
  140OSM   H15B15253   3.486   6.097   6.200  0.6544 -0.1298  0.7277
  140OSM   H15C15254   3.322   6.018   6.191 -0.1556 -0.5862  0.1853
  140OSM    C1415255   3.306   6.262   6.293  0.4917  0.4896  1.1412
  140OSM   H14A15256   3.388   6.325   6.262 -1.0926  1.9482 -0.3358
  140OSM   H14B15257   3.233   6.323   6.344 -0.9791  0.3474 -0.6478
  140OSM   H14C15258   3.250   6.239   6.203  1.1146 -0.8467  1.0727
  140OSM    C1315259   3.223   6.069   6.422 -0.3287 -0.2445 -0.9189
  140OSM   H13A15260   3.147   6.054   6.347 -0.7550  0.5303 -0.6539
  140OSM   H13B15261   3.183   6.120   6.508 -1.8888 -1.4463 -0.8918
  140OSM   H13C15262   3.248   5.970   6.457 -0.3525 -0.7381 -2.2333
  140OSM    C1215263   3.458   6.165   6.465 -0.7595  0.1302  0.2947
  140OSM   H12A15264   3.537   6.213   6.410 -2.3089  0.0179 -2.2040
  140OSM   H12B15265   3.503   6.072   6.498  1.4153  0.6350 -1.0740
  140OSM    C1115266   3.426   6.256   6.586 -0.4045  0.0702  0.0789
  140OSM   H11A15267   3.524   6.295   6.622 -0.4398 -0.6266  0.9634
  140OSM   H11B15268   3.390   6.194   6.671  2.3235 -1.3612  0.2954
  140OSM      P15269   3.204   6.393   6.626  0.0067  0.2077 -0.2473
  140OSM    O1315270   3.130   6.504   6.558  0.8987  0.1413 -0.5632
  140OSM    O1415271   3.129   6.261   6.631 -0.3842 -0.3764  0.7897
  140OSM    O1115272   3.246   6.439   6.773 -0.0291  0.4389 -0.4462
  140OSM    O1215273   3.343   6.366   6.556  0.2184 -0.3949  0.4548
  140OSM    C1S15274   3.291   6.572   6.804  0.7171 -0.6891 -0.6730
  140OSM    H1S15275   3.212   6.649   6.796  0.4829 -0.6826  1.1754
  140OSM    H1T15276   3.381   6.588   6.740  0.3649 -1.4370 -1.3629
  140OSM     NF15277   3.328   6.728   7.012  0.2357  0.8474  0.2488
  140OSM    HNF15278   3.416   6.771   6.990  1.6145 -0.6396  2.4032
  140OSM    C2S15279   3.325   6.589   6.963 -0.3113  0.0601 -0.6708
  140OSM    H2S15280   3.248   6.534   7.022 -0.8109  1.1150 -0.3140
  140OSM    C3S15281   3.459   6.510   6.984 -0.3241 -0.1465  0.2063
  140OSM    H3S15282   3.542   6.554   6.925 -0.3052 -1.2951 -0.6483
  140OSM     O315283   3.452   6.374   6.940 -0.2963  0.2475  0.4998
  140OSM    HO315284   3.368   6.372   6.894  0.2757  1.5520 -0.6637
  140OSM    C4S15285   3.497   6.519   7.126 -0.6661  0.1379  0.2985
  140OSM    H4S15286   3.418   6.478   7.191 -1.2859 -0.0106 -0.5381
  140OSM    C5S15287   3.609   6.573   7.177  0.2932  0.1698  0.7894
  140OSM    H5S15288   3.669   6.616   7.096 -0.5936 -3.4440 -2.0297
  140OSM    C6S15289   3.660   6.570   7.322  0.3347 -0.0148  0.4308
  140OSM    H6S15290   3.670   6.678   7.348 -1.6059  0.9580 -2.3960
  140OSM    H6T15291   3.766   6.540   7.330  0.4333  0.3523  0.5462
  140OSM    C7S15292   3.590   6.490   7.426 -0.3388  0.8021  0.0583
  140OSM    H7S15293   3.580   6.387   7.387  0.9178  0.9297 -0.6562
  140OSM    H7T15294   3.490   6.535   7.445 -0.1318  0.3141  2.7308
  140OSM    C8S15295   3.669   6.476   7.561 -0.8096  0.0969 -0.6029
  140OSM    H8S15296   3.674   6.577   7.608 -0.4065 -0.6149  0.9253
  140OSM    H8T15297   3.775   6.449   7.542 -0.4244  0.5713  0.7828
  140OSM    C9S15298   3.597   6.379   7.653 -0.6221  0.3242  0.3165
  140OSM    H9S15299   3.599   6.279   7.604 -0.7049 -0.8193  2.5345
  140OSM    H9T15300   3.492   6.415   7.656 -0.8041  0.0745 -1.6045
  140OSM   C10S15301   3.661   6.379   7.796 -0.4337 -0.3943  0.4696
  140OSM   H10S15302   3.643   6.477   7.845 -1.4799 -0.5275  0.3780
  140OSM   H10T15303   3.768   6.375   7.768 -1.0575  0.9834 -2.6083
  140OSM   C11S15304   3.603   6.272   7.888  0.0441  1.1203  0.4242
  140OSM   H11S15305   3.610   6.179   7.827 -1.6621  0.0294  1.7835
  140OSM   H11T15306   3.493   6.290   7.890 -0.1574  0.6839 -2.3288
  140OSM   C12S15307   3.675   6.249   8.021 -0.6100 -0.4203  0.2443
  140OSM   H12S15308   3.698   6.346   8.069 -3.4146  0.7954 -0.6496
  140OSM   H12T15309   3.766   6.191   7.995  0.2978  0.9592  0.2378
  140OSM   C13S15310   3.598   6.157   8.118  0.1100  0.4218  1.0058
  140OSM   H13S15311   3.600   6.059   8.066  0.6201  0.2250  1.3921
  140OSM   H13T15312   3.492   6.189   8.125  0.7078  3.1384 -0.6951
  140OSM   C14S15313   3.670   6.153   8.247 -0.3343 -0.0562 -0.3702
  140OSM   H14S15314   3.699   6.257   8.274 -0.3511  0.4821 -2.2960
  140OSM   H14T15315   3.760   6.089   8.242 -1.0603 -1.0426 -1.2417
  140OSM   C15S15316   3.589   6.098   8.365  0.0955  0.3637  0.1031
  140OSM   H15S15317   3.555   5.992   8.357  2.0213 -0.4722  1.9163
  140OSM   H15T15318   3.501   6.166   8.374 -0.3439 -0.0132 -1.1420
  140OSM   C16S15319   3.666   6.084   8.495 -0.3943 -0.4424  0.2310
  140OSM   H16S15320   3.727   6.176   8.508 -0.0421 -0.1604 -2.7160
  140OSM   H16T15321   3.742   6.003   8.490 -2.1163 -2.0927 -0.5827
  140OSM   C17S15322   3.581   6.079   8.619 -0.0544 -0.2318 -0.6811
  140OSM   H17S15323   3.530   6.174   8.642  2.1949  0.8954 -0.0488
  140OSM   H17T15324   3.650   6.067   8.706 -0.5297 -0.3854 -0.3175
  140OSM   C18S15325   3.466   5.974   8.612  0.4662  0.2736 -0.2811
  140OSM   H18S15326   3.413   5.978   8.709  0.7637 -1.3534 -0.0237
  140OSM   H18T15327   3.502   5.870   8.596  0.3660  0.2174 -0.1463
  140OSM   H18U15328   3.401   6.014   8.531  0.7844 -0.3149 -0.8354
  140OSM    C1F15329   3.220   6.807   7.033  0.6653 -0.3066 -0.1305
  140OSM     OF15330   3.109   6.759   7.035 -0.4078  0.1044  0.5066
  140OSM    C2F15331   3.236   6.956   7.042  0.0085 -0.4779  0.1149
  140OSM    H2F15332   3.174   6.996   6.959 -0.2640 -1.7263 -0.3164
  140OSM    H2G15333   3.341   6.983   7.022  0.6089 -1.4395  1.7603
  140OSM    C3F15334   3.191   7.022   7.170 -0.0050  0.1002  0.3566
  140OSM    H3F15335   3.085   6.996   7.192 -1.1518  3.2554 -0.7176
  140OSM    H3G15336   3.198   7.133   7.168  0.0165  0.1244  1.3215
  140OSM    C4F15337   3.294   6.978   7.282 -0.3612 -0.3284 -0.3581
  140OSM    H4F15338   3.399   7.001   7.254  0.8466 -2.0878  2.3187
  140OSM    H4G15339   3.298   6.867   7.281  0.9159 -0.3743  2.0399
  140OSM    C5F15340   3.260   7.033   7.417 -0.2346  0.2019  0.2789
  140OSM    H5F15341   3.152   7.013   7.435 -1.0770  2.8122 -1.4325
  140OSM    H5G15342   3.247   7.143   7.419 -0.0225  0.2261  0.4445
  140OSM    C6F15343   3.352   6.987   7.533 -0.4197 -0.0026 -0.5111
  140OSM    H6F15344   3.303   7.032   7.622  1.1825  2.3333 -0.7122
  140OSM    H6G15345   3.453   7.032   7.520  0.3888 -1.5628  0.0778
  140OSM    C7F15346   3.361   6.837   7.529  0.5375 -0.7386 -0.6175
  140OSM    H7F15347   3.432   6.799   7.453  0.8096 -0.4516 -0.5086
  140OSM    H7G15348   3.259   6.797   7.509 -0.2932  0.8828  0.1172
  140OSM    C8F15349   3.412   6.785   7.667 -0.7111  0.6125 -0.6220
  140OSM    H8F15350   3.509   6.835   7.689  0.7230 -2.8293  1.6135
  140OSM    H8G15351   3.442   6.680   7.644  0.2580  0.8517 -0.5106
  140OSM    C9F15352   3.321   6.792   7.785  0.0600  0.1202  0.7718
  140OSM    H9F15353   3.216   6.819   7.770 -0.9476 -1.4329  4.1302
  140OSM   C10F15354   3.359   6.758   7.907  0.4960  0.0171  0.0767
  140OSM   H10F15355   3.284   6.740   7.986 -1.3639  1.6289 -1.2410
  140OSM   C11F15356   3.493   6.723   7.960 -0.1517  0.5329  0.0206
  140OSM   H11F15357   3.572   6.750   7.887  0.0488  1.6524  0.6348
  140OSM   H11G15358   3.494   6.614   7.981 -0.8955  0.9465  2.5203
  140OSM   C12F15359   3.502   6.787   8.099 -0.0232 -0.0221  0.1873
  140OSM   H12F15360   3.419   6.752   8.163 -1.7283  0.3968 -1.6845
  140OSM   H12G15361   3.498   6.897   8.092  2.6313  0.0947 -1.0618
  140OSM   C13F15362   3.623   6.755   8.186  0.0191  0.2435  0.5859
  140OSM   H13F15363   3.701   6.817   8.136  1.3901 -0.7043  1.4721
  140OSM   H13G15364   3.638   6.645   8.175 -1.5396 -0.0570  1.1276
  140OSM   C14F15365   3.607   6.783   8.333  0.1298  0.0435  0.3167
  140OSM   H14F15366   3.511   6.734   8.359 -1.3112  1.7413 -1.4553
  140OSM   H14G15367   3.595   6.890   8.362 -2.4346  0.4595 -1.8958
  140OSM   C15F15368   3.729   6.721   8.414 -0.4189 -0.4965  0.1858
  140OSM   H15F15369   3.700   6.750   8.518 -1.9108 -1.1430 -0.0150
  140OSM   H15G15370   3.811   6.789   8.383 -0.9860 -0.2606 -0.8156
  140OSM   C16F15371   3.738   6.567   8.402  0.1365 -0.1481 -0.1554
  140OSM   H16F15372   3.779   6.536   8.304 -0.0137 -2.9037  0.5620
  140OSM   H16G15373   3.635   6.528   8.414 -0.3197  1.0748 -0.0417
  140OSM   C17F15374   3.829   6.489   8.502  0.3254  0.1949  0.2233
  140OSM   H17F15375   3.934   6.526   8.498  1.0783 -1.7392  0.6389
  140OSM   H17G15376   3.818   6.380   8.480 -1.5512  0.7538 -2.0629
  140OSM   C18F15377   3.783   6.504   8.644  0.2570  0.4093 -0.6334
  140OSM   H18F15378   3.775   6.608   8.681  2.5244  0.6854 -0.7443
  140OSM   H18G15379   3.860   6.459   8.710 -1.0385  0.6123  1.0873
  140OSM   H18H15380   3.685   6.456   8.664 -0.1835  0.2575 -2.9004
  141OSM      N15381   3.736   1.567   5.998  0.5976 -0.4054  0.4969
  141OSM    C1515382   3.852   1.476   5.963 -0.0167  0.0077 -1.1708
  141OSM   H15A15383   3.935   1.491   6.032 -0.4899 -2.7929  0.1281
  141OSM   H15B15384   3.886   1.474   5.861  2.5283 -5.6676 -0.6112
  141OSM   H15C15385   3.821   1.373   5.962  0.5204 -0.1516 -2.0187
  141OSM    C1415386   3.758   1.708   5.943  0.2979  0.5488  0.6004
  141OSM   H14A15387   3.672   1.771   5.959  0.2457  1.4973 -2.5965
  141OSM   H14B15388   3.774   1.692   5.837  0.6157 -1.6273  0.9184
  141OSM   H14C15389   3.849   1.749   5.983  0.3349  1.6717 -0.5694
  141OSM    C1315390   3.616   1.511   5.927  0.3175 -0.1711 -0.6176
  141OSM   H13A15391   3.624   1.502   5.819 -0.4643 -0.6858 -0.6407
  141OSM   H13B15392   3.521   1.560   5.944  0.7931  0.8837 -0.9098
  141OSM   H13C15393   3.592   1.410   5.954  0.0366 -0.2278 -1.0586
  141OSM    C1215394   3.717   1.573   6.149 -0.4496 -0.1263  0.6239
  141OSM   H12A15395   3.638   1.643   6.172 -0.9611 -0.5137  0.0822
  141OSM   H12B15396   3.805   1.616   6.195 -2.2719  2.1204  2.2549
  141OSM    C1115397   3.684   1.438   6.217 -0.0810 -0.5369  0.0699
  141OSM   H11A15398   3.600   1.390   6.162 -1.9610  0.8928  1.5696
  141OSM   H11B15399   3.630   1.456   6.311 -2.2334 -1.5573 -0.9088
  141OSM      P15400   3.912   1.390   6.332 -0.0436 -0.0508  0.1757
  141OSM    O1315401   3.973   1.263   6.380 -0.1016  0.2402  0.1243
  141OSM    O1415402   4.003   1.485   6.266  0.0644 -0.2082  0.0530
  141OSM    O1115403   3.831   1.451   6.453 -0.4676 -0.7558 -0.2166
  141OSM    O1215404   3.795   1.349   6.230  0.0732  0.3139 -0.5527
  141OSM    C1S15405   3.886   1.486   6.579 -0.2306 -0.2401 -0.0193
  141OSM    H1S15406   3.995   1.508   6.565 -0.7981  2.5809 -0.6219
  141OSM    H1T15407   3.875   1.396   6.644 -1.5933  0.7791  1.2211
  141OSM     NF15408   3.890   1.660   6.767 -0.5662 -0.8185  0.8247
  141OSM    HNF15409   3.836   1.701   6.840  1.4234  2.7862  0.4900
  141OSM    C2S15410   3.822   1.619   6.638  0.2075  0.4707  0.9807
  141OSM    H2S15411   3.836   1.699   6.563 -0.5903 -2.9695 -3.2092
  141OSM    C3S15412   3.668   1.596   6.662 -0.2926 -0.3134  0.4483
  141OSM    H3S15413   3.669   1.504   6.723 -0.8681 -0.3161  0.4590
  141OSM     O315414   3.585   1.565   6.547 -0.1244 -0.1264 -0.4692
  141OSM    HO315415   3.650   1.545   6.479  0.2798 -0.3366 -0.0237
  141OSM    C4S15416   3.602   1.707   6.740  0.1551 -1.5836  0.5265
  141OSM    H4S15417   3.594   1.686   6.848  2.7221  1.2287  1.4015
  141OSM    C5S15418   3.545   1.822   6.690  0.1638  0.4980  0.1606
  141OSM    H5S15419   3.555   1.830   6.581 -0.2267  0.3098  0.1121
  141OSM    C6S15420   3.478   1.931   6.761  0.6431  0.2875 -0.3575
  141OSM    H6S15421   3.376   1.948   6.720  0.6028 -1.7880 -1.2645
  141OSM    H6T15422   3.529   2.020   6.719  0.8362 -0.7714 -2.5135
  141OSM    C7S15423   3.459   1.935   6.919 -0.0771  0.2178 -0.1309
  141OSM    H7S15424   3.557   1.930   6.971 -0.6258 -1.6712  0.8141
  141OSM    H7T15425   3.391   1.854   6.950  1.6954 -1.7032 -1.0528
  141OSM    C8S15426   3.378   2.065   6.964  0.3377 -0.1768  0.3670
  141OSM    H8S15427   3.292   2.073   6.894 -0.0943 -2.5120  0.5665
  141OSM    H8T15428   3.443   2.154   6.945 -2.8799  2.0626 -1.1875
  141OSM    C9S15429   3.309   2.057   7.097 -0.1582  0.2864  0.3953
  141OSM    H9S15430   3.264   1.957   7.117  0.9354 -0.0796  1.1352
  141OSM    H9T15431   3.244   2.147   7.100  0.9059  1.0916 -0.1053
  141OSM   C10S15432   3.419   2.063   7.205 -0.3134 -0.3885  0.1138
  141OSM   H10S15433   3.481   2.153   7.184 -0.6580 -0.8357 -3.4421
  141OSM   H10T15434   3.484   1.975   7.182  0.5761  1.0700 -3.7041
  141OSM   C11S15435   3.390   2.070   7.356 -0.5908  0.4098 -0.4492
  141OSM   H11S15436   3.490   2.077   7.404  0.0315  1.0288 -1.7800
  141OSM   H11T15437   3.338   1.972   7.366 -1.1830  0.5161 -2.0715
  141OSM   C12S15438   3.297   2.185   7.401 -0.4650  0.5247  0.0425
  141OSM   H12S15439   3.192   2.152   7.399 -1.0276  2.0072  1.9205
  141OSM   H12T15440   3.315   2.267   7.328  1.8332  1.5896  1.6569
  141OSM   C13S15441   3.338   2.242   7.539 -0.1820  0.4909 -0.1391
  141OSM   H13S15442   3.272   2.332   7.544 -2.3135 -1.0437  1.0806
  141OSM   H13T15443   3.444   2.271   7.522  0.3233  0.0398  1.9522
  141OSM   C14S15444   3.305   2.157   7.665 -0.4115  0.2946 -0.3551
  141OSM   H14S15445   3.336   2.052   7.646 -0.8579 -0.1269  1.0731
  141OSM   H14T15446   3.199   2.144   7.697  0.1206  0.6869  1.7577
  141OSM   C15S15447   3.380   2.197   7.793  0.3929  0.0909  0.6889
  141OSM   H15S15448   3.490   2.186   7.781  0.6703 -0.3384  3.1054
  141OSM   H15T15449   3.352   2.136   7.881 -1.7131  0.5924  0.4195
  141OSM   C16S15450   3.359   2.346   7.829  0.3476  0.0555  0.0266
  141OSM   H16S15451   3.251   2.372   7.835  0.3264  0.0645 -0.3609
  141OSM   H16T15452   3.399   2.413   7.750 -1.8373  0.8863 -0.4382
  141OSM   C17S15453   3.421   2.392   7.960  0.5549 -0.4526  0.1045
  141OSM   H17S15454   3.371   2.331   8.038  0.8369 -2.3346 -1.1320
  141OSM   H17T15455   3.398   2.499   7.981 -1.3874 -0.5715 -1.1521
  141OSM   C18S15456   3.571   2.375   7.972 -0.1994 -0.7223 -0.3925
  141OSM   H18S15457   3.624   2.431   7.892 -0.8192  1.2106  0.4952
  141OSM   H18T15458   3.607   2.271   7.952  2.0281 -0.2819  0.9028
  141OSM   H18U15459   3.611   2.410   8.070  1.1101 -0.5055 -0.9726
  141OSM    C1F15460   4.014   1.700   6.776 -0.7214 -0.1987  0.4646
  141OSM     OF15461   4.092   1.685   6.683 -0.0795 -0.2388 -0.7304
  141OSM    C2F15462   4.053   1.779   6.896 -0.8365  0.3678 -0.4434
  141OSM    H2F15463   3.993   1.751   6.985  0.9266  0.4956  0.8434
  141OSM    H2G15464   4.056   1.884   6.862  1.2417  0.7303  0.6635
  141OSM    C3F15465   4.203   1.740   6.942 -0.2644 -0.1430 -0.4178
  141OSM    H3F15466   4.269   1.756   6.855 -1.3503  0.8648 -1.0845
  141OSM    H3G15467   4.208   1.633   6.973 -0.6983 -0.8589 -2.6405
  141OSM    C4F15468   4.259   1.834   7.057  0.7682 -0.5980  0.7420
  141OSM    H4F15469   4.260   1.936   7.014  0.6490 -0.6498  0.6177
  141OSM    H4G15470   4.365   1.806   7.071  0.5423 -1.5057  0.7215
  141OSM    C5F15471   4.187   1.824   7.196 -0.1265  0.2643  0.1820
  141OSM    H5F15472   4.222   1.728   7.240 -1.6648  0.0253  0.9588
  141OSM    H5G15473   4.078   1.815   7.176  0.2206 -0.4701 -1.6185
  141OSM    C6F15474   4.210   1.952   7.278  0.2339  0.2666  0.3774
  141OSM    H6F15475   4.143   1.948   7.366 -1.8187 -0.2237 -1.1307
  141OSM    H6G15476   4.186   2.047   7.226  0.9946  0.9058  1.1533
  141OSM    C7F15477   4.355   1.959   7.338  0.7637  0.3095 -0.0522
  141OSM    H7F15478   4.346   2.047   7.406 -1.8662 -0.3077  0.5299
  141OSM    H7G15479   4.428   1.983   7.259  0.8048  1.2747  0.2683
  141OSM    C8F15480   4.417   1.837   7.419 -0.6729  0.2112 -0.1041
  141OSM    H8F15481   4.519   1.860   7.456 -0.9310 -0.8074  1.3325
  141OSM    H8G15482   4.422   1.744   7.358 -0.4143  0.2745 -0.1817
  141OSM    C9F15483   4.325   1.800   7.533  1.0362 -0.1953 -0.4619
  141OSM    H9F15484   4.221   1.766   7.522  1.4730 -2.6036  1.8198
  141OSM   C10F15485   4.360   1.788   7.664  0.1764  0.2137 -0.3202
  141OSM   H10F15486   4.274   1.781   7.733 -0.9152  2.1566 -1.3983
  141OSM   C11F15487   4.498   1.797   7.728  0.4252  0.0106 -0.0488
  141OSM   H11F15488   4.528   1.904   7.722 -0.6244  0.3505  0.5600
  141OSM   H11G15489   4.567   1.746   7.658 -3.3079  0.0480 -4.1976
  141OSM   C12F15490   4.501   1.744   7.874 -0.1722 -0.4574  0.0715
  141OSM   H12F15491   4.451   1.645   7.882  2.4182 -1.8408  0.4048
  141OSM   H12G15492   4.452   1.814   7.945  0.1027 -1.4199  1.2423
  141OSM   C13F15493   4.641   1.727   7.930 -0.4610 -0.9354 -0.3318
  141OSM   H13F15494   4.694   1.817   7.892 -1.9451 -0.4837 -1.4080
  141OSM   H13G15495   4.669   1.632   7.881  0.3055 -0.4961 -0.7741
  141OSM   C14F15496   4.645   1.704   8.085 -0.4151 -0.3041 -0.1361
  141OSM   H14F15497   4.600   1.603   8.091 -1.3375 -0.0960 -2.4310
  141OSM   H14G15498   4.583   1.775   8.143  0.5370  0.6738 -0.2746
  141OSM   C15F15499   4.789   1.714   8.138 -0.2519  0.1914 -0.6415
  141OSM   H15F15500   4.794   1.699   8.248  0.0201 -2.8660 -0.9763
  141OSM   H15G15501   4.847   1.805   8.115  0.8604 -1.1607 -3.6162
  141OSM   C16F15502   4.880   1.606   8.088 -0.1350 -0.4115  0.3372
  141OSM   H16F15503   4.917   1.636   7.988  2.2168  0.9529  1.5292
  141OSM   H16G15504   4.829   1.508   8.071  0.9424 -0.7142 -1.3240
  141OSM   C17F15505   4.996   1.586   8.188 -0.0707  0.0355 -0.1343
  141OSM   H17F15506   5.013   1.682   8.243 -1.3371 -0.4768  1.2017
  141OSM   H17G15507   5.077   1.560   8.116 -0.4270 -2.0964  0.1831
  141OSM   C18F15508   4.966   1.477   8.299 -0.3107  0.3218 -0.1181
  141OSM   H18F15509   4.868   1.503   8.344 -0.9166  0.8811 -1.6927
  141OSM   H18G15510   5.036   1.483   8.385  0.5501 -1.4754 -0.6465
  141OSM   H18H15511   4.979   1.372   8.264  1.0080  0.3217  0.3026
  142OSM      N15512   2.733   3.996   6.381  0.0340  0.1840 -0.5068
  142OSM    C1515513   2.858   3.997   6.464 -0.6029 -0.4158 -0.0181
  142OSM   H15A15514   2.949   3.959   6.421  0.0091  0.6559  0.2877
  142OSM   H15B15515   2.835   3.931   6.546 -1.7584  0.9532  0.8059
  142OSM   H15C15516   2.878   4.094   6.506 -0.7533 -1.7321  3.4128
  142OSM    C1415517   2.739   4.089   6.258  0.1149  0.3519 -0.7628
  142OSM   H14A15518   2.656   4.087   6.189  1.7814  1.9907 -2.9813
  142OSM   H14B15519   2.820   4.060   6.193 -0.6001 -2.3911 -0.5420
  142OSM   H14C15520   2.755   4.194   6.281  2.5916 -0.1983  0.2837
  142OSM    C1315521   2.722   3.858   6.333 -0.2108  0.2573  0.8685
  142OSM   H13A15522   2.631   3.851   6.275  0.5482  2.5153 -0.7322
  142OSM   H13B15523   2.706   3.787   6.413  0.1814 -0.1121  0.6246
  142OSM   H13C15524   2.806   3.824   6.275  0.4721 -0.4268  2.2148
  142OSM    C1215525   2.614   4.030   6.462  0.3354 -0.6846 -0.2976
  142OSM   H12A15526   2.628   4.125   6.510 -0.0600 -1.2413  0.9773
  142OSM   H12B15527   2.605   3.975   6.555 -1.7926 -0.8999 -0.5805
  142OSM    C1115528   2.480   4.018   6.393  0.0809  0.3781  0.8368
  142OSM   H11A15529   2.458   3.923   6.340 -1.7305  0.8674  0.6527
  142OSM   H11B15530   2.475   4.098   6.316  0.3182 -0.4751 -0.0764
  142OSM      P15531   2.328   3.940   6.583  0.1599 -0.5938 -0.0118
  142OSM    O1315532   2.250   4.003   6.689  0.0750 -0.1001 -0.7188
  142OSM    O1415533   2.275   3.822   6.512 -0.5343  0.3171 -0.1233
  142OSM    O1115534   2.458   3.893   6.659  0.3181 -0.1759 -0.1610
  142OSM    O1215535   2.374   4.049   6.480 -0.0453 -0.1856  0.2909
  142OSM    C1S15536   2.516   3.961   6.770  0.0012 -0.4294 -0.0407
  142OSM    H1S15537   2.439   4.007   6.835  1.5517 -0.5639  2.0027
  142OSM    H1T15538   2.584   4.041   6.732  0.5785 -0.7009  0.3935
  142OSM     NF15539   2.637   3.914   6.971 -0.2128 -0.3065  0.3391
  142OSM    HNF15540   2.735   3.928   6.983  0.0686 -0.9946 -0.8837
  142OSM    C2S15541   2.598   3.855   6.841 -0.2866  0.7533 -0.3119
  142OSM    H2S15542   2.542   3.761   6.861  0.0536  1.0098  2.0839
  142OSM    C3S15543   2.720   3.808   6.749 -0.5110  0.1150  0.2367
  142OSM    H3S15544   2.765   3.894   6.696  0.3115  0.3187  1.2281
  142OSM     O315545   2.671   3.723   6.645  0.2636 -0.5767  0.8029
  142OSM    HO315546   2.577   3.741   6.650  0.4800  0.8584  0.1987
  142OSM    C4S15547   2.832   3.732   6.822 -0.0364 -0.1226 -0.2131
  142OSM    H4S15548   2.822   3.623   6.810  1.3777 -0.0870 -2.4142
  142OSM    C5S15549   2.939   3.789   6.880 -0.1754 -0.1573 -1.0494
  142OSM    H5S15550   2.947   3.897   6.896 -2.6093 -0.0606  0.0586
  142OSM    C6S15551   3.044   3.719   6.957  0.0936  0.3640  0.3173
  142OSM    H6S15552   3.141   3.728   6.905  0.2914 -3.0077 -0.1137
  142OSM    H6T15553   3.017   3.611   6.958  0.1199  0.3588  0.5461
  142OSM    C7S15554   3.064   3.780   7.099  0.4714 -0.7338 -1.0632
  142OSM    H7S15555   3.113   3.879   7.087 -1.9617  0.5576 -0.8482
  142OSM    H7T15556   3.133   3.709   7.150  2.0234  1.4830  0.1498
  142OSM    C8S15557   2.930   3.794   7.180 -0.4024  0.4795 -1.0319
  142OSM    H8S15558   2.848   3.730   7.143 -0.1108 -0.0337 -0.7985
  142OSM    H8T15559   2.899   3.901   7.178 -2.3310  0.0065  0.7543
  142OSM    C9S15560   2.948   3.759   7.328 -0.3487 -0.5588 -0.0310
  142OSM    H9S15561   2.987   3.658   7.350 -0.1099 -0.3592  0.4686
  142OSM    H9T15562   2.851   3.765   7.382  1.0171 -0.8839  2.6238
  142OSM   C10S15563   3.041   3.861   7.404  0.0094 -0.6828  0.1980
  142OSM   H10S15564   2.995   3.962   7.389  0.6967 -0.5385 -1.1373
  142OSM   H10T15565   3.138   3.862   7.349 -0.2679 -1.3823 -0.3217
  142OSM   C11S15566   3.062   3.841   7.547 -0.4119  0.1203  0.8546
  142OSM   H11S15567   3.120   3.747   7.557 -3.4192 -1.7744  1.5702
  142OSM   H11T15568   2.969   3.827   7.607 -0.3598 -0.7070  0.7479
  142OSM   C12S15569   3.148   3.947   7.610  0.0417 -0.2193 -0.0923
  142OSM   H12S15570   3.103   4.048   7.598 -1.8521 -1.0367 -0.2095
  142OSM   H12T15571   3.247   3.941   7.561 -0.5457  0.4607 -1.4167
  142OSM   C13S15572   3.167   3.914   7.760 -0.0283  0.4288  0.5317
  142OSM   H13S15573   3.184   3.808   7.789  1.1268  0.7294  0.9869
  142OSM   H13T15574   3.071   3.951   7.802 -0.3519 -0.0482  0.2314
  142OSM   C14S15575   3.292   3.987   7.813 -0.4133 -0.4143 -0.1202
  142OSM   H14S15576   3.309   4.081   7.757 -0.8472 -0.3215 -0.0962
  142OSM   H14T15577   3.375   3.916   7.789  0.7317  0.2790  1.5824
  142OSM   C15S15578   3.296   4.022   7.965 -0.6270 -0.2488  0.0821
  142OSM   H15S15579   3.271   3.926   8.015  0.9445  0.3652  2.1851
  142OSM   H15T15580   3.214   4.091   7.995 -0.2835  0.4357 -0.5078
  142OSM   C16S15581   3.433   4.056   8.020 -0.1121 -0.3737 -0.0829
  142OSM   H16S15582   3.470   4.154   7.982  0.9755 -1.2964 -1.5166
  142OSM   H16T15583   3.503   3.980   7.979 -0.0070  0.4620 -1.5286
  142OSM   C17S15584   3.432   4.070   8.174 -0.0142 -0.5227  0.3576
  142OSM   H17S15585   3.338   4.125   8.195 -1.0470 -1.8877 -0.4987
  142OSM   H17T15586   3.508   4.141   8.212  0.6789 -0.4277 -1.1414
  142OSM   C18S15587   3.427   3.932   8.236  0.5630  0.2779 -0.2463
  142OSM   H18S15588   3.397   3.938   8.342 -0.2292 -1.4406 -0.3272
  142OSM   H18T15589   3.519   3.868   8.235 -1.4929 -2.9446  0.4179
  142OSM   H18U15590   3.349   3.866   8.192  0.5026 -0.8852  1.5204
  142OSM    C1F15591   2.549   3.941   7.068 -1.0543 -0.4716 -0.3762
  142OSM     OF15592   2.436   3.897   7.056 -0.3897  0.2132 -0.7241
  142OSM    C2F15593   2.605   4.020   7.182 -0.3546 -0.3886 -0.5434
  142OSM    H2F15594   2.607   4.127   7.150  1.7413  0.2413  1.4356
  142OSM    H2G15595   2.714   4.001   7.191 -0.3542 -0.0521  0.2327
  142OSM    C3F15596   2.535   4.001   7.320 -0.5607 -0.7409 -0.4538
  142OSM    H3F15597   2.545   3.894   7.349  0.2010 -0.6864 -0.4839
  142OSM    H3G15598   2.427   4.020   7.303 -1.3796 -0.8505  3.5725
  142OSM    C4F15599   2.596   4.098   7.430 -0.2231  0.3849  0.0976
  142OSM    H4F15600   2.574   4.199   7.390  0.3823 -1.0256 -4.3620
  142OSM    H4G15601   2.705   4.074   7.430  0.0418  1.5334  0.0880
  142OSM    C5F15602   2.533   4.081   7.569 -0.1083 -0.2052  0.2875
  142OSM    H5F15603   2.567   3.984   7.611 -0.2647  0.0936  1.1311
  142OSM    H5G15604   2.422   4.082   7.556  0.0428  1.3325 -1.3709
  142OSM    C6F15605   2.573   4.199   7.662  0.4249  0.1553 -0.6588
  142OSM    H6F15606   2.551   4.297   7.616 -1.3165 -0.1715 -0.5664
  142OSM    H6G15607   2.684   4.192   7.669  0.5235  1.5772 -0.4495
  142OSM    C7F15608   2.518   4.185   7.801 -0.2637  0.5793  0.2056
  142OSM    H7F15609   2.541   4.087   7.847  2.4618  0.7799 -0.5552
  142OSM    H7G15610   2.410   4.198   7.776  0.2033  0.8817 -1.7904
  142OSM    C8F15611   2.570   4.305   7.882 -0.1834  0.4236  0.3075
  142OSM    H8F15612   2.572   4.395   7.816 -2.4512  1.8704  2.0416
  142OSM    H8G15613   2.674   4.278   7.907  0.6256  3.4961  0.7394
  142OSM    C9F15614   2.497   4.334   7.999 -0.0203  0.1760 -0.3490
  142OSM    H9F15615   2.404   4.388   7.975 -0.6532 -0.2446  1.0548
  142OSM   C10F15616   2.522   4.299   8.128  0.6772 -0.8396 -0.2914
  142OSM   H10F15617   2.450   4.331   8.205  2.9607 -0.9892  2.0390
  142OSM   C11F15618   2.628   4.199   8.178 -0.7872  0.4397  0.2113
  142OSM   H11F15619   2.664   4.134   8.096  1.1520  0.4794  0.9918
  142OSM   H11G15620   2.585   4.130   8.254 -0.1810 -1.8600 -1.4176
  142OSM   C12F15621   2.750   4.276   8.248  0.1922 -0.0464  1.1110
  142OSM   H12F15622   2.707   4.325   8.339 -0.2905 -0.4203  1.0922
  142OSM   H12G15623   2.789   4.357   8.183 -1.4450 -0.2407 -0.1882
  142OSM   C13F15624   2.864   4.184   8.296 -0.5314  0.0229 -0.0515
  142OSM   H13F15625   2.921   4.168   8.202  0.6197  0.4198  0.5602
  142OSM   H13G15626   2.819   4.088   8.331  1.2918 -0.1059  2.1357
  142OSM   C14F15627   2.945   4.234   8.418 -0.3800  0.1031  0.0766
  142OSM   H14F15628   2.883   4.268   8.504 -0.7060  3.3102 -1.2824
  142OSM   H14G15629   3.010   4.324   8.414 -0.5159  0.2095  0.2413
  142OSM   C15F15630   3.043   4.124   8.463 -0.6464  0.1311  0.0836
  142OSM   H15F15631   3.095   4.101   8.368 -1.2004 -0.4027 -0.0970
  142OSM   H15G15632   2.982   4.037   8.495  0.3801 -0.7428 -0.2838
  142OSM   C16F15633   3.146   4.164   8.576 -0.3724  0.1989 -0.2271
  142OSM   H16F15634   3.095   4.149   8.674 -1.4987  0.0864 -0.8074
  142OSM   H16G15635   3.169   4.272   8.567 -2.0364  0.4303 -3.4203
  142OSM   C17F15636   3.277   4.082   8.573  0.8957  0.9409  0.0787
  142OSM   H17F15637   3.348   4.119   8.649 -0.3309 -0.1348  1.8120
  142OSM   H17G15638   3.333   4.110   8.481  1.8992  0.2895  0.4706
  142OSM   C18F15639   3.253   3.931   8.584  0.5688  0.2238  0.2524
  142OSM   H18F15640   3.347   3.877   8.560  0.7799  0.8523 -0.3895
  142OSM   H18G15641   3.185   3.903   8.501  3.0785  0.3459 -2.0064
  142OSM   H18H15642   3.224   3.912   8.689 -0.4113 -0.7168 -0.1719
  143OSM      N15643   3.850   4.814   6.098 -0.8931 -0.4691  0.9264
  143OSM    C1515644   3.797   4.782   5.960 -0.2027  0.9610 -0.6334
  143OSM   H15A15645   3.718   4.849   5.929 -1.0801  0.3446  0.2227
  143OSM   H15B15646   3.738   4.692   5.959  2.7330 -1.2239  2.6616
  143OSM   H15C15647   3.870   4.773   5.881 -1.4583 -0.9386 -1.6408
  143OSM    C1415648   3.962   4.719   6.146 -0.2760 -0.6025 -0.1309
  143OSM   H14A15649   4.024   4.762   6.224  1.8079 -1.3288 -1.2914
  143OSM   H14B15650   4.035   4.715   6.067  0.5620 -0.6879  0.6286
  143OSM   H14C15651   3.936   4.622   6.186  1.3700  0.1285  3.0734
  143OSM    C1315652   3.897   4.954   6.069 -0.1705 -0.0850 -0.2701
  143OSM   H13A15653   3.934   5.005   6.156 -0.1507 -0.1687 -0.2292
  143OSM   H13B15654   3.824   5.018   6.022  0.1278 -0.4508 -1.2581
  143OSM   H13C15655   3.983   4.950   6.004  0.8614  0.1209  1.0453
  143OSM    C1215656   3.725   4.825   6.187 -0.0893 -0.6990  0.1537
  143OSM   H12A15657   3.650   4.751   6.166 -0.8461 -0.0563  0.4996
  143OSM   H12B15658   3.672   4.915   6.158 -1.0142 -1.7602 -1.6084
  143OSM    C1115659   3.738   4.837   6.343 -0.0042  0.3498  0.7977
  143OSM   H11A15660   3.772   4.734   6.366 -0.8361 -0.2625 -0.5426
  143OSM   H11B15661   3.643   4.853   6.398  0.4567  1.5493  1.2659
  143OSM      P15662   3.796   5.085   6.380  0.2024  0.0281 -0.2081
  143OSM    O1315663   3.921   5.147   6.332  1.4205  0.0400  0.2651
  143OSM    O1415664   3.681   5.108   6.290 -0.1007 -0.5259  0.3678
  143OSM    O1115665   3.767   5.136   6.530 -0.1825  0.0903 -0.4763
  143OSM    O1215666   3.832   4.936   6.389  0.6875  0.2750 -0.3352
  143OSM    C1S15667   3.879   5.117   6.624  0.3081 -0.4856  0.5876
  143OSM    H1S15668   3.952   5.199   6.611 -0.2840  0.0133  0.3663
  143OSM    H1T15669   3.934   5.021   6.609  0.6179 -0.1059 -0.8731
  143OSM     NF15670   3.956   5.129   6.859  0.1143 -0.0220  0.1634
  143OSM    HNF15671   3.982   5.044   6.904 -1.4290 -1.4101 -1.4485
  143OSM    C2S15672   3.833   5.133   6.774 -0.1372 -0.2258 -0.8796
  143OSM    H2S15673   3.785   5.233   6.782 -0.1763 -0.1392 -2.0962
  143OSM    C3S15674   3.725   5.027   6.805  0.5495 -0.3210 -0.1549
  143OSM    H3S15675   3.764   4.924   6.818  1.0701  0.1048  2.2414
  143OSM     O315676   3.621   5.017   6.706 -0.0100 -0.2697 -0.5129
  143OSM    HO315677   3.660   5.065   6.632 -1.8434  0.4513 -1.0643
  143OSM    C4S15678   3.677   5.073   6.937  0.0019 -0.4597  0.0117
  143OSM    H4S15679   3.749   5.079   7.020 -0.2308  3.0299  0.1218
  143OSM    C5S15680   3.553   5.130   6.959  0.0023  0.3016  1.2144
  143OSM    H5S15681   3.497   5.156   6.868 -0.1565 -0.9879  0.9244
  143OSM    C6S15682   3.501   5.195   7.088 -0.4984  0.2428 -0.1101
  143OSM    H6S15683   3.428   5.130   7.140 -0.6563  1.1335  0.8314
  143OSM    H6T15684   3.438   5.279   7.050 -1.0662 -0.1907 -0.1348
  143OSM    C7S15685   3.602   5.254   7.189 -0.6372  0.8611  0.0759
  143OSM    H7S15686   3.543   5.316   7.259 -0.9880  1.0557 -0.3879
  143OSM    H7T15687   3.679   5.315   7.137  0.0712  0.0132  0.1088
  143OSM    C8S15688   3.659   5.139   7.273  0.2549 -0.1873  0.0613
  143OSM    H8S15689   3.701   5.059   7.207 -1.9647  0.5018 -2.3518
  143OSM    H8T15690   3.572   5.094   7.326  0.4759 -0.3853  0.2597
  143OSM    C9S15691   3.756   5.192   7.383  0.6195 -0.2605  0.2091
  143OSM    H9S15692   3.704   5.277   7.433 -0.4528 -0.9230  0.2604
  143OSM    H9T15693   3.857   5.225   7.350  0.3298 -1.4871 -2.0868
  143OSM   C10S15694   3.778   5.079   7.491  0.3273  0.0450  0.8479
  143OSM   H10S15695   3.838   5.007   7.432  1.9824  0.7082  1.6735
  143OSM   H10T15696   3.687   5.019   7.513 -1.5591  1.7785 -1.6269
  143OSM   C11S15697   3.843   5.133   7.617 -0.0454  0.3570 -0.7681
  143OSM   H11S15698   3.845   5.053   7.694 -0.5433  1.7289  0.7299
  143OSM   H11T15699   3.787   5.217   7.663 -0.5363  1.2971 -2.9653
  143OSM   C12S15700   3.995   5.169   7.593 -0.1835 -0.0051 -0.0976
  143OSM   H12S15701   3.991   5.249   7.516 -6.0782  1.3317  1.1169
  143OSM   H12T15702   4.051   5.082   7.553  2.0835  1.7344 -0.9644
  143OSM   C13S15703   4.066   5.231   7.716  0.0224 -0.5264 -0.8878
  143OSM   H13S15704   3.997   5.313   7.748 -0.0038 -0.6783 -0.5538
  143OSM   H13T15705   4.164   5.273   7.685 -1.2072  2.6744 -0.8584
  143OSM   C14S15706   4.072   5.140   7.839 -0.3325  0.4757  0.3475
  143OSM   H14S15707   4.135   5.055   7.805 -2.6156 -1.2667  0.2495
  143OSM   H14T15708   3.975   5.097   7.875  0.6107  0.5214  3.2354
  143OSM   C15S15709   4.133   5.204   7.954 -0.0854 -0.4250  0.1047
  143OSM   H15S15710   4.085   5.303   7.969 -2.2151 -1.2973 -0.6148
  143OSM   H15T15711   4.243   5.217   7.941 -0.1461 -0.4199 -0.4204
  143OSM   C16S15712   4.114   5.125   8.083  0.4367 -0.1628 -0.2572
  143OSM   H16S15713   4.131   5.016   8.072 -1.2526 -0.3960 -0.9669
  143OSM   H16T15714   4.013   5.138   8.127  1.5169 -0.6091  2.5779
  143OSM   C17S15715   4.205   5.168   8.196 -0.0718  0.2017  0.3217
  143OSM   H17S15716   4.186   5.276   8.210 -2.2903  0.6404 -4.3373
  143OSM   H17T15717   4.313   5.163   8.167  0.7452  0.6034  3.0485
  143OSM   C18S15718   4.181   5.103   8.339 -0.2493  0.2791  0.0002
  143OSM   H18S15719   4.262   5.145   8.403  0.2548  0.1229 -0.5290
  143OSM   H18T15720   4.191   4.993   8.348  0.5634  0.4439  1.5019
  143OSM   H18U15721   4.078   5.120   8.376 -0.9284 -3.4692  0.2257
  143OSM    C1F15722   4.045   5.232   6.873  0.7213  0.1288 -0.2005
  143OSM     OF15723   4.040   5.330   6.797  0.3867  0.3080 -0.2828
  143OSM    C2F15724   4.138   5.220   6.991  0.0603 -0.1005  0.0659
  143OSM    H2F15725   4.173   5.117   7.016  0.1121  0.6878  3.9072
  143OSM    H2G15726   4.082   5.245   7.084  1.2574  3.0716  0.0685
  143OSM    C3F15727   4.256   5.315   6.975 -0.4503  0.3262 -0.2090
  143OSM    H3F15728   4.223   5.420   6.969 -1.1449  0.0946 -0.5424
  143OSM    H3G15729   4.310   5.281   6.884 -0.4065  1.6533 -0.6962
  143OSM    C4F15730   4.356   5.305   7.091  0.7767 -0.2786 -0.1280
  143OSM    H4F15731   4.452   5.344   7.050  1.9393 -0.7428  1.9921
  143OSM    H4G15732   4.361   5.198   7.123 -4.4721 -0.3776  1.3500
  143OSM    C5F15733   4.294   5.367   7.227  0.1585 -0.1017  0.8847
  143OSM    H5F15734   4.226   5.292   7.271 -0.0573  0.3745  1.3673
  143OSM    H5G15735   4.232   5.454   7.196 -1.8697 -1.5018  0.8400
  143OSM    C6F15736   4.396   5.411   7.333  0.3756  0.9048  0.5327
  143OSM    H6F15737   4.460   5.486   7.282 -2.8151  1.5348 -3.0384
  143OSM    H6G15738   4.463   5.325   7.354  1.9416  2.2279  1.1344
  143OSM    C7F15739   4.332   5.464   7.461  0.3540 -0.0497 -0.5952
  143OSM    H7F15740   4.260   5.395   7.509  1.3152 -0.3169  0.4973
  143OSM    H7G15741   4.278   5.559   7.441 -1.1177 -0.8051 -0.3578
  143OSM    C8F15742   4.441   5.500   7.571  0.0780  0.1146  0.4615
  143OSM    H8F15743   4.395   5.557   7.655  1.3142  1.4675  0.2539
  143OSM    H8G15744   4.516   5.566   7.524 -0.3250 -2.2658 -4.1453
  143OSM    C9F15745   4.502   5.375   7.630 -0.4378 -0.2601 -0.0221
  143OSM    H9F15746   4.522   5.288   7.565  2.3301 -1.6001  2.4207
  143OSM   C10F15747   4.504   5.344   7.764 -0.2063 -0.1072  0.5465
  143OSM   H10F15748   4.547   5.247   7.793 -1.7346 -0.5933  1.3396
  143OSM   C11F15749   4.459   5.427   7.879  0.9351 -0.2081 -0.5084
  143OSM   H11F15750   4.351   5.449   7.864  1.4199  0.1890 -4.6647
  143OSM   H11G15751   4.516   5.522   7.878  2.0403 -0.7090  3.0038
  143OSM   C12F15752   4.480   5.355   8.014 -0.4742  0.2016 -0.1401
  143OSM   H12F15753   4.414   5.266   8.026 -1.2302  0.1443 -3.6837
  143OSM   H12G15754   4.444   5.423   8.094 -1.0794 -0.9604  0.6050
  143OSM   C13F15755   4.624   5.314   8.045  0.5421  0.0320  0.6399
  143OSM   H13F15756   4.699   5.383   8.001 -0.5163  0.6715 -0.2271
  143OSM   H13G15757   4.640   5.215   7.996 -1.8495  0.6762 -1.7103
  143OSM   C14F15758   4.643   5.303   8.193 -0.2004 -0.5123  0.7033
  143OSM   H14F15759   4.561   5.247   8.243 -1.9705  0.3149 -1.0800
  143OSM   H14G15760   4.630   5.411   8.213  0.2142 -0.1398 -0.8641
  143OSM   C15F15761   4.782   5.259   8.247  0.1682 -0.0341 -0.9920
  143OSM   H15F15762   4.875   5.306   8.210  1.3834 -0.5853  1.1305
  143OSM   H15G15763   4.790   5.150   8.225 -1.9000 -0.0870 -1.7735
  143OSM   C16F15764   4.797   5.282   8.402 -0.1828  0.2602  0.1049
  143OSM   H16F15765   4.740   5.204   8.459  0.2487 -0.8181 -0.8993
  143OSM   H16G15766   4.741   5.375   8.426  3.6270  1.9367  3.6658
  143OSM   C17F15767   4.944   5.290   8.448 -0.1803  0.3540 -0.3639
  143OSM   H17F15768   4.993   5.367   8.385 -0.7528  0.2640 -0.9223
  143OSM   H17G15769   4.988   5.189   8.438 -0.8049  0.2244 -2.0401
  143OSM   C18F15770   4.960   5.341   8.590  0.5086 -0.3281 -0.2519
  143OSM   H18F15771   5.064   5.347   8.628  0.1406 -0.1193  0.7740
  143OSM   H18G15772   4.909   5.271   8.660  0.8795 -0.3981 -0.0485
  143OSM   H18H15773   4.913   5.440   8.603 -0.7294 -0.8195 -0.7955
  144OSM      N15774   3.128   5.238   6.082 -0.1726 -0.0490 -0.0868
  144OSM    C1515775   2.986   5.246   6.046  0.0212  0.1346 -0.3274
  144OSM   H15A15776   2.940   5.286   6.135  1.4421 -3.0359  2.0109
  144OSM   H15B15777   2.950   5.149   6.013  0.6362  0.9377 -3.7824
  144OSM   H15C15778   2.965   5.310   5.961 -0.1301 -0.7477 -0.9659
  144OSM    C1415779   3.205   5.154   5.989  0.0805 -0.0141 -0.6209
  144OSM   H14A15780   3.186   5.196   5.892  0.3418 -0.4709 -0.8733
  144OSM   H14B15781   3.158   5.057   5.987 -0.2322  0.1314 -0.3027
  144OSM   H14C15782   3.311   5.148   6.012 -0.1644  0.0879  0.6341
  144OSM    C1315783   3.171   5.379   6.069  1.1139 -0.1498 -0.7104
  144OSM   H13A15784   3.267   5.393   6.117  0.3357 -0.6836  1.0894
  144OSM   H13B15785   3.095   5.440   6.115  1.0619 -0.2580 -0.6524
  144OSM   H13C15786   3.178   5.409   5.965 -0.3666 -2.0035 -1.3960
  144OSM    C1215787   3.161   5.182   6.217 -0.3855 -0.2329  0.1194
  144OSM   H12A15788   3.268   5.171   6.232 -0.2919  1.5763  1.1452
  144OSM   H12B15789   3.122   5.082   6.217  1.1931 -0.8878  0.7124
  144OSM    C1115790   3.102   5.266   6.343 -0.2936  0.1461  1.1255
  144OSM   H11A15791   3.147   5.367   6.352 -0.4355  0.2161  1.0628
  144OSM   H11B15792   3.135   5.219   6.438 -2.8608  0.4778  2.2682
  144OSM      P15793   2.872   5.175   6.412  0.3004  0.3805  0.0936
  144OSM    O1315794   2.733   5.224   6.409  0.3149 -0.0864  0.3363
  144OSM    O1415795   2.890   5.033   6.368  0.0391  0.6447 -0.3753
  144OSM    O1115796   2.921   5.175   6.564  0.0967 -0.6820  0.5300
  144OSM    O1215797   2.961   5.281   6.334  0.0612 -0.0941  0.0608
  144OSM    C1S15798   2.924   5.303   6.630  1.0003  0.6834  0.4070
  144OSM    H1S15799   2.826   5.352   6.612  1.2474  1.6028  1.4559
  144OSM    H1T15800   3.000   5.377   6.595  1.8542 -1.1748 -1.8811
  144OSM     NF15801   2.916   5.420   6.857  0.0960 -0.0832 -0.2924
  144OSM    HNF15802   2.996   5.462   6.900  0.2901 -1.2645  0.5430
  144OSM    C2S15803   2.924   5.295   6.788 -0.6382  0.3377  0.1073
  144OSM    H2S15804   2.831   5.238   6.813  0.1124 -1.3882 -0.8734
  144OSM    C3S15805   3.050   5.207   6.832  0.0101 -0.0328  0.1636
  144OSM    H3S15806   3.136   5.278   6.826 -1.9232  2.3881 -0.8896
  144OSM     O315807   3.076   5.093   6.756  0.1971  0.8262 -0.3678
  144OSM    HO315808   3.006   5.103   6.690  1.4027 -1.0397 -2.0458
  144OSM    C4S15809   3.032   5.170   6.979 -0.5305 -0.2551 -0.1703
  144OSM    H4S15810   2.935   5.120   6.992 -1.5685  1.3526 -1.2510
  144OSM    C5S15811   3.114   5.195   7.084  0.3904  0.2547 -0.0885
  144OSM    H5S15812   3.212   5.241   7.066  0.9585 -0.9885 -0.2316
  144OSM    C6S15813   3.078   5.170   7.234  0.1556  0.3751  0.5297
  144OSM    H6S15814   3.160   5.111   7.281  1.5028  2.9031  1.5364
  144OSM    H6T15815   2.990   5.103   7.247  1.1297 -1.0007  0.2503
  144OSM    C7S15816   3.038   5.288   7.317 -0.2743 -0.1646 -0.4097
  144OSM    H7S15817   2.938   5.316   7.277 -1.1075 -0.9979  1.0181
  144OSM    H7T15818   3.111   5.372   7.317  0.7363 -1.0207  0.0340
  144OSM    C8S15819   3.006   5.245   7.464 -0.0502  0.4003  0.2606
  144OSM    H8S15820   3.092   5.190   7.508 -0.4916  0.0071  0.6481
  144OSM    H8T15821   2.936   5.159   7.452  1.5709 -0.8064 -1.2348
  144OSM    C9S15822   2.952   5.345   7.576 -0.0111  0.1173 -0.2641
  144OSM    H9S15823   2.847   5.377   7.556 -0.0665  3.4074  3.8709
  144OSM    H9T15824   3.005   5.442   7.573 -1.8941  1.2693  1.2267
  144OSM   C10S15825   2.955   5.296   7.716 -0.0991  0.3940 -0.9155
  144OSM   H10S15826   3.058   5.259   7.738 -0.5582 -0.6159 -0.3606
  144OSM   H10T15827   2.875   5.223   7.741 -1.2814  1.5791 -1.1424
  144OSM   C11S15828   2.916   5.414   7.808  0.0122  0.5625  0.7256
  144OSM   H11S15829   2.812   5.443   7.785 -0.3164  1.5968  3.1227
  144OSM   H11T15830   2.979   5.506   7.804 -0.1770  0.7041  0.9260
  144OSM   C12S15831   2.909   5.376   7.952 -0.0212  0.0135 -0.2620
  144OSM   H12S15832   2.868   5.275   7.976  1.5043 -0.3450  1.0201
  144OSM   H12T15833   2.843   5.443   8.010 -1.8211 -1.8785 -0.0034
  144OSM   C13S15834   3.041   5.379   8.028  0.5734 -0.4127 -0.7865
  144OSM   H13S15835   3.095   5.473   8.004 -0.5013 -0.0009 -1.6396
  144OSM   H13T15836   3.102   5.300   7.979  1.2005  0.0559 -0.7769
  144OSM   C14S15837   3.030   5.358   8.176  0.8102  0.3290  0.1536
  144OSM   H14S15838   2.990   5.258   8.203 -0.5948  0.6863 -0.5146
  144OSM   H14T15839   2.952   5.429   8.208  1.3730  0.3869  1.4629
  144OSM   C15S15840   3.155   5.385   8.245 -0.7597 -0.2522 -0.1440
  144OSM   H15S15841   3.134   5.361   8.352  1.7497  1.8768  0.9304
  144OSM   H15T15842   3.189   5.491   8.248  2.1971 -1.0577 -1.9063
  144OSM   C16S15843   3.273   5.304   8.195  0.0175  0.1141  0.7650
  144OSM   H16S15844   3.285   5.308   8.084 -0.4578 -0.4728  0.6885
  144OSM   H16T15845   3.258   5.196   8.217 -0.0037 -0.2352 -0.7873
  144OSM   C17S15846   3.399   5.327   8.272 -0.1836  0.1769 -0.0620
  144OSM   H17S15847   3.391   5.278   8.372 -1.7180 -3.0972 -1.6116
  144OSM   H17T15848   3.423   5.434   8.285  0.1955  0.1650 -0.6468
  144OSM   C18S15849   3.514   5.268   8.195  0.7930 -0.7707  0.0800
  144OSM   H18S15850   3.604   5.270   8.260  0.1833 -1.9106  0.9898
  144OSM   H18T15851   3.526   5.320   8.097 -1.3436 -0.7399 -0.2068
  144OSM   H18U15852   3.492   5.159   8.185  1.6281 -1.0411  1.0514
  144OSM    C1F15853   2.807   5.500   6.843 -0.5867  0.3078 -0.4794
  144OSM     OF15854   2.704   5.447   6.812  0.0136  0.1373 -0.2192
  144OSM    C2F15855   2.825   5.647   6.855  0.0860 -0.0258 -0.3433
  144OSM    H2F15856   2.808   5.691   6.754 -0.7038  0.1287 -0.1487
  144OSM    H2G15857   2.927   5.682   6.882  0.0740 -0.1623 -0.1176
  144OSM    C3F15858   2.705   5.699   6.939 -0.2863 -0.3929 -0.9357
  144OSM    H3F15859   2.605   5.657   6.915 -0.3321 -0.0779 -1.2893
  144OSM    H3G15860   2.692   5.806   6.913 -0.6274 -0.6426 -1.8379
  144OSM    C4F15861   2.721   5.710   7.094  0.2961  0.8718  0.2183
  144OSM    H4F15862   2.825   5.743   7.114  2.0182 -2.1836 -2.6733
  144OSM    H4G15863   2.701   5.608   7.133  1.2466 -0.0397 -1.5611
  144OSM    C5F15864   2.624   5.798   7.174 -0.0918  0.2363  0.1221
  144OSM    H5F15865   2.521   5.757   7.166 -0.2966  0.5045  1.2233
  144OSM    H5G15866   2.617   5.894   7.117 -1.0243  0.5080  0.6708
  144OSM    C6F15867   2.670   5.847   7.307 -0.2044  0.0778 -0.2146
  144OSM    H6F15868   2.766   5.901   7.291 -0.9874  1.9988  1.2414
  144OSM    H6G15869   2.691   5.764   7.378 -0.6763 -0.4683 -0.7024
  144OSM    C7F15870   2.577   5.956   7.359  0.1597  0.0672 -0.2930
  144OSM    H7F15871   2.480   5.909   7.387 -0.2727 -0.8600 -3.0145
  144OSM    H7G15872   2.541   6.023   7.278 -2.1943 -0.0761  0.5516
  144OSM    C8F15873   2.629   6.050   7.475  0.0412  0.5789  0.4587
  144OSM    H8F15874   2.551   6.121   7.509  0.3591  0.8307  0.6706
  144OSM    H8G15875   2.711   6.106   7.426  0.3875 -1.5980 -1.6451
  144OSM    C9F15876   2.694   5.970   7.588 -0.2247  0.2884 -0.5796
  144OSM    H9F15877   2.780   5.911   7.553  1.1210  0.1837  2.5356
  144OSM   C10F15878   2.673   5.985   7.722 -0.0673 -0.5876  0.4369
  144OSM   H10F15879   2.722   5.915   7.792  2.0269 -1.5520 -1.8346
  144OSM   C11F15880   2.577   6.079   7.784 -0.0789  0.4078 -0.3066
  144OSM   H11F15881   2.495   6.117   7.720 -1.0100 -1.1489 -0.0566
  144OSM   H11G15882   2.634   6.167   7.822 -1.3306  0.4605  1.5182
  144OSM   C12F15883   2.504   6.031   7.913 -0.0360 -0.4248  0.4403
  144OSM   H12F15884   2.445   5.939   7.893 -2.0842  0.9000  0.0326
  144OSM   H12G15885   2.435   6.112   7.945  1.5018  1.0765  0.1291
  144OSM   C13F15886   2.597   6.016   8.038 -0.1437  0.6053  0.1906
  144OSM   H13F15887   2.678   5.943   8.016 -2.2630 -2.3629  1.4618
  144OSM   H13G15888   2.535   5.958   8.109 -3.1653  3.9335  0.5635
  144OSM   C14F15889   2.644   6.136   8.119  0.9452 -0.5375  0.6109
  144OSM   H14F15890   2.558   6.204   8.140  0.7382 -0.9885  1.2713
  144OSM   H14G15891   2.714   6.197   8.057 -3.0394  1.2288 -2.6123
  144OSM   C15F15892   2.701   6.092   8.256  0.4982  0.1339  0.7064
  144OSM   H15F15893   2.760   5.998   8.249 -0.2233 -0.2171 -2.0506
  144OSM   H15G15894   2.616   6.062   8.322  0.2344 -0.6719  0.0200
  144OSM   C16F15895   2.791   6.204   8.311  0.3434  0.3049 -0.2330
  144OSM   H16F15896   2.853   6.245   8.229 -0.5762 -0.8397 -1.5590
  144OSM   H16G15897   2.860   6.167   8.390  0.9434  2.5795  0.3868
  144OSM   C17F15898   2.710   6.313   8.376  0.3204  0.0294  0.3812
  144OSM   H17F15899   2.632   6.267   8.441 -0.5518 -0.8637 -1.2206
  144OSM   H17G15900   2.659   6.372   8.297 -0.3169 -0.9507  0.0401
  144OSM   C18F15901   2.784   6.422   8.456  0.3743 -1.1023 -0.5723
  144OSM   H18F15902   2.854   6.384   8.534  1.6766  1.6125 -0.3024
  144OSM   H18G15903   2.718   6.500   8.499  0.2838 -1.5990  0.2145
  144OSM   H18H15904   2.847   6.474   8.381  1.6977  0.2918  1.4149
  145SAPE     N15905   1.371   0.600  10.703 -0.9217  0.1011  0.3765
  145SAPE   HN115906   1.361   0.574  10.803 -1.1516  0.2762  0.3994
  145SAPE   HN215907   1.425   0.689  10.696  1.0604 -1.1384 -1.2858
  145SAPE   HN315908   1.273   0.617  10.672 -1.6463 -0.5449  2.1854
  145SAPE   C1215909   1.443   0.484  10.642 -0.0344  0.4351  0.3698
  145SAPE  H12A15910   1.469   0.494  10.535  1.6794  1.5553  0.8410
  145SAPE  H12B15911   1.386   0.389  10.643  1.6690 -0.6461 -0.0485
  145SAPE   C1115912   1.575   0.465  10.714 -0.2973  0.2297 -0.0850
  145SAPE  H11A15913   1.560   0.431  10.819  1.1399 -2.0916 -0.5717
  145SAPE  H11B15914   1.632   0.561  10.718 -0.7805  0.5248 -0.1880
  145SAPE     P15915   1.808   0.384  10.616  0.2452 -0.3001  0.5673
  145SAPE   O1315916   1.871   0.422  10.743  0.0652 -0.4003  0.1942
  145SAPE   O1415917   1.862   0.265  10.548  0.3207 -0.1450 -0.3430
  145SAPE   O1215918   1.647   0.360  10.642 -0.1611 -0.0319 -0.4501
  145SAPE   O1115919   1.802   0.504  10.516 -0.1111 -0.0931  0.4533
  145SAPE    C115920   1.750   0.491  10.377 -0.5076 -0.8900  0.1709
  145SAPE    HA15921   1.658   0.429  10.367 -0.5068 -1.5203  3.1760
  145SAPE    HB15922   1.722   0.593  10.345 -1.0152 -0.5037  1.7563
  145SAPE    C215923   1.852   0.429  10.282 -0.1105 -0.3042 -0.6196
  145SAPE    HS15924   1.895   0.333  10.319 -1.4493  0.2290  2.6207
  145SAPE   O2115925   1.962   0.524  10.277  0.0932  0.1827  0.4130
  145SAPE   C2115926   2.086   0.479  10.248  0.1441 -0.0667 -0.6856
  145SAPE   O2215927   2.113   0.361  10.230 -0.1946 -0.2918 -0.0436
  145SAPE   C2215928   2.192   0.583  10.253  1.6567 -0.4131 -0.2539
  145SAPE   H2R15929   2.200   0.616  10.147 -0.9848  2.0724  0.1969
  145SAPE   H2S15930   2.155   0.662  10.322 -0.4083 -1.3707 -0.1825
  145SAPE    C315931   1.786   0.420  10.138  1.0084  0.7165  0.3033
  145SAPE    HX15932   1.745   0.519  10.105  2.0753  0.4733 -1.9670
  145SAPE    HY15933   1.702   0.349  10.157 -0.2856  2.0384 -0.2479
  145SAPE   O3115934   1.870   0.367  10.032 -0.2254  0.5858 -0.4545
  145SAPE   C3115935   1.893   0.239  10.034  0.5066  0.5356  1.1152
  145SAPE   O3215936   1.854   0.157  10.118 -0.1947 -0.2791 -0.3277
  145SAPE   C3215937   1.951   0.188   9.901 -0.2137 -0.3320  0.4248
  145SAPE   H2X15938   1.986   0.083   9.914 -1.1468 -0.8565 -1.0131
  145SAPE   H2Y15939   2.042   0.251   9.883  1.0414 -1.7225  1.5970
  145SAPE   C2315940   2.327   0.530  10.312  0.3629 -0.2927  0.7872
  145SAPE   H3R15941   2.368   0.442  10.259 -0.2375 -2.3838  3.5640
  145SAPE   H3S15942   2.318   0.486  10.414  0.6627 -0.5963  0.6856
  145SAPE   C2415943   2.434   0.639  10.312  0.0968 -0.9242 -0.0403
  145SAPE   H4R15944   2.533   0.596  10.340  0.7260  0.7090  0.3527
  145SAPE   H4S15945   2.403   0.713  10.389 -1.4104 -2.9884  1.4411
  145SAPE   C2515946   2.450   0.699  10.176  0.0802  0.6207 -0.4697
  145SAPE   H5R15947   2.439   0.628  10.093  3.0064 -2.2458  1.3484
  145SAPE   C2615948   2.472   0.824  10.145 -0.2810 -0.4545  0.0371
  145SAPE   H6R15949   2.484   0.851  10.039  0.9235  2.3051  0.7763
  145SAPE   C2715950   2.500   0.935  10.240  0.6908 -0.0212 -1.2540
  145SAPE   H7R15951   2.596   0.983  10.213  1.9477 -2.8289 -2.1916
  145SAPE   H7S15952   2.519   0.893  10.341  0.8242 -1.9400 -2.0226
  145SAPE   C2815953   2.386   1.039  10.253  0.2821 -0.5843  0.2066
  145SAPE   H8R15954   2.349   1.053  10.356 -1.6432  2.8935 -0.8004
  145SAPE   C2915955   2.339   1.122  10.156 -0.4542  0.1062  0.6347
  145SAPE   H9R15956   2.249   1.182  10.178 -1.4108 -1.1292  0.2212
  145SAPE  C21015957   2.401   1.137  10.016 -0.0045  0.6410 -0.6825
  145SAPE  H10R15958   2.343   1.061   9.959  1.0250 -0.9321  0.2880
  145SAPE  H10S15959   2.508   1.106  10.009 -0.5366 -1.0020 -2.0391
  145SAPE  C21115960   2.380   1.278   9.961  0.0482 -0.1870 -0.2876
  145SAPE  H11R15961   2.306   1.339  10.014  1.1046 -0.2807  1.3655
  145SAPE  C21215962   2.427   1.321   9.844 -0.2927  0.5708  0.2765
  145SAPE  H12R15963   2.396   1.420   9.807  0.6474  0.6728 -0.2587
  145SAPE  C21315964   2.534   1.248   9.762  0.7488  0.0417  0.7803
  145SAPE  H13R15965   2.495   1.180   9.684  0.7141  0.5699  0.3324
  145SAPE  H13S15966   2.585   1.175   9.829 -2.4624 -0.3674  2.9777
  145SAPE  C21415967   2.635   1.337   9.699  1.0703  0.2200 -0.3298
  145SAPE  H14R15968   2.674   1.413   9.769  2.7164 -0.8668 -0.0269
  145SAPE  C21515969   2.667   1.359   9.569  1.0003 -0.1886  0.2564
  145SAPE  H15R15970   2.742   1.435   9.544  1.0096 -1.0116 -2.6275
  145SAPE  C21615971   2.597   1.301   9.447  0.2909 -0.6104  0.0416
  145SAPE  H16R15972   2.544   1.383   9.394 -0.2252 -1.8231 -1.4104
  145SAPE  H16S15973   2.527   1.221   9.481 -0.2007 -1.1665 -2.0933
  145SAPE  C21715974   2.680   1.219   9.351  0.4659  0.3679 -0.3508
  145SAPE  H17R15975   2.740   1.162   9.426 -3.9104  0.2008  3.4748
  145SAPE  H17S15976   2.738   1.284   9.282 -0.8828 -0.1147 -2.0007
  145SAPE  C21815977   2.599   1.119   9.267 -0.0381  0.1797 -0.4519
  145SAPE  H18R15978   2.502   1.162   9.234  0.3290 -0.7791 -3.1113
  145SAPE  H18S15979   2.571   1.038   9.337  1.4592 -0.2252 -0.2794
  145SAPE  C21915980   2.667   1.056   9.136  0.3499 -0.1756 -0.4131
  145SAPE  H19R15981   2.756   1.002   9.176  0.0270 -0.2351  0.2392
  145SAPE  H19S15982   2.687   1.143   9.069 -2.4079  0.6178 -0.3329
  145SAPE  C22015983   2.585   0.956   9.054 -0.7137  0.4385 -0.6784
  145SAPE  H20R15984   2.505   1.024   9.020  0.7398  2.2058 -0.7057
  145SAPE  H20S15985   2.559   0.867   9.115  0.9882 -0.7448 -1.5851
  145SAPE  H20T15986   2.637   0.919   8.963  1.4276  1.9067 -0.1256
  145SAPE   C3315987   1.853   0.209   9.775  0.0728 -0.1721  0.1705
  145SAPE   H3X15988   1.931   0.190   9.698  0.8672 -1.4321  1.2356
  145SAPE   H3Y15989   1.823   0.316   9.775 -1.7814 -0.6500  1.3196
  145SAPE   C3415990   1.732   0.121   9.757  0.0892 -0.0009 -0.6356
  145SAPE   H4X15991   1.680   0.144   9.852  2.1455 -0.4991  0.6899
  145SAPE   H4Y15992   1.760   0.014   9.765  0.2873 -0.0285 -1.5604
  145SAPE   C3515993   1.655   0.132   9.628  0.1264  0.2184 -0.4851
  145SAPE   H5X15994   1.568   0.063   9.633 -0.5014  1.0131 -0.0463
  145SAPE   H5Y15995   1.714   0.095   9.541  0.8846  0.1789  0.0467
  145SAPE   C3615996   1.609   0.274   9.590 -0.2512 -0.2776  0.0849
  145SAPE   H6X15997   1.700   0.337   9.588  0.4346 -1.2488  0.1646
  145SAPE   H6Y15998   1.529   0.318   9.653 -1.5663  0.1524 -1.7983
  145SAPE   C3715999   1.547   0.275   9.455 -0.7276 -0.1169  0.5369
  145SAPE   H7X16000   1.453   0.217   9.446  0.6159 -2.2636 -0.6671
  145SAPE   H7Y16001   1.618   0.219   9.390 -2.1559 -3.5051  1.6659
  145SAPE   C3816002   1.512   0.416   9.397 -0.2443  0.2568 -0.1531
  145SAPE   H8X16003   1.608   0.471   9.413 -0.7095  1.7325 -2.0348
  145SAPE   H8Y16004   1.439   0.465   9.464 -2.2483  1.8370 -3.2633
  145SAPE   C3916005   1.471   0.406   9.250 -0.3009 -0.0216  0.2014
  145SAPE   H9X16006   1.386   0.335   9.238 -2.0128  2.2248 -2.0924
  145SAPE   H9Y16007   1.561   0.361   9.203 -1.5041 -0.6629 -1.6146
  145SAPE  C31016008   1.427   0.541   9.188  0.8498 -0.3117  0.6740
  145SAPE  H10X16009   1.519   0.593   9.154  0.0832  0.9646  0.4739
  145SAPE  H10Y16010   1.381   0.602   9.268  0.8997 -0.7125  1.0081
  145SAPE  C31116011   1.324   0.534   9.068 -0.7076 -0.0456 -0.0968
  145SAPE  H11X16012   1.370   0.468   8.990 -1.1278 -1.2208  0.6243
  145SAPE  H11Y16013   1.326   0.634   9.021 -0.4600  0.7493  1.5531
  145SAPE  C31216014   1.187   0.490   9.107  0.0068 -0.4018  0.1374
  145SAPE  H12X16015   1.152   0.565   9.182  0.4925  1.8764 -1.7998
  145SAPE  H12Y16016   1.190   0.387   9.148  1.2261 -0.1181  0.7772
  145SAPE  C31316017   1.098   0.475   8.981 -0.0139  0.3615 -0.9380
  145SAPE  H13X16018   0.994   0.451   9.015  0.4757 -1.2618 -0.4759
  145SAPE  H13Y16019   1.115   0.393   8.909  0.3015 -0.6650  0.2739
  145SAPE  C31416020   1.072   0.611   8.915 -0.4323  0.0919  0.2921
  145SAPE  H14X16021   1.163   0.636   8.857 -0.0440 -2.0987 -0.1164
  145SAPE  H14Y16022   1.066   0.689   8.994  0.9865 -0.1799  0.6941
  145SAPE  C31516023   0.958   0.616   8.815 -0.4321 -0.0759  0.4168
  145SAPE  H15X16024   0.870   0.593   8.878  1.2657  0.4225  3.1333
  145SAPE  H15Y16025   0.972   0.537   8.738  1.3214  1.5689 -1.0739
  145SAPE  C31616026   0.949   0.755   8.755 -0.2924 -0.8193  0.0759
  145SAPE  H16X16027   1.037   0.782   8.693 -1.1910 -1.8066 -1.7035
  145SAPE  H16Y16028   0.939   0.830   8.837 -2.2056  0.4417 -1.2430
  145SAPE  C31716029   0.833   0.770   8.661  0.1413  0.2619  0.1725
  145SAPE  H17X16030   0.812   0.677   8.604  0.4432 -0.6392  1.4795
  145SAPE  H17Y16031   0.853   0.856   8.595  1.4524  1.6206  2.2066
  145SAPE  C31816032   0.705   0.804   8.727 -0.0692 -0.3121  0.5050
  145SAPE  H18X16033   0.637   0.833   8.644  1.5333  0.5993 -0.5580
  145SAPE  H18Y16034   0.714   0.902   8.779 -0.1959  0.0705 -0.1719
  145SAPE  H18Z16035   0.656   0.729   8.791 -1.4029  1.2491  1.3955
  146SAPE     N16036   0.607   1.042  10.741 -0.3473  0.3120 -0.0716
  146SAPE   HN116037   0.710   1.043  10.728 -0.3691 -2.2228 -0.8786
  146SAPE   HN216038   0.570   1.058  10.645 -0.9534  0.5648  0.1990
  146SAPE   HN316039   0.578   1.125  10.796 -2.6426 -0.6357  0.2455
  146SAPE   C1216040   0.562   0.920  10.817 -0.1491  0.3341  0.2323
  146SAPE  H12A16041   0.651   0.862  10.849 -0.3530  0.1445  0.4580
  146SAPE  H12B16042   0.508   0.860  10.741 -0.6913  0.5282  0.4643
  146SAPE   C1116043   0.474   0.961  10.931 -0.1651 -0.1251 -0.4625
  146SAPE  H11A16044   0.526   1.023  11.008 -0.9433 -1.8307  1.5347
  146SAPE  H11B16045   0.446   0.878  10.999 -2.0736  2.1240  1.6886
  146SAPE     P16046   0.219   0.936  10.860 -0.3579  0.3110 -0.2116
  146SAPE   O1316047   0.261   0.829  10.775 -0.0279 -0.2315 -0.0685
  146SAPE   O1416048   0.170   0.911  10.997  0.4949  0.6890  0.0721
  146SAPE   O1216049   0.349   1.024  10.885 -0.1156 -0.4654 -0.1481
  146SAPE   O1116050   0.126   1.037  10.787 -0.0211  0.0775 -0.5121
  146SAPE    C116051   0.166   1.159  10.727 -0.0252 -0.2928 -0.0834
  146SAPE    HA16052   0.088   1.236  10.746 -0.1954 -0.1724 -1.1765
  146SAPE    HB16053   0.258   1.205  10.769  0.0081  0.0364 -0.5135
  146SAPE    C216054   0.187   1.148  10.576  0.2616 -0.3612  0.4493
  146SAPE    HS16055   0.093   1.108  10.533  0.9236 -2.1115  0.5336
  146SAPE   O2116056   0.295   1.062  10.554  0.0117 -0.8541 -0.0339
  146SAPE   C2116057   0.277   0.962  10.468 -0.7081  0.2902  0.5721
  146SAPE   O2216058   0.179   0.946  10.393 -0.4152  0.1347 -0.8010
  146SAPE   C2216059   0.404   0.880  10.470  0.0136 -0.0501  0.1069
  146SAPE   H2R16060   0.491   0.939  10.505  1.9646 -2.2258 -0.7587
  146SAPE   H2S16061   0.395   0.799  10.545  1.9702  0.7070  1.2306
  146SAPE    C316062   0.213   1.289  10.509 -0.0423  0.2312  0.2149
  146SAPE    HX16063   0.319   1.318  10.522  0.8154 -2.2857 -0.4747
  146SAPE    HY16064   0.155   1.364  10.567  3.6805  1.4432  2.7462
  146SAPE   O3116065   0.181   1.286  10.370  0.1469 -0.0023  0.1922
  146SAPE   C3116066   0.269   1.255  10.280 -0.2514 -0.2466  0.0476
  146SAPE   O3216067   0.385   1.224  10.292 -0.0625  0.3132 -0.1246
  146SAPE   C3216068   0.199   1.272  10.148  0.3029 -0.3091 -0.0754
  146SAPE   H2X16069   0.233   1.364  10.095  2.5731 -0.6927  0.5795
  146SAPE   H2Y16070   0.089   1.276  10.157  0.5239  2.6285  3.5315
  146SAPE   C2316071   0.436   0.823  10.333  1.0559  0.2713 -0.3591
  146SAPE   H3R16072   0.427   0.902  10.255  2.4461  0.7722 -0.0278
  146SAPE   H3S16073   0.362   0.742  10.314  1.7936 -0.5825  0.3859
  146SAPE   C2416074   0.583   0.767  10.326  0.3917 -0.5101 -1.0510
  146SAPE   H4R16075   0.590   0.685  10.401  2.1271 -0.2981 -0.9611
  146SAPE   H4S16076   0.656   0.846  10.353 -0.2905 -0.0502 -0.4963
  146SAPE   C2516077   0.607   0.707  10.197  0.0403 -0.3953 -0.3141
  146SAPE   H5R16078   0.599   0.597  10.196 -1.2688 -0.3249  0.0806
  146SAPE   C2616079   0.618   0.761  10.076 -0.2116 -0.1207  0.6263
  146SAPE   H6R16080   0.640   0.693   9.992  0.8175 -0.4538  1.1452
  146SAPE   C2716081   0.618   0.908  10.040  0.4081  0.0041 -0.6254
  146SAPE   H7R16082   0.577   0.965  10.126 -1.7902 -2.6495  0.2616
  146SAPE   H7S16083   0.551   0.938   9.956 -1.1589  0.5085  0.7403
  146SAPE   C2816084   0.750   0.962  10.007 -0.4227 -0.4514  0.1667
  146SAPE   H8R16085   0.791   0.993  10.105 -0.3685 -2.9429  0.9844
  146SAPE   C2916086   0.823   0.962   9.891  0.5968 -0.9198 -0.1757
  146SAPE   H9R16087   0.929   0.991   9.901  0.0788  0.4815  1.6705
  146SAPE  C21016088   0.782   0.904   9.758 -0.0069 -0.4005  0.4515
  146SAPE  H10R16089   0.679   0.862   9.770  0.9956 -2.4203  2.7872
  146SAPE  H10S16090   0.833   0.810   9.730 -1.5126 -1.1909  0.2496
  146SAPE  C21116091   0.793   0.998   9.639 -0.2969 -0.6301 -0.8482
  146SAPE  H11R16092   0.894   1.036   9.616 -0.3488 -0.1844 -0.3452
  146SAPE  C21216093   0.691   1.034   9.561  0.0096  0.2433  0.7496
  146SAPE  H12R16094   0.715   1.118   9.495 -1.1157  1.7756  2.2000
  146SAPE  C21316095   0.545   0.999   9.578 -0.1360  0.0313  0.2174
  146SAPE  H13R16096   0.529   1.010   9.688  1.0453  1.6291  0.2649
  146SAPE  H13S16097   0.514   0.897   9.546 -3.4164  0.8482  0.3768
  146SAPE  C21416098   0.455   1.098   9.500  0.2251  0.1144 -0.1942
  146SAPE  H14R16099   0.410   1.180   9.558  0.7682  2.4872 -2.8856
  146SAPE  C21516100   0.418   1.086   9.370  0.2508 -0.3491  0.3625
  146SAPE  H15R16101   0.338   1.152   9.333  0.9534 -0.0330 -0.6213
  146SAPE  C21616102   0.461   0.976   9.276 -0.5232  0.3158 -0.8171
  146SAPE  H16R16103   0.449   0.879   9.328  2.7088 -0.3247 -1.0219
  146SAPE  H16S16104   0.571   0.977   9.257 -0.6569 -0.0765 -1.7026
  146SAPE  C21716105   0.392   0.979   9.135 -0.7633 -0.0371  0.0936
  146SAPE  H17R16106   0.442   1.060   9.078  1.3991  0.1225  2.0706
  146SAPE  H17S16107   0.286   1.003   9.157 -0.2057  2.1825  0.6216
  146SAPE  C21816108   0.389   0.843   9.063  0.2515  0.2706  0.3013
  146SAPE  H18R16109   0.327   0.767   9.115 -0.3262  0.3416 -0.2717
  146SAPE  H18S16110   0.494   0.807   9.049 -0.1855 -0.2372 -2.1111
  146SAPE  C21916111   0.332   0.873   8.916 -0.4409 -0.3824 -0.0414
  146SAPE  H19R16112   0.403   0.929   8.852 -1.7194 -0.6228 -1.7284
  146SAPE  H19S16113   0.229   0.914   8.908 -0.5505 -0.4914  0.6919
  146SAPE  C22016114   0.309   0.742   8.838 -0.4942 -0.4052 -0.4743
  146SAPE  H20R16115   0.299   0.755   8.728  0.5022  1.5478 -0.3949
  146SAPE  H20S16116   0.212   0.695   8.860 -0.2253 -1.1038 -0.7602
  146SAPE  H20T16117   0.390   0.669   8.857 -0.8527 -1.1420 -1.7158
  146SAPE   C3316118   0.222   1.148  10.067 -0.0222 -0.1446  0.8214
  146SAPE   H3X16119   0.173   1.061  10.115 -3.2330 -0.5121 -2.6589
  146SAPE   H3Y16120   0.331   1.126  10.070  0.3357  1.3348  4.5217
  146SAPE   C3416121   0.167   1.152   9.923  0.1446 -0.1133  0.4204
  146SAPE   H4X16122   0.193   1.244   9.866 -0.5425  0.3545  0.8464
  146SAPE   H4Y16123   0.056   1.144   9.925 -0.1898  1.7076 -3.1448
  146SAPE   C3516124   0.206   1.029   9.834  1.1414 -0.4337  0.2553
  146SAPE   H5X16125   0.151   0.936   9.861 -2.2103  1.5066  0.7063
  146SAPE   H5Y16126   0.313   1.012   9.858  0.9865 -2.3705 -0.2071
  146SAPE   C3616127   0.167   1.053   9.684 -0.2467  0.2747  0.3357
  146SAPE   H6X16128   0.182   0.965   9.619 -0.9406 -0.5204  1.2299
  146SAPE   H6Y16129   0.228   1.140   9.650  0.4401  0.3027  1.5779
  146SAPE   C3716130   0.020   1.082   9.658  0.5463  0.0413 -0.1264
  146SAPE   H7X16131  -0.012   1.171   9.717 -1.8674 -0.1955 -0.9743
  146SAPE   H7Y16132  -0.029   0.986   9.685  0.6640  0.0740  0.2109
  146SAPE   C3816133  -0.019   1.107   9.510 -0.5584 -0.8811 -0.6743
  146SAPE   H8X16134  -0.129   1.115   9.498 -0.4758 -2.7992 -4.2277
  146SAPE   H8Y16135   0.015   1.024   9.444 -2.9265 -1.2898 -1.4857
  146SAPE   C3916136   0.044   1.241   9.460 -0.7896 -0.2025 -0.7488
  146SAPE   H9X16137   0.155   1.237   9.457 -0.7753  0.5299 -3.3303
  146SAPE   H9Y16138   0.010   1.319   9.531 -0.9217 -1.5710  0.7614
  146SAPE  C31016139   0.011   1.271   9.317 -0.8639  0.4172  0.6019
  146SAPE  H10X16140   0.012   1.181   9.252  0.7515  1.3753 -0.7734
  146SAPE  H10Y16141   0.096   1.337   9.288 -0.6001  0.9106  2.3595
  146SAPE  C31116142  -0.122   1.345   9.286  0.7184 -0.3709  0.1145
  146SAPE  H11X16143  -0.207   1.283   9.319 -1.0326  1.7083 -0.2545
  146SAPE  H11Y16144  -0.127   1.356   9.176  0.3269 -2.3937 -0.0935
  146SAPE  C31216145  -0.119   1.488   9.347 -0.1076 -0.4004  0.1043
  146SAPE  H12X16146  -0.029   1.540   9.308  0.1098 -0.4170  0.5839
  146SAPE  H12Y16147  -0.110   1.490   9.457 -1.4977  0.7275  0.2192
  146SAPE  C31316148  -0.246   1.565   9.316  0.3795 -0.0581  0.4124
  146SAPE  H13X16149  -0.252   1.578   9.206 -2.6207  0.5629  0.5589
  146SAPE  H13Y16150  -0.237   1.669   9.354  1.0888  0.2258 -0.5115
  146SAPE  C31416151  -0.369   1.499   9.370  0.7912 -0.6302 -1.0904
  146SAPE  H14X16152  -0.372   1.495   9.481 -2.5438  2.1932 -0.9163
  146SAPE  H14Y16153  -0.368   1.395   9.330 -2.2310 -1.6035  1.0043
  146SAPE  C31516154  -0.501   1.579   9.342 -0.0499  0.5415 -0.6757
  146SAPE  H15X16155  -0.514   1.592   9.233 -2.4833  2.0148 -0.2996
  146SAPE  H15Y16156  -0.492   1.688   9.365 -0.6602  0.5539 -0.4656
  146SAPE  C31616157  -0.623   1.516   9.410 -0.5063  0.2859 -0.3940
  146SAPE  H16X16158  -0.625   1.534   9.520  0.9522  0.9761 -0.4554
  146SAPE  H16Y16159  -0.607   1.406   9.402  0.7598  0.0540  3.3477
  146SAPE  C31716160  -0.759   1.550   9.338 -0.4702 -0.3158 -0.0059
  146SAPE  H17X16161  -0.757   1.525   9.230 -0.9506  1.6212 -0.4928
  146SAPE  H17Y16162  -0.774   1.659   9.345 -0.9199 -0.2534 -1.5900
  146SAPE  C31816163  -0.875   1.487   9.412  0.3156  0.5816 -1.1446
  146SAPE  H18X16164  -0.975   1.500   9.366  0.1631 -0.1133 -1.0285
  146SAPE  H18Y16165  -0.875   1.514   9.520 -0.8003  0.6914 -1.1571
  146SAPE  H18Z16166  -0.862   1.377   9.407 -0.5216  0.3916  0.4397
  147SAPE     N16167   2.464   4.445  10.981 -0.0268  0.0580 -0.2652
  147SAPE   HN116168   2.556   4.397  10.984 -0.2578 -0.5376 -1.5154
  147SAPE   HN216169   2.463   4.498  10.892 -0.2864 -2.9199 -2.2112
  147SAPE   HN316170   2.443   4.508  11.061 -3.6188 -0.9567 -0.2092
  147SAPE   C1216171   2.350   4.342  10.990 -0.4537 -0.0734 -0.1992
  147SAPE  H12A16172   2.261   4.385  10.939 -1.2015 -1.3251  0.0254
  147SAPE  H12B16173   2.333   4.328  11.098  1.1391 -0.8327 -0.0116
  147SAPE   C1116174   2.380   4.217  10.907 -0.3597  0.7527  0.3137
  147SAPE  H11A16175   2.479   4.184  10.946  0.4707  2.2139 -0.5108
  147SAPE  H11B16176   2.396   4.222  10.798 -1.8041 -1.9161 -0.0905
  147SAPE     P16177   2.288   4.012  11.032 -0.1801  0.2226  0.1426
  147SAPE   O1316178   2.418   3.947  11.033  0.2668  0.8987 -0.8840
  147SAPE   O1416179   2.250   4.080  11.160 -0.4172 -0.4306 -0.7844
  147SAPE   O1216180   2.274   4.123  10.924 -0.1808 -0.4416  0.6722
  147SAPE   O1116181   2.182   3.898  10.994 -0.6328  0.0363 -0.0694
  147SAPE    C116182   2.217   3.787  10.902  0.0394 -0.2617 -0.4862
  147SAPE    HA16183   2.326   3.778  10.881  0.1508 -3.8016  0.9180
  147SAPE    HB16184   2.180   3.693  10.948 -0.3886  0.5130  0.8163
  147SAPE    C216185   2.139   3.786  10.761 -0.1247  0.6609  0.3564
  147SAPE    HS16186   2.202   3.728  10.691 -1.4621 -0.5865  0.1488
  147SAPE   O2116187   2.129   3.921  10.707 -0.3607  0.5006  0.3115
  147SAPE   C2116188   2.242   3.982  10.676  0.4975  0.7277  0.0580
  147SAPE   O2216189   2.354   3.936  10.691  0.2913 -0.6763 -0.0910
  147SAPE   C2216190   2.200   4.104  10.601  0.3868  0.1581 -0.1829
  147SAPE   H2R16191   2.098   4.082  10.560  1.0488  0.0414 -1.8735
  147SAPE   H2S16192   2.183   4.181  10.678 -0.9796 -0.0668 -0.2367
  147SAPE    C316193   1.997   3.735  10.766  0.1715  0.0097  0.7581
  147SAPE    HX16194   1.933   3.803  10.827 -0.5045  0.0285  0.0498
  147SAPE    HY16195   1.991   3.646  10.831  0.4707  0.6854  1.7410
  147SAPE   O3116196   1.949   3.705  10.633 -0.6429  0.0048  0.0456
  147SAPE   C3116197   1.865   3.795  10.588  0.3268 -0.5561 -0.2922
  147SAPE   O3216198   1.820   3.888  10.654  0.1912 -0.3200  0.3720
  147SAPE   C3216199   1.839   3.775  10.438  0.2087  0.4742  0.1211
  147SAPE   H2X16200   1.792   3.875  10.422  1.2314  0.8758 -0.4625
  147SAPE   H2Y16201   1.768   3.693  10.412  1.0508 -0.1950 -0.1258
  147SAPE   C2316202   2.293   4.138  10.486 -0.3753 -0.3973 -0.1333
  147SAPE   H3R16203   2.307   4.052  10.416  1.2123 -0.9914  0.8555
  147SAPE   H3S16204   2.393   4.155  10.529  1.1257 -1.5602 -2.8606
  147SAPE   C2416205   2.242   4.265  10.413  0.0028  0.1056  0.4228
  147SAPE   H4R16206   2.326   4.297  10.348 -0.7191 -0.4350 -0.8281
  147SAPE   H4S16207   2.223   4.341  10.491  0.6926  1.2812 -0.5230
  147SAPE   C2516208   2.119   4.228  10.331 -1.0865  0.1898 -0.0169
  147SAPE   H5R16209   2.026   4.234  10.389 -0.6391  0.2204  0.7197
  147SAPE   C2616210   2.118   4.187  10.202  0.2426 -0.5423  0.1892
  147SAPE   H6R16211   2.024   4.149  10.159  0.2712  0.1468 -0.5060
  147SAPE   C2716212   2.233   4.176  10.098  0.0909 -0.2697  0.1567
  147SAPE   H7R16213   2.218   4.083  10.038  3.9302  0.6972 -2.7131
  147SAPE   H7S16214   2.337   4.156  10.132  0.8354 -1.7208 -2.6463
  147SAPE   C2816215   2.254   4.300  10.007  0.6789  0.3969  0.1507
  147SAPE   H8R16216   2.308   4.385  10.052 -0.7269  1.7083 -0.5649
  147SAPE   C2916217   2.219   4.305   9.876 -0.2549 -0.2252 -0.0302
  147SAPE   H9R16218   2.233   4.401   9.825  1.5270 -0.7042 -0.5046
  147SAPE  C21016219   2.158   4.191   9.796  0.4454 -0.1789 -0.2150
  147SAPE  H10R16220   2.090   4.236   9.721  0.6689 -2.6432 -2.0603
  147SAPE  H10S16221   2.094   4.125   9.859  0.1412  0.2032 -0.1255
  147SAPE  C21116222   2.257   4.100   9.726  0.2391  0.1976  0.0266
  147SAPE  H11R16223   2.315   4.036   9.795 -0.7424  0.8201  1.4832
  147SAPE  C21216224   2.268   4.077   9.593 -0.5190 -0.6440 -0.4591
  147SAPE  H12R16225   2.337   3.995   9.570 -0.1516 -0.3312 -0.4905
  147SAPE  C21316226   2.183   4.135   9.488 -0.4016 -0.5732 -0.6822
  147SAPE  H13R16227   2.176   4.246   9.497 -0.6058 -0.6205 -0.2214
  147SAPE  H13S16228   2.077   4.102   9.498 -0.4584 -0.3715 -0.5943
  147SAPE  C21416229   2.245   4.102   9.357 -1.0907 -0.5327 -0.5251
  147SAPE  H14R16230   2.332   4.034   9.355  0.4017  1.2449  0.5023
  147SAPE  C21516231   2.213   4.142   9.236  0.1814 -0.0323 -0.9948
  147SAPE  H15R16232   2.275   4.101   9.155  1.1858 -1.7958  0.5704
  147SAPE  C21616233   2.094   4.226   9.204 -0.1116 -0.8028  0.3174
  147SAPE  H16R16234   2.139   4.317   9.160 -0.5043 -0.5632  0.4102
  147SAPE  H16S16235   2.047   4.251   9.301 -1.0445  2.1883 -0.7972
  147SAPE  C21716236   1.999   4.149   9.112  0.0139 -0.0956  1.1986
  147SAPE  H17R16237   1.900   4.199   9.104 -2.0542 -3.1029  4.5589
  147SAPE  H17S16238   1.978   4.048   9.156  0.2711 -0.0868  1.3422
  147SAPE  C21816239   2.062   4.117   8.971  0.3148 -0.3229 -0.4636
  147SAPE  H18R16240   2.007   4.025   8.941 -0.3840 -0.3071  0.7054
  147SAPE  H18S16241   2.169   4.089   8.979 -0.0742 -1.3564  3.4892
  147SAPE  C21916242   2.051   4.236   8.873  0.2076  0.4855 -0.3186
  147SAPE  H19R16243   2.099   4.210   8.777  1.1096 -0.9255  0.4821
  147SAPE  H19S16244   2.100   4.319   8.928  0.2019 -0.4442  1.1536
  147SAPE  C22016245   1.901   4.279   8.849  0.4483 -0.6126  0.4284
  147SAPE  H20R16246   1.859   4.311   8.947  1.0318  0.2934  0.3861
  147SAPE  H20S16247   1.831   4.206   8.803  0.6565 -0.2821 -0.4336
  147SAPE  H20T16248   1.891   4.371   8.788  1.7299  0.5873  1.9392
  147SAPE   C3316249   1.973   3.767  10.344  0.0395 -0.2657 -0.0628
  147SAPE   H3X16250   2.035   3.676  10.358 -1.4446 -1.3248 -0.0560
  147SAPE   H3Y16251   2.052   3.837  10.376  0.2259 -0.8606  0.8045
  147SAPE   C3416252   1.944   3.791  10.199  0.7646  0.4933  0.6786
  147SAPE   H4X16253   1.931   3.897  10.168  1.9765  0.2997 -0.5982
  147SAPE   H4Y16254   1.853   3.732  10.173  2.2211 -0.5966 -2.4300
  147SAPE   C3516255   2.057   3.736  10.114  0.3438  0.1517  0.0137
  147SAPE   H5X16256   2.074   3.630  10.142 -1.3665 -0.0473  0.4643
  147SAPE   H5Y16257   2.153   3.787  10.135  1.1005 -1.0955 -0.3183
  147SAPE   C3616258   2.028   3.754   9.962 -1.3852 -0.4836  0.1606
  147SAPE   H6X16259   2.010   3.862   9.946 -0.3193 -0.2154  0.7395
  147SAPE   H6Y16260   1.925   3.712   9.951 -1.7363  0.1125  1.0465
  147SAPE   C3716261   2.135   3.684   9.876  0.0588 -0.2664 -0.1769
  147SAPE   H7X16262   2.150   3.577   9.906  0.3676 -0.0398  0.5122
  147SAPE   H7Y16263   2.236   3.727   9.890 -0.0632  0.8162 -2.3309
  147SAPE   C3816264   2.092   3.683   9.727  0.5302  0.2869  0.3759
  147SAPE   H8X16265   2.055   3.783   9.697 -1.4764 -0.9223 -1.4715
  147SAPE   H8Y16266   2.013   3.606   9.717  2.0342 -1.6714  2.4021
  147SAPE   C3916267   2.213   3.656   9.629  0.3585  0.1595 -0.0073
  147SAPE   H9X16268   2.269   3.570   9.670  1.3920  0.9830  0.3359
  147SAPE   H9Y16269   2.289   3.737   9.630  1.8447 -1.1948  1.3354
  147SAPE  C31016270   2.173   3.642   9.486  0.0469  0.4658 -0.2556
  147SAPE  H10X16271   2.117   3.545   9.482  1.9308 -0.6506 -0.9127
  147SAPE  H10Y16272   2.263   3.624   9.424  1.5564  1.5854  1.5237
  147SAPE  C31116273   2.088   3.754   9.437 -0.3267  0.1141 -0.0129
  147SAPE  H11X16274   2.147   3.848   9.428  0.0882 -0.1918 -0.5670
  147SAPE  H11Y16275   2.001   3.765   9.506  2.9274 -1.1234  4.8266
  147SAPE  C31216276   2.032   3.729   9.294  0.4576  0.2829 -0.1132
  147SAPE  H12X16277   1.970   3.819   9.276  0.2339  0.5755  1.9353
  147SAPE  H12Y16278   1.976   3.632   9.296  0.1165  0.4196 -1.6387
  147SAPE  C31316279   2.136   3.714   9.179 -0.0672  0.4209 -0.1696
  147SAPE  H13X16280   2.208   3.632   9.198 -1.6628 -0.8157  0.8511
  147SAPE  H13Y16281   2.205   3.801   9.185  0.5982 -0.1327  0.2878
  147SAPE  C31416282   2.075   3.701   9.045 -0.2065  0.1272 -0.8845
  147SAPE  H14X16283   1.994   3.777   9.043 -2.0279 -1.7430 -0.9506
  147SAPE  H14Y16284   2.015   3.610   9.029 -0.1320 -0.2134  0.6530
  147SAPE  C31516285   2.156   3.707   8.919 -0.2875  0.3736  0.2008
  147SAPE  H15X16286   2.223   3.794   8.934  1.4574 -1.3007  3.0073
  147SAPE  H15Y16287   2.102   3.717   8.823 -0.4350 -0.0409  0.2353
  147SAPE  C31616288   2.248   3.588   8.894 -0.2745  0.1377  0.9697
  147SAPE  H16X16289   2.185   3.497   8.888 -0.7700  0.4949  0.6868
  147SAPE  H16Y16290   2.304   3.562   8.986  0.1177 -1.3075  0.3507
  147SAPE  C31716291   2.320   3.615   8.765 -0.3567 -0.4452  0.5981
  147SAPE  H17X16292   2.364   3.718   8.763 -1.3621  0.0330 -2.8314
  147SAPE  H17Y16293   2.240   3.620   8.689  0.7093 -1.6428 -0.6364
  147SAPE  C31816294   2.420   3.515   8.709 -0.1998 -0.1381  0.7514
  147SAPE  H18X16295   2.512   3.508   8.770 -0.0484 -0.5878  0.4739
  147SAPE  H18Y16296   2.455   3.544   8.608 -0.7746  0.3502  0.6816
  147SAPE  H18Z16297   2.372   3.415   8.706 -1.1332  0.3022  0.6643
  148SAPE     N16298   3.843   4.605  10.818 -0.0272 -0.3629  0.3285
  148SAPE   HN116299   3.917   4.675  10.800  1.2527 -1.5475  0.8168
  148SAPE   HN216300   3.876   4.529  10.880  0.1102 -0.0243  0.6794
  148SAPE   HN316301   3.803   4.571  10.728 -1.8508 -0.2054  1.0288
  148SAPE   C1216302   3.739   4.692  10.893 -0.1006 -0.6123 -0.4169
  148SAPE  H12A16303   3.758   4.794  10.853  2.3368 -1.1818 -0.9124
  148SAPE  H12B16304   3.768   4.691  11.000  1.3256 -0.6996 -0.7850
  148SAPE   C1116305   3.596   4.629  10.868  1.0480 -0.5817  0.8910
  148SAPE  H11A16306   3.526   4.652  10.951  0.9754 -2.3569  1.3585
  148SAPE  H11B16307   3.593   4.518  10.871  0.4447 -0.5680  0.9378
  148SAPE     P16308   3.474   4.811  10.720 -0.0191 -0.2260  0.0211
  148SAPE   O1316309   3.329   4.784  10.727  0.3795 -0.4889 -0.1177
  148SAPE   O1416310   3.523   4.914  10.815  0.2400 -0.3016  0.2471
  148SAPE   O1216311   3.555   4.673  10.739  0.1071  0.1649 -0.0713
  148SAPE   O1116312   3.506   4.854  10.573 -0.8012 -0.4187  0.5833
  148SAPE    C116313   3.638   4.858  10.525 -0.0909 -0.0631 -0.1715
  148SAPE    HA16314   3.681   4.959  10.546  2.3697 -1.1463  0.4237
  148SAPE    HB16315   3.702   4.787  10.581 -0.2408 -0.2284 -0.2103
  148SAPE    C216316   3.647   4.814  10.372 -0.6610  0.3952 -0.2249
  148SAPE    HS16317   3.751   4.821  10.334 -0.7813  2.1594 -0.2897
  148SAPE   O2116318   3.569   4.905  10.300  0.3143 -0.1466 -0.0456
  148SAPE   C2116319   3.621   5.027  10.277  0.3151  0.5154 -0.1412
  148SAPE   O2216320   3.723   5.066  10.334  0.3840  0.2363 -0.3551
  148SAPE   C2216321   3.550   5.105  10.164  0.2371  0.3274 -0.5618
  148SAPE   H2R16322   3.540   5.029  10.084 -4.8595  1.1045 -1.0328
  148SAPE   H2S16323   3.452   5.135  10.208  1.4232 -0.2374  2.8142
  148SAPE    C316324   3.589   4.668  10.358 -1.1274 -0.3078 -0.1829
  148SAPE    HX16325   3.486   4.665  10.400 -1.2316 -0.9286 -0.4691
  148SAPE    HY16326   3.646   4.606  10.430 -0.1460  1.1679  0.3677
  148SAPE   O3116327   3.602   4.623  10.225  0.0049 -0.6654  0.1085
  148SAPE   C3116328   3.517   4.656  10.137 -0.0055  0.0525  0.5918
  148SAPE   O3216329   3.411   4.717  10.137  0.1368  0.1651 -0.5240
  148SAPE   C3216330   3.558   4.588  10.004  0.6882  0.2053 -1.2136
  148SAPE   H2X16331   3.506   4.490  10.006 -0.2448  0.6863 -0.9554
  148SAPE   H2Y16332   3.668   4.585  10.014  0.6164  0.8742 -0.0948
  148SAPE   C2316333   3.626   5.231  10.119  0.3173 -0.4943  0.2802
  148SAPE   H3R16334   3.710   5.176  10.069  0.7516 -1.5279  2.0432
  148SAPE   H3S16335   3.677   5.272  10.209  2.5930 -2.4944  0.0256
  148SAPE   C2416336   3.538   5.325  10.045  0.7319 -0.0896  0.2288
  148SAPE   H4R16337   3.589   5.424  10.036  3.4897 -1.3270  0.9936
  148SAPE   H4S16338   3.450   5.347  10.110  0.7941  2.9192 -0.5341
  148SAPE   C2516339   3.510   5.275   9.897  0.3176 -0.1762 -1.1121
  148SAPE   H5R16340   3.416   5.223   9.872  0.2736 -0.5334 -0.2473
  148SAPE   C2616341   3.584   5.319   9.790 -0.1661  0.3062 -0.8989
  148SAPE   H6R16342   3.541   5.289   9.693 -2.4932  1.3713 -0.2543
  148SAPE   C2716343   3.688   5.430   9.788 -0.7161 -0.0412 -0.3362
  148SAPE   H7R16344   3.755   5.434   9.876 -0.8410  1.5544 -0.2923
  148SAPE   H7S16345   3.638   5.528   9.803  2.7152  2.0677 -1.5910
  148SAPE   C2816346   3.776   5.437   9.659 -0.4162  0.4193 -0.0672
  148SAPE   H8R16347   3.884   5.437   9.683 -0.5525  0.1121  0.5873
  148SAPE   C2916348   3.740   5.450   9.532  0.7468 -0.2399  0.3323
  148SAPE   H9R16349   3.824   5.465   9.462  2.0808 -0.8742  1.7352
  148SAPE  C21016350   3.597   5.457   9.472 -0.4343 -0.7396 -0.5821
  148SAPE  H10R16351   3.527   5.429   9.554  1.0452 -0.5631  0.7993
  148SAPE  H10S16352   3.575   5.382   9.393 -4.0021 -0.4463 -0.0629
  148SAPE  C21116353   3.556   5.599   9.428 -0.4360  0.1122 -0.1913
  148SAPE  H11R16354   3.494   5.651   9.502 -0.8800  1.0532 -1.2082
  148SAPE  C21216355   3.602   5.659   9.318  0.1193 -0.2576 -0.0776
  148SAPE  H12R16356   3.563   5.761   9.302 -0.7546 -0.8090 -1.6683
  148SAPE  C21316357   3.699   5.608   9.218  0.1688 -0.5553 -0.6469
  148SAPE  H13R16358   3.647   5.519   9.177 -1.0314 -0.9994  1.6476
  148SAPE  H13S16359   3.791   5.573   9.270  2.4090  3.9689 -1.0833
  148SAPE  C21416360   3.750   5.694   9.103 -0.5685 -0.3972  0.0160
  148SAPE  H14R16361   3.691   5.785   9.087  0.8423  0.3550 -1.2572
  148SAPE  C21516362   3.851   5.668   9.015  0.1955  1.2162 -0.3230
  148SAPE  H15R16363   3.878   5.736   8.932  1.4027 -1.7745 -2.5395
  148SAPE  C21616364   3.940   5.544   9.022  0.2493 -0.7438 -0.7867
  148SAPE  H16R16365   3.927   5.476   8.935  1.7426 -2.4635  0.2628
  148SAPE  H16S16366   3.929   5.498   9.123  0.7387  2.0909  0.6675
  148SAPE  C21716367   4.090   5.596   9.003 -0.0193 -0.1996 -0.3799
  148SAPE  H17R16368   4.108   5.646   8.906  0.1232 -0.2573 -0.3830
  148SAPE  H17S16369   4.149   5.502   9.002 -2.2934 -1.8552  2.4597
  148SAPE  C21816370   4.121   5.683   9.124 -0.3086  0.1865 -0.0744
  148SAPE  H18R16371   4.089   5.641   9.221  1.3172  0.0129  0.4215
  148SAPE  H18S16372   4.070   5.781   9.112  0.8635  0.9343  0.8011
  148SAPE  C21916373   4.269   5.724   9.128  0.3318 -0.3480  0.0380
  148SAPE  H19R16374   4.306   5.775   9.037  0.2017 -1.6850 -0.7891
  148SAPE  H19S16375   4.317   5.623   9.133  1.2590  0.0195 -1.1505
  148SAPE  C22016376   4.309   5.809   9.251  0.0587 -0.4054  0.1978
  148SAPE  H20R16377   4.273   5.911   9.229 -1.5043 -0.2352  3.1039
  148SAPE  H20S16378   4.418   5.808   9.276  0.4079  1.4046 -1.1254
  148SAPE  H20T16379   4.266   5.767   9.345  2.3080 -1.3293  0.8875
  148SAPE   C3316380   3.515   4.665   9.877 -0.2454 -0.3544 -0.3201
  148SAPE   H3X16381   3.532   4.772   9.898  0.8386 -0.6509  0.4723
  148SAPE   H3Y16382   3.409   4.641   9.855 -1.1907  2.4664  0.7201
  148SAPE   C3416383   3.607   4.638   9.758 -0.2907 -0.3512 -0.7024
  148SAPE   H4X16384   3.591   4.529   9.746  0.4412 -0.4683 -0.6419
  148SAPE   H4Y16385   3.712   4.641   9.795 -0.6034  1.4152  0.1582
  148SAPE   C3516386   3.578   4.720   9.636  0.0099  0.5301  0.2910
  148SAPE   H5X16387   3.641   4.675   9.557 -1.4898 -1.6874  0.2452
  148SAPE   H5Y16388   3.611   4.825   9.647 -1.8756  1.1887  0.1242
  148SAPE   C3616389   3.430   4.726   9.590  0.0723 -0.1610  0.4197
  148SAPE   H6X16390   3.361   4.746   9.675 -1.9875  0.6905 -1.3573
  148SAPE   H6Y16391   3.386   4.634   9.546  0.6228 -0.2048 -0.0561
  148SAPE   C3716392   3.403   4.838   9.481  0.3430  0.0452  0.1906
  148SAPE   H7X16393   3.310   4.817   9.426 -1.2465 -0.5647  2.9221
  148SAPE   H7Y16394   3.482   4.839   9.403 -2.5168 -0.5364 -2.9039
  148SAPE   C3816395   3.391   4.980   9.547 -0.2368  0.2994  0.4429
  148SAPE   H8X16396   3.468   4.989   9.627 -0.4315  2.0128  0.4736
  148SAPE   H8Y16397   3.293   4.990   9.599 -1.1556 -0.6830 -1.0493
  148SAPE   C3916398   3.402   5.099   9.441  0.4863 -0.6005 -0.2428
  148SAPE   H9X16399   3.507   5.105   9.405  1.1439  1.4770  1.7660
  148SAPE   H9Y16400   3.367   5.198   9.477  0.4161 -0.0214 -1.8236
  148SAPE  C31016401   3.312   5.075   9.318 -1.0401  0.4571 -0.1603
  148SAPE  H10X16402   3.204   5.078   9.346 -1.9668 -0.9462 -3.1378
  148SAPE  H10Y16403   3.322   4.975   9.270  1.5538 -0.6078  2.3446
  148SAPE  C31116404   3.341   5.180   9.205 -0.3044 -0.4117 -0.0536
  148SAPE  H11X16405   3.328   5.282   9.247  0.8004 -0.2615 -0.0561
  148SAPE  H11Y16406   3.269   5.150   9.126 -2.1701  0.6322  1.1850
  148SAPE  C31216407   3.481   5.176   9.139 -0.2441 -0.0932 -0.1307
  148SAPE  H12X16408   3.504   5.071   9.110  0.0825  0.1968 -0.9431
  148SAPE  H12Y16409   3.554   5.208   9.215 -0.7242  0.8307 -0.0508
  148SAPE  C31316410   3.490   5.261   9.015  0.3478 -0.8883 -0.0920
  148SAPE  H13X16411   3.449   5.363   9.036  0.1510 -0.9668 -0.0956
  148SAPE  H13Y16412   3.415   5.210   8.952  0.8025 -0.7140 -0.7856
  148SAPE  C31416413   3.624   5.258   8.954 -0.6974  0.1515  0.1351
  148SAPE  H14X16414   3.660   5.153   8.943 -1.0856 -0.0121  0.4128
  148SAPE  H14Y16415   3.693   5.315   9.020 -1.1003  1.5009 -0.5877
  148SAPE  C31516416   3.625   5.315   8.817  0.1571 -0.3332  0.1550
  148SAPE  H15X16417   3.565   5.246   8.753  0.6838  0.5050 -1.2783
  148SAPE  H15Y16418   3.729   5.310   8.780  1.3237  0.6155  3.0219
  148SAPE  C31616419   3.582   5.465   8.800  0.1032 -0.0865 -1.3456
  148SAPE  H16X16420   3.625   5.521   8.886  2.6124 -1.7650 -1.3868
  148SAPE  H16Y16421   3.473   5.469   8.818  0.1995 -2.1595  0.0600
  148SAPE  C31716422   3.609   5.527   8.666 -1.3710  1.0143 -0.0951
  148SAPE  H17X16423   3.718   5.530   8.645 -0.9985 -1.5264  1.0989
  148SAPE  H17Y16424   3.575   5.633   8.668  0.4495  1.6562 -0.9650
  148SAPE  C31816425   3.536   5.454   8.552 -0.0359 -0.4631 -0.1107
  148SAPE  H18X16426   3.427   5.454   8.572  0.1235  0.0125  0.8113
  148SAPE  H18Y16427   3.568   5.348   8.548  3.6102  0.5343 -1.6821
  148SAPE  H18Z16428   3.557   5.505   8.455  2.0054 -0.2682  0.4069
  149SAPE     N16429   6.053   1.401  11.396  0.4505  0.8877  0.5111
  149SAPE   HN116430   6.097   1.483  11.350  0.9336  1.1601  1.4272
  149SAPE   HN216431   5.955   1.421  11.423 -0.1619  1.1457 -1.7416
  149SAPE   HN316432   6.097   1.401  11.491  1.4851  1.8351  0.0620
  149SAPE   C1216433   6.063   1.263  11.329 -0.4035 -0.2143 -0.1512
  149SAPE  H12A16434   6.039   1.179  11.398  1.2584 -0.2926  0.3732
  149SAPE  H12B16435   6.170   1.261  11.301 -0.1178  0.3873  0.8305
  149SAPE   C1116436   5.981   1.254  11.194 -0.2680  0.6146 -0.8962
  149SAPE  H11A16437   6.015   1.160  11.143 -1.5735  1.6482 -3.8920
  149SAPE  H11B16438   6.007   1.339  11.128 -3.0555  2.4278  0.2031
  149SAPE     P16439   5.755   1.364  11.146  0.3012  0.0394  0.3115
  149SAPE   O1316440   5.619   1.347  11.201  0.7311  0.1135 -0.0411
  149SAPE   O1416441   5.816   1.495  11.177  0.3627 -0.1642 -1.2790
  149SAPE   O1216442   5.836   1.254  11.221  0.0291  0.8150  0.4529
  149SAPE   O1116443   5.775   1.330  10.999 -0.3096  0.3301 -0.1384
  149SAPE    C116444   5.760   1.203  10.948  0.7116  0.7263 -0.9948
  149SAPE    HA16445   5.853   1.177  10.894  0.2792 -0.7641 -1.0747
  149SAPE    HB16446   5.741   1.122  11.023 -1.6687  1.2827 -0.9115
  149SAPE    C216447   5.641   1.191  10.838 -0.6130  0.1972 -0.2320
  149SAPE    HS16448   5.637   1.085  10.805 -1.8327  1.4282 -4.6616
  149SAPE   O2116449   5.663   1.270  10.724  0.3151 -0.1184  0.0294
  149SAPE   C2116450   5.758   1.239  10.642  0.2084  0.1020  0.1874
  149SAPE   O2216451   5.826   1.138  10.643 -1.1691  0.1316 -0.5732
  149SAPE   C2216452   5.765   1.349  10.536  0.0647  0.7006  0.1503
  149SAPE   H2R16453   5.697   1.434  10.558  0.7823  1.1981  0.4611
  149SAPE   H2S16454   5.868   1.389  10.535  0.8115 -1.0920 -1.4165
  149SAPE    C316455   5.515   1.235  10.911 -0.3969 -0.2994  0.3964
  149SAPE    HX16456   5.521   1.346  10.916  0.9210 -0.3609  0.6190
  149SAPE    HY16457   5.516   1.198  11.016 -3.0287  0.1499  0.6390
  149SAPE   O3116458   5.396   1.196  10.835 -0.1565 -0.1757 -0.4650
  149SAPE   C3116459   5.344   1.080  10.869 -0.4419  0.6361 -0.0444
  149SAPE   O3216460   5.382   1.012  10.963  0.1998  0.2729  0.2741
  149SAPE   C3216461   5.251   1.032  10.758 -0.1281 -0.6278 -0.3348
  149SAPE   H2X16462   5.176   1.114  10.753  2.4559  1.9704  0.7333
  149SAPE   H2Y16463   5.193   0.939  10.779 -0.6943 -0.5677 -1.5265
  149SAPE   C2316464   5.742   1.291  10.396  0.1244 -0.0130  0.3954
  149SAPE   H3R16465   5.831   1.234  10.363  0.4311  0.0935  1.0168
  149SAPE   H3S16466   5.736   1.377  10.326  1.0177 -1.0424 -0.9977
  149SAPE   C2416467   5.611   1.208  10.383 -0.0282  0.2795  0.6686
  149SAPE   H4R16468   5.617   1.113  10.441  3.5023 -0.5684 -0.8069
  149SAPE   H4S16469   5.605   1.165  10.280  2.6832 -0.5603  0.7722
  149SAPE   C2516470   5.488   1.282  10.411  0.4452  0.4274  0.0748
  149SAPE   H5R16471   5.472   1.304  10.517  3.5110  2.7130  0.1935
  149SAPE   C2616472   5.419   1.338  10.312  1.1593  0.7134 -0.1714
  149SAPE   H6R16473   5.333   1.402  10.337  1.1351 -0.3076  2.7420
  149SAPE   C2716474   5.445   1.339  10.165  0.1577 -0.2438  0.4102
  149SAPE   H7R16475   5.549   1.364  10.133 -0.0851  0.7196  0.3372
  149SAPE   H7S16476   5.399   1.433  10.129 -0.4763 -0.1446  1.4501
  149SAPE   C2816477   5.387   1.228  10.079 -0.4169 -0.3591 -0.4477
  149SAPE   H8R16478   5.364   1.130  10.123  0.9015  0.1814  1.5798
  149SAPE   C2916479   5.381   1.234   9.946 -0.2983 -0.9151 -0.3065
  149SAPE   H9R16480   5.332   1.153   9.891  1.2334 -2.0967  0.0309
  149SAPE  C21016481   5.422   1.348   9.857 -0.0538  0.1714  0.0066
  149SAPE  H10R16482   5.504   1.315   9.790  2.1509  2.3254  1.4487
  149SAPE  H10S16483   5.485   1.417   9.917  3.9144 -4.1118  1.3539
  149SAPE  C21116484   5.313   1.398   9.771  0.0516  0.0690  0.5763
  149SAPE  H11R16485   5.246   1.469   9.822  0.9320  2.1514 -1.0076
  149SAPE  C21216486   5.286   1.358   9.642  0.4035  0.0398  0.0039
  149SAPE  H12R16487   5.196   1.396   9.592  1.4588  2.7322  0.0231
  149SAPE  C21316488   5.370   1.259   9.563  0.0574  0.2773 -0.0794
  149SAPE  H13R16489   5.320   1.226   9.470  0.2573  2.8317 -1.1805
  149SAPE  H13S16490   5.391   1.169   9.625  0.9356  1.0719  0.8237
  149SAPE  C21416491   5.509   1.295   9.517 -0.0537 -0.1906  0.5161
  149SAPE  H14R16492   5.559   1.350   9.598  0.0991  3.1367 -1.6131
  149SAPE  C21516493   5.578   1.274   9.393  1.1624 -0.3177 -0.2609
  149SAPE  H15R16494   5.682   1.309   9.397  0.1083  3.1193  2.7325
  149SAPE  C21616495   5.531   1.201   9.268  0.8660  0.5632 -0.4562
  149SAPE  H16R16496   5.433   1.243   9.235  1.5948  0.8277 -2.4076
  149SAPE  H16S16497   5.510   1.094   9.291 -1.3506  1.4274  2.1082
  149SAPE  C21716498   5.634   1.207   9.151 -0.0855  0.3655  0.0430
  149SAPE  H17R16499   5.733   1.194   9.199 -0.7701  1.8759  1.9999
  149SAPE  H17S16500   5.638   1.309   9.107  2.8662  0.3388  0.0159
  149SAPE  C21816501   5.601   1.108   9.040  0.5464 -0.2504  0.6599
  149SAPE  H18R16502   5.502   1.137   8.998 -0.2462  0.2394  2.7422
  149SAPE  H18S16503   5.583   1.006   9.080  1.2219 -0.7822 -0.3512
  149SAPE  C21916504   5.698   1.087   8.922 -0.6734 -0.0607  0.6215
  149SAPE  H19R16505   5.640   1.039   8.840  0.8607  0.8458 -1.0608
  149SAPE  H19S16506   5.770   1.015   8.967 -2.2105 -0.5461  2.4136
  149SAPE  C22016507   5.772   1.204   8.866 -1.2271  0.4619 -0.3821
  149SAPE  H20R16508   5.843   1.242   8.942 -1.2991 -0.1700  0.0089
  149SAPE  H20S16509   5.701   1.283   8.831 -1.0583  0.8058  0.0338
  149SAPE  H20T16510   5.831   1.181   8.775 -0.7143 -0.4217  0.1683
  149SAPE   C3316511   5.329   1.014  10.619 -0.3091  0.3990  0.3864
  149SAPE   H3X16512   5.425   0.960  10.636 -1.0194 -0.6287  1.2416
  149SAPE   H3Y16513   5.348   1.109  10.564  0.3799 -0.3471 -0.6898
  149SAPE   C3416514   5.242   0.918  10.531  0.0305  0.2689 -0.3088
  149SAPE   H4X16515   5.137   0.942  10.558  0.4741  3.3238 -0.9111
  149SAPE   H4Y16516   5.267   0.813  10.554 -0.1051 -0.0941 -1.6984
  149SAPE   C3516517   5.264   0.923  10.379 -0.8333 -0.4776 -0.4633
  149SAPE   H5X16518   5.369   0.895  10.359 -0.5325 -1.1316  1.7120
  149SAPE   H5Y16519   5.257   1.031  10.355  2.2369 -0.4758 -1.7373
  149SAPE   C3616520   5.179   0.829  10.293 -0.2507  0.0863  0.0094
  149SAPE   H6X16521   5.071   0.855  10.293 -0.6071 -1.2189  1.4958
  149SAPE   H6Y16522   5.189   0.723  10.326  3.0435 -0.3732 -2.0707
  149SAPE   C3716523   5.225   0.819  10.141 -0.4405  0.7819  0.6300
  149SAPE   H7X16524   5.214   0.714  10.106 -1.0653  0.4942  1.6599
  149SAPE   H7Y16525   5.333   0.844  10.130 -0.3183 -0.1374 -0.5763
  149SAPE   C3816526   5.158   0.916  10.044 -0.2112  0.2518 -0.9946
  149SAPE   H8X16527   5.173   1.023  10.071  1.1951  0.2073 -1.4943
  149SAPE   H8Y16528   5.052   0.885  10.056 -0.3586  1.1665  0.2443
  149SAPE   C3916529   5.221   0.890   9.904 -0.9463 -0.7393  0.6982
  149SAPE   H9X16530   5.233   0.779   9.900 -0.0715 -0.6156 -1.7952
  149SAPE   H9Y16531   5.322   0.937   9.896 -0.2296 -1.7304  2.9614
  149SAPE  C31016532   5.141   0.936   9.787 -0.2224  0.0991  0.4873
  149SAPE  H10X16533   5.145   1.047   9.798  1.8811  0.2902 -1.4413
  149SAPE  H10Y16534   5.036   0.903   9.794 -0.8701  1.6706 -0.9226
  149SAPE  C31116535   5.201   0.915   9.652 -0.7554  0.3232  0.4671
  149SAPE  H11X16536   5.207   0.806   9.635  2.2273  0.8605 -3.0722
  149SAPE  H11Y16537   5.302   0.962   9.650 -1.0534  1.0439 -3.0286
  149SAPE  C31216538   5.118   0.961   9.530 -0.0910  0.5223 -0.8606
  149SAPE  H12X16539   5.093   1.067   9.548 -1.2989 -0.1064  1.6385
  149SAPE  H12Y16540   5.025   0.903   9.548  0.9600 -1.0873 -0.2839
  149SAPE  C31316541   5.178   0.940   9.396  0.4847 -0.5021 -0.2368
  149SAPE  H13X16542   5.215   0.835   9.390 -0.6488 -1.2322  3.2289
  149SAPE  H13Y16543   5.265   1.002   9.368 -0.1747 -0.1135 -1.5105
  149SAPE  C31416544   5.071   0.944   9.287 -0.7172 -0.0397 -0.3536
  149SAPE  H14X16545   5.019   1.042   9.296  0.5100  0.5058  1.4218
  149SAPE  H14Y16546   4.994   0.867   9.307 -1.5469 -0.3222 -3.9471
  149SAPE  C31516547   5.129   0.928   9.139 -0.3458  0.0902  0.2747
  149SAPE  H15X16548   5.187   0.833   9.134 -0.5847 -0.0180 -0.8420
  149SAPE  H15Y16549   5.195   1.017   9.131  0.2824 -0.4638 -1.1291
  149SAPE  C31616550   5.015   0.944   9.033 -0.4354 -0.1461  0.3565
  149SAPE  H16X16551   4.953   1.033   9.056  0.0966  0.9653 -2.1714
  149SAPE  H16Y16552   4.944   0.860   9.045  1.1783 -1.7899 -0.9581
  149SAPE  C31716553   5.061   0.947   8.888  0.2039 -0.9160 -0.3117
  149SAPE  H17X16554   5.062   0.840   8.856  0.1587 -1.3657  1.1212
  149SAPE  H17Y16555   5.162   0.992   8.886  0.1297 -0.6576  0.9762
  149SAPE  C31816556   4.978   1.031   8.793  0.0481 -0.7906  0.1263
  149SAPE  H18X16557   5.036   1.056   8.702 -0.3396 -0.1346  0.0547
  149SAPE  H18Y16558   4.958   1.129   8.842  0.9323  0.1067 -1.2463
  149SAPE  H18Z16559   4.881   0.983   8.766 -0.2909  0.6564 -1.3427
  150SAPE     N16560   1.717   6.738  10.649 -0.0122  0.1693 -0.2332
  150SAPE   HN116561   1.724   6.776  10.746  0.8972 -1.7473  0.4983
  150SAPE   HN216562   1.787   6.663  10.637 -0.3731 -0.1804 -0.1675
  150SAPE   HN316563   1.743   6.799  10.568 -0.2815 -1.6684 -1.7713
  150SAPE   C1216564   1.586   6.677  10.612 -0.9070 -0.3623  0.2364
  150SAPE  H12A16565   1.569   6.587  10.675 -0.9474  0.1264  0.9350
  150SAPE  H12B16566   1.588   6.653  10.503 -0.7239  2.0053 -0.3452
  150SAPE   C1116567   1.468   6.777  10.633  0.5350  0.0160 -0.1986
  150SAPE  H11A16568   1.374   6.729  10.596  0.0218  0.9449 -0.1184
  150SAPE  H11B16569   1.483   6.872  10.576 -2.1644  1.6160  1.5707
  150SAPE     P16570   1.310   6.841  10.844  0.1232 -0.0617  0.2055
  150SAPE   O1316571   1.214   6.728  10.869 -0.6305  0.0297  0.2304
  150SAPE   O1416572   1.352   6.924  10.960 -0.1099  0.1802 -0.0399
  150SAPE   O1216573   1.443   6.791  10.773  0.6598  0.4899 -0.5777
  150SAPE   O1116574   1.250   6.939  10.730 -0.0052  0.0447 -0.6170
  150SAPE    C116575   1.108   6.941  10.719 -0.3492  0.0751  0.2691
  150SAPE    HA16576   1.055   6.847  10.747 -0.5392  0.4045  1.0449
  150SAPE    HB16577   1.065   7.005  10.800 -3.9370  1.5541 -2.5050
  150SAPE    C216578   1.047   7.016  10.596 -0.2651  0.6512  0.3908
  150SAPE    HS16579   0.982   6.943  10.544 -0.3172  1.0030 -0.0428
  150SAPE   O2116580   1.148   7.070  10.503  0.1046 -0.0121 -0.3145
  150SAPE   C2116581   1.208   6.981  10.438 -0.6409  0.6016 -0.0064
  150SAPE   O2216582   1.190   6.861  10.425  0.1716 -0.1262 -0.1494
  150SAPE   C2216583   1.311   7.049  10.348 -0.1943  0.7944  0.1807
  150SAPE   H2R16584   1.308   7.158  10.369  0.8500  0.9202 -0.2703
  150SAPE   H2S16585   1.413   7.014  10.374  0.7128  1.6775 -1.9647
  150SAPE    C316586   0.956   7.132  10.642 -0.2965 -0.4097 -0.3530
  150SAPE    HX16587   1.010   7.186  10.723 -3.2725 -1.5083  2.6220
  150SAPE    HY16588   0.864   7.095  10.694 -1.1615  2.3140  0.2207
  150SAPE   O3116589   0.906   7.216  10.539 -0.2452 -0.1614  0.2318
  150SAPE   C3116590   0.988   7.323  10.512  0.3583 -0.3275  0.8547
  150SAPE   O3216591   1.092   7.349  10.568 -0.0394 -0.6600  0.1921
  150SAPE   C3216592   0.940   7.382  10.372 -0.4779  0.7953 -0.3346
  150SAPE   H2X16593   0.856   7.450  10.400 -0.1868  0.2706  2.0332
  150SAPE   H2Y16594   0.888   7.305  10.311 -1.9171  1.1446  0.4106
  150SAPE   C2316595   1.289   7.022  10.198  0.1504  0.5072  0.0494
  150SAPE   H3R16596   1.185   7.054  10.175  0.3938  3.1317  2.1532
  150SAPE   H3S16597   1.289   6.913  10.179 -1.4007  0.2821  1.1576
  150SAPE   C2416598   1.391   7.087  10.096 -0.1588  0.1976  0.0142
  150SAPE   H4R16599   1.346   7.049  10.002 -1.0520  0.1700  0.4380
  150SAPE   H4S16600   1.490   7.037  10.104 -0.3148 -0.5408 -2.0659
  150SAPE   C2516601   1.400   7.235  10.102  0.7983 -0.0033 -0.1933
  150SAPE   H5R16602   1.347   7.288  10.183  0.7410  0.7650 -0.7173
  150SAPE   C2616603   1.465   7.304  10.010  0.2742 -0.3778 -0.0432
  150SAPE   H6R16604   1.468   7.414  10.018 -1.9200 -0.3226  0.6719
  150SAPE   C2716605   1.526   7.238   9.888 -0.3018 -0.0303  0.0130
  150SAPE   H7R16606   1.471   7.151   9.848  2.0346 -1.0478 -1.1763
  150SAPE   H7S16607   1.633   7.213   9.906 -0.1436  0.6134 -0.0010
  150SAPE   C2816608   1.514   7.342   9.780  0.2234 -0.5039  0.9549
  150SAPE   H8R16609   1.409   7.348   9.745  1.2286 -1.4588 -2.7049
  150SAPE   C2916610   1.608   7.414   9.710  0.0972 -1.0118  0.0165
  150SAPE   H9R16611   1.587   7.489   9.632  1.1164  1.5672  2.0579
  150SAPE  C21016612   1.758   7.407   9.732  0.1151 -0.0004 -0.1256
  150SAPE  H10R16613   1.779   7.358   9.830  1.0034  0.4391 -0.0774
  150SAPE  H10S16614   1.797   7.510   9.745  1.3720 -0.3869 -0.6404
  150SAPE  C21116615   1.842   7.344   9.624 -0.1251 -0.2497  0.7255
  150SAPE  H11R16616   1.897   7.251   9.644  1.3294  0.1974 -0.9058
  150SAPE  C21216617   1.876   7.398   9.503 -0.7329 -0.1519 -0.0911
  150SAPE  H12R16618   1.929   7.325   9.440 -1.4744  0.6794 -1.7095
  150SAPE  C21316619   1.835   7.528   9.434 -1.0133 -0.6960  0.5974
  150SAPE  H13R16620   1.805   7.607   9.507 -0.9087  1.0730 -1.1777
  150SAPE  H13S16621   1.741   7.505   9.379  0.5668 -0.3251 -2.5016
  150SAPE  C21416622   1.944   7.584   9.346 -1.4135 -1.1767 -0.2503
  150SAPE  H14R16623   2.008   7.662   9.390 -1.4228  0.6254 -3.1784
  150SAPE  C21516624   1.977   7.549   9.225  0.6568 -0.2154 -0.1375
  150SAPE  H15R16625   2.039   7.610   9.158 -0.8954 -1.0435 -2.4859
  150SAPE  C21616626   1.900   7.441   9.151  0.1193 -0.7572  0.2398
  150SAPE  H16R16627   1.849   7.485   9.063  0.0077 -1.4981 -0.0765
  150SAPE  H16S16628   1.811   7.405   9.207 -1.2005 -0.7931 -1.7828
  150SAPE  C21716629   1.983   7.326   9.088 -0.1081 -0.5380 -0.1115
  150SAPE  H17R16630   2.062   7.375   9.027 -1.4484  0.9126 -0.7649
  150SAPE  H17S16631   1.929   7.262   9.015  1.7070 -1.5618 -0.6085
  150SAPE  C21816632   2.046   7.230   9.189 -0.0101  0.4120 -0.7728
  150SAPE  H18R16633   2.090   7.283   9.276  0.5113  0.3836 -1.0158
  150SAPE  H18S16634   2.131   7.165   9.156  0.5362  0.9076 -0.3741
  150SAPE  C21916635   1.940   7.135   9.250  0.7876 -1.1597  0.4206
  150SAPE  H19R16636   1.916   7.067   9.165  0.4987 -0.0805 -0.3924
  150SAPE  H19S16637   1.854   7.200   9.275  1.5452 -0.6945  1.9145
  150SAPE  C22016638   1.970   7.046   9.371 -0.1493 -0.3022 -0.3020
  150SAPE  H20R16639   2.051   6.972   9.351 -0.7248 -0.7409 -1.0909
  150SAPE  H20S16640   1.882   6.981   9.388 -0.0959 -0.9723 -2.3511
  150SAPE  H20T16641   1.995   7.110   9.458  4.7242 -1.6164 -0.3914
  150SAPE   C3316642   1.045   7.472  10.299 -0.3559 -0.3346 -1.2296
  150SAPE   H3X16643   1.153   7.471  10.323 -0.6103  1.0731  0.1595
  150SAPE   H3Y16644   1.020   7.579  10.312  1.9296  0.4900 -2.9480
  150SAPE   C3416645   1.035   7.456  10.147 -0.1900  0.8642  0.0206
  150SAPE   H4X16646   0.933   7.490  10.119 -0.6921 -0.6703 -0.0820
  150SAPE   H4Y16647   1.043   7.347  10.130 -0.3117  1.0773 -1.4786
  150SAPE   C3516648   1.142   7.533  10.068  0.4534 -0.2673 -0.5145
  150SAPE   H5X16649   1.234   7.495  10.117  0.3895  1.9509  1.5370
  150SAPE   H5Y16650   1.134   7.643  10.078  1.8210 -0.1193 -0.9572
  150SAPE   C3616651   1.135   7.480   9.923  0.3608 -0.1219  0.2932
  150SAPE   H6X16652   1.028   7.480   9.892  0.4038  0.3027  0.1388
  150SAPE   H6Y16653   1.184   7.381   9.912  0.8029  0.1595 -0.3766
  150SAPE   C3716654   1.190   7.577   9.817  0.4225 -0.4309  0.4688
  150SAPE   H7X16655   1.291   7.612   9.845 -0.2734  0.3345  2.1663
  150SAPE   H7Y16656   1.125   7.668   9.814  0.3975 -0.4718 -0.2477
  150SAPE   C3816657   1.173   7.516   9.681 -0.1230  0.1512  0.3261
  150SAPE   H8X16658   1.066   7.494   9.661 -0.5884  1.5028  1.1551
  150SAPE   H8Y16659   1.226   7.418   9.679 -1.8032 -0.8135  0.6802
  150SAPE   C3916660   1.249   7.599   9.578  0.1701 -0.3129  0.7874
  150SAPE   H9X16661   1.358   7.581   9.591  0.1816 -1.0862 -0.3056
  150SAPE   H9Y16662   1.221   7.706   9.589 -2.6180 -1.0131  1.4345
  150SAPE  C31016663   1.218   7.551   9.436  0.1121  0.3704  0.8199
  150SAPE  H10X16664   1.107   7.557   9.430  0.1675  0.7601 -0.0437
  150SAPE  H10Y16665   1.235   7.442   9.421 -1.8688  0.1914 -0.5904
  150SAPE  C31116666   1.270   7.638   9.324 -0.2097 -0.1090 -0.0444
  150SAPE  H11X16667   1.370   7.606   9.286 -0.6197  1.1508 -2.3582
  150SAPE  H11Y16668   1.279   7.745   9.352 -1.3678  0.3165 -1.1884
  150SAPE  C31216669   1.164   7.648   9.212 -0.0710  0.4570  0.1489
  150SAPE  H12X16670   1.076   7.688   9.265 -0.0382 -1.3949  1.7196
  150SAPE  H12Y16671   1.134   7.547   9.176  0.3916  1.3498 -3.1142
  150SAPE  C31316672   1.211   7.723   9.091  0.3981 -0.1412 -0.3388
  150SAPE  H13X16673   1.271   7.656   9.026  1.3674  0.9782 -0.6426
  150SAPE  H13Y16674   1.281   7.805   9.117 -0.3609  0.3111  0.3245
  150SAPE  C31416675   1.091   7.787   9.009  0.2277  0.3757  0.1056
  150SAPE  H14X16676   1.040   7.877   9.047 -0.0254  0.7269 -1.0357
  150SAPE  H14Y16677   1.019   7.705   8.987  0.3978  0.4794 -0.9119
  150SAPE  C31516678   1.130   7.829   8.866  0.2867 -0.4224 -0.7507
  150SAPE  H15X16679   1.191   7.751   8.816  0.1071  0.7583 -2.9411
  150SAPE  H15Y16680   1.183   7.927   8.874 -0.8389  0.1704 -0.2432
  150SAPE  C31616681   1.010   7.854   8.781  1.1576 -0.8581 -0.3835
  150SAPE  H16X16682   0.972   7.952   8.818 -0.1804 -1.7155  0.6232
  150SAPE  H16Y16683   0.923   7.785   8.776 -0.0204  0.6883 -2.9020
  150SAPE  C31716684   1.051   7.886   8.634  0.2068  0.6118  0.2184
  150SAPE  H17X16685   1.072   7.787   8.587 -2.6569  0.6262 -1.3329
  150SAPE  H17Y16686   1.143   7.948   8.633  1.1532 -0.7315 -0.4021
  150SAPE  C31816687   0.932   7.951   8.543 -0.5250 -0.0734  0.0665
  150SAPE  H18X16688   0.974   7.958   8.440 -0.2138  1.2308  0.2584
  150SAPE  H18Y16689   0.903   8.050   8.585 -0.6915  0.6019 -1.5539
  150SAPE  H18Z16690   0.841   7.888   8.545 -1.6048  1.4802  1.5614
  151SAPE     N16691   5.149   3.721  10.561  0.6766 -0.0312  0.1270
  151SAPE   HN116692   5.199   3.800  10.606  0.8719 -0.6494  1.0272
  151SAPE   HN216693   5.053   3.718  10.602  0.7672  2.0475  0.6057
  151SAPE   HN316694   5.194   3.635  10.596  0.8231 -0.1177 -0.2652
  151SAPE   C1216695   5.149   3.717  10.412 -0.2619  0.9672  0.2320
  151SAPE  H12A16696   5.110   3.621  10.371 -0.0934  1.6071 -1.5145
  151SAPE  H12B16697   5.255   3.738  10.385 -0.6420 -0.0623 -2.4182
  151SAPE   C1116698   5.064   3.836  10.355 -1.3577  0.1825 -0.0011
  151SAPE  H11A16699   5.057   3.816  10.246  1.7962  2.3667 -0.7522
  151SAPE  H11B16700   5.133   3.921  10.374  0.6711 -1.2367 -0.6729
  151SAPE     P16701   4.890   3.978  10.478  0.0245  0.0141  0.8567
  151SAPE   O1316702   4.744   3.971  10.505  0.4064 -0.0118 -0.1994
  151SAPE   O1416703   4.977   3.992  10.590 -1.1168  0.0249 -0.9277
  151SAPE   O1216704   4.933   3.843  10.408 -0.2633  0.1230 -0.0714
  151SAPE   O1116705   4.918   4.087  10.374 -0.1448 -0.9806 -0.2716
  151SAPE    C116706   4.833   4.097  10.255  0.0263 -0.5913 -0.3214
  151SAPE    HA16707   4.876   4.055  10.161  2.4006  0.4660  0.2378
  151SAPE    HB16708   4.730   4.057  10.268 -0.1666 -0.1778 -0.5477
  151SAPE    C216709   4.805   4.241  10.217  0.7675  0.1643  0.5636
  151SAPE    HS16710   4.752   4.281  10.306 -1.1293  1.6064 -1.1296
  151SAPE   O2116711   4.722   4.262  10.105 -0.9118  0.0369  0.6952
  151SAPE   C2116712   4.633   4.350  10.113 -0.0370  0.2351 -0.5293
  151SAPE   O2216713   4.612   4.411  10.216 -0.0089  0.1217 -0.1260
  151SAPE   C2216714   4.543   4.352   9.991  0.4425  0.5894  0.0338
  151SAPE   H2R16715   4.611   4.391   9.912 -0.2008  3.1277  0.6657
  151SAPE   H2S16716   4.516   4.246   9.970 -0.6507  0.2728  2.6164
  151SAPE    C316717   4.938   4.321  10.203 -0.0369 -0.6131  0.5699
  151SAPE    HX16718   5.000   4.300  10.293 -0.6685  3.1722  2.0579
  151SAPE    HY16719   4.913   4.429  10.209  1.5723 -0.0006 -2.1821
  151SAPE   O3116720   5.014   4.297  10.085 -0.0981  0.0639  0.9363
  151SAPE   C3116721   4.988   4.359   9.970 -0.5389  0.5059 -0.5441
  151SAPE   O3216722   4.905   4.446   9.959 -0.1073  0.5689  0.2093
  151SAPE   C3216723   5.076   4.304   9.851  0.2492 -0.1272 -0.0125
  151SAPE   H2X16724   5.035   4.202   9.835 -1.2815  0.8798 -3.3899
  151SAPE   H2Y16725   5.178   4.320   9.891 -0.0151  4.2493 -0.5677
  151SAPE   C2316726   4.420   4.439  10.024 -0.0013 -0.3285  0.3600
  151SAPE   H3R16727   4.444   4.547  10.037  2.1651 -0.4516 -1.8536
  151SAPE   H3S16728   4.381   4.407  10.123 -1.3517  0.6929  0.1877
  151SAPE   C2416729   4.312   4.436   9.921 -0.6097 -0.1572  0.2162
  151SAPE   H4R16730   4.217   4.468   9.967 -0.5470  0.4710 -0.0825
  151SAPE   H4S16731   4.302   4.325   9.916  4.0014 -0.9748  2.9189
  151SAPE   C2516732   4.350   4.509   9.790  0.0393  0.8288 -0.2826
  151SAPE   H5R16733   4.370   4.617   9.792  1.6812  0.5829 -1.4187
  151SAPE   C2616734   4.363   4.454   9.669 -0.5365  0.1028 -0.6777
  151SAPE   H6R16735   4.386   4.511   9.577 -0.5583  1.7974  0.3222
  151SAPE   C2716736   4.349   4.307   9.639 -0.6337 -0.6461  0.6129
  151SAPE   H7R16737   4.285   4.288   9.550  0.3699  1.8443 -0.7636
  151SAPE   H7S16738   4.287   4.257   9.716  1.6015 -2.5215  1.3142
  151SAPE   C2816739   4.492   4.260   9.633 -0.2882 -0.1925  0.7285
  151SAPE   H8R16740   4.546   4.264   9.729  1.2087 -3.7138  0.2074
  151SAPE   C2916741   4.558   4.201   9.533 -0.3491  0.5473 -0.2031
  151SAPE   H9R16742   4.656   4.163   9.565 -0.4762  1.3301  1.2103
  151SAPE  C21016743   4.507   4.172   9.392 -0.2675 -0.2129  0.0506
  151SAPE  H10R16744   4.583   4.218   9.325 -0.5396  2.4228  1.4061
  151SAPE  H10S16745   4.413   4.229   9.374 -1.0071 -0.6979  2.1062
  151SAPE  C21116746   4.486   4.030   9.363 -0.1163 -0.4724 -0.2579
  151SAPE  H11R16747   4.443   3.971   9.445  1.0956  1.7833  2.1571
  151SAPE  C21216748   4.531   3.971   9.254 -0.5370 -0.0633  0.0556
  151SAPE  H12R16749   4.526   3.861   9.242 -0.6543 -0.0545  0.0191
  151SAPE  C21316750   4.593   4.045   9.137  0.8157  0.2044 -0.1864
  151SAPE  H13R16751   4.702   4.049   9.158  0.5728  0.8262  1.0567
  151SAPE  H13S16752   4.554   4.149   9.132  0.1406  0.0012  0.6145
  151SAPE  C21416753   4.589   3.961   9.009  0.5568 -0.0311 -0.3019
  151SAPE  H14R16754   4.611   3.854   9.024 -0.0369  0.1470  2.4087
  151SAPE  C21516755   4.556   4.002   8.891 -0.4645 -0.1432  0.1129
  151SAPE  H15R16756   4.549   3.926   8.812 -3.5825 -0.1907  0.3126
  151SAPE  C21616757   4.515   4.141   8.845  0.2638  0.1128  0.0292
  151SAPE  H16R16758   4.599   4.192   8.794 -0.5190  0.2707 -1.1306
  151SAPE  H16S16759   4.488   4.214   8.925 -0.5433  0.8577 -0.8876
  151SAPE  C21716760   4.398   4.132   8.736 -0.2271  0.6368 -0.0288
  151SAPE  H17R16761   4.441   4.077   8.649 -1.1364  0.6184 -0.4725
  151SAPE  H17S16762   4.376   4.239   8.713 -0.3087  1.1164  2.1040
  151SAPE  C21816763   4.268   4.060   8.776 -0.0654  0.0815  0.0101
  151SAPE  H18R16764   4.243   4.123   8.865  0.2846  0.8508 -0.4186
  151SAPE  H18S16765   4.290   3.953   8.795 -0.3445  0.0318  0.0625
  151SAPE  C21916766   4.144   4.068   8.683  0.0995 -0.0925  0.2696
  151SAPE  H19R16767   4.132   4.179   8.685  0.5738 -0.0235 -0.4487
  151SAPE  H19S16768   4.048   4.033   8.725  1.1832 -4.2603 -0.2598
  151SAPE  C22016769   4.165   4.016   8.544 -0.7316  0.3349 -0.5434
  151SAPE  H20R16770   4.189   3.907   8.548 -0.8620  0.3447  1.6509
  151SAPE  H20S16771   4.260   4.057   8.504 -0.4153 -0.7109 -0.9080
  151SAPE  H20T16772   4.085   4.041   8.471 -0.0106 -0.3932 -1.6169
  151SAPE   C3316773   5.048   4.374   9.718 -0.5674 -0.4501  0.0480
  151SAPE   H3X16774   5.094   4.476   9.713  1.7484 -1.4446 -0.3351
  151SAPE   H3Y16775   4.939   4.389   9.701 -0.4001  0.3039 -0.4400
  151SAPE   C3416776   5.105   4.296   9.592  0.3195  0.5262 -0.6279
  151SAPE   H4X16777   5.053   4.198   9.594  0.0140  0.6893 -0.2537
  151SAPE   H4Y16778   5.208   4.267   9.619 -0.3930 -0.4422  1.2655
  151SAPE   C3516779   5.088   4.352   9.452 -0.4982  0.4130  0.4614
  151SAPE   H5X16780   5.123   4.276   9.379  1.8151  2.6062 -0.9203
  151SAPE   H5Y16781   5.149   4.445   9.443 -0.2524  0.2811  0.7877
  151SAPE   C3616782   4.941   4.367   9.405 -0.2192  0.4682  0.6480
  151SAPE   H6X16783   4.902   4.464   9.443  0.2960  0.4037  1.3748
  151SAPE   H6Y16784   4.876   4.285   9.442  1.0863 -1.3666 -0.9236
  151SAPE   C3716785   4.931   4.379   9.254  0.4313  0.7053  0.8058
  151SAPE   H7X16786   4.990   4.295   9.212 -1.2304 -0.4782  0.7265
  151SAPE   H7Y16787   4.979   4.476   9.230 -0.6779  1.1837  0.4283
  151SAPE   C3816788   4.782   4.379   9.209  0.4805 -0.5568 -0.0231
  151SAPE   H8X16789   4.733   4.416   9.301 -0.5802 -1.0763 -0.3469
  151SAPE   H8Y16790   4.746   4.275   9.189 -0.0215 -0.6451  1.2690
  151SAPE   C3916791   4.759   4.462   9.084 -0.2989 -0.0822 -0.5062
  151SAPE   H9X16792   4.801   4.398   9.004 -3.2303 -2.8735 -0.0329
  151SAPE   H9Y16793   4.789   4.568   9.072 -1.4203  0.5256  1.5375
  151SAPE  C31016794   4.607   4.468   9.054 -0.4904  0.3619 -0.4369
  151SAPE  H10X16795   4.574   4.362   9.052 -1.3487  0.6149 -0.1959
  151SAPE  H10Y16796   4.599   4.517   8.954 -0.5544  3.1594  0.8417
  151SAPE  C31116797   4.525   4.536   9.164  0.0763  0.3657  0.0128
  151SAPE  H11X16798   4.580   4.626   9.202  1.9756  1.2245 -4.2144
  151SAPE  H11Y16799   4.505   4.474   9.254 -0.5945 -0.6086 -0.7985
  151SAPE  C31216800   4.392   4.583   9.122  0.3721 -0.4773 -0.3180
  151SAPE  H12X16801   4.314   4.514   9.084 -2.0969  1.1073  1.5527
  151SAPE  H12Y16802   4.401   4.656   9.038 -0.7575 -0.4950 -0.4788
  151SAPE  C31316803   4.308   4.640   9.240  0.4313 -0.6032  0.0147
  151SAPE  H13X16804   4.280   4.553   9.304 -0.0812  0.1489  0.8264
  151SAPE  H13Y16805   4.214   4.681   9.198  0.5351 -0.2600  0.1134
  151SAPE  C31416806   4.379   4.747   9.322 -0.9776  0.3394  0.0598
  151SAPE  H14X16807   4.395   4.831   9.252 -2.7047  0.6643  0.0109
  151SAPE  H14Y16808   4.474   4.708   9.364 -0.7617  0.8173  0.0099
  151SAPE  C31516809   4.278   4.792   9.435  0.4642  0.1343 -0.2678
  151SAPE  H15X16810   4.237   4.701   9.486 -0.8145  1.2206  0.7285
  151SAPE  H15Y16811   4.195   4.844   9.383 -1.1161 -2.0273 -0.0755
  151SAPE  C31616812   4.341   4.884   9.546  0.5524  0.3049  0.0883
  151SAPE  H16X16813   4.376   4.978   9.499  1.9491  0.5262  1.4648
  151SAPE  H16Y16814   4.427   4.824   9.583 -0.7459  0.0661  3.0640
  151SAPE  C31716815   4.246   4.907   9.668  1.2524 -0.4505  0.2997
  151SAPE  H17X16816   4.206   4.810   9.705  1.5293 -1.0061 -0.8356
  151SAPE  H17Y16817   4.161   4.971   9.635  1.0216  0.2341  2.0585
  151SAPE  C31816818   4.301   4.984   9.792 -0.2747 -0.5668  0.3400
  151SAPE  H18X16819   4.222   5.004   9.868 -0.8493 -1.4143 -0.0148
  151SAPE  H18Y16820   4.327   5.086   9.757 -1.4347 -0.4104 -0.1122
  151SAPE  H18Z16821   4.393   4.934   9.829 -0.0490 -1.6601 -1.5890
  152SAPE     N16822   4.847   3.388  10.972  0.1245 -0.6025 -0.4091
  152SAPE   HN116823   4.756   3.438  10.985 -0.5383 -1.9319  0.2771
  152SAPE   HN216824   4.850   3.328  10.887 -0.3428 -1.0713 -0.1019
  152SAPE   HN316825   4.860   3.335  11.061 -0.0000  1.5720  0.9804
  152SAPE   C1216826   4.965   3.476  10.986  0.1876  0.7849  0.2084
  152SAPE  H12A16827   4.983   3.513  11.089 -0.8906  1.3922  0.1972
  152SAPE  H12B16828   4.932   3.561  10.922 -1.3310  0.1123  0.0468
  152SAPE   C1116829   5.093   3.403  10.942  0.0232 -0.4104  0.1364
  152SAPE  H11A16830   5.114   3.318  11.010 -1.4858 -1.5456 -0.7510
  152SAPE  H11B16831   5.173   3.475  10.966  0.6679 -1.3662  0.9262
  152SAPE     P16832   5.232   3.354  10.725  0.1198 -0.2721 -0.4116
  152SAPE   O1316833   5.250   3.465  10.632 -0.0791  0.3971  0.0125
  152SAPE   O1416834   5.338   3.340  10.828  0.2106  0.3107 -0.0950
  152SAPE   O1216835   5.091   3.364  10.805 -0.9199 -0.3791 -0.0286
  152SAPE   O1116836   5.229   3.228  10.634  0.0776 -0.0193 -0.1763
  152SAPE    C116837   5.337   3.144  10.596 -0.5822  0.6676  0.0123
  152SAPE    HA16838   5.391   3.123  10.690  0.4067  0.4422 -0.5944
  152SAPE    HB16839   5.305   3.041  10.570  0.2997  0.5541 -0.6587
  152SAPE    C216840   5.432   3.204  10.493 -0.6932 -0.9837  0.5064
  152SAPE    HS16841   5.482   3.290  10.542  1.4923 -1.5299 -0.6546
  152SAPE   O2116842   5.370   3.251  10.369 -0.2510  0.2216 -0.2475
  152SAPE   C2116843   5.410   3.372  10.332 -0.3368  0.3091 -0.4165
  152SAPE   O2216844   5.483   3.448  10.395  0.1805 -0.5777  0.2420
  152SAPE   C2216845   5.320   3.408  10.212  0.2638  0.1160 -0.7053
  152SAPE   H2R16846   5.215   3.390  10.245 -0.0788  2.3345 -0.3841
  152SAPE   H2S16847   5.329   3.518  10.195  0.0218 -0.0349 -1.9306
  152SAPE    C316848   5.526   3.092  10.448 -0.0510 -0.5610 -0.4900
  152SAPE    HX16849   5.463   3.009  10.409  1.4191 -1.0327 -1.9660
  152SAPE    HY16850   5.569   3.055  10.544 -1.7332 -0.3553  0.3697
  152SAPE   O3116851   5.632   3.122  10.355 -0.4243  0.0223 -0.2051
  152SAPE   C3116852   5.733   3.199  10.399  0.7965  0.0087 -0.3739
  152SAPE   O3216853   5.743   3.242  10.513  0.3704 -0.7375  0.5214
  152SAPE   C3216854   5.829   3.230  10.287  0.1805 -0.0279 -0.0144
  152SAPE   H2X16855   5.904   3.149  10.271 -0.2662 -0.0690 -2.2863
  152SAPE   H2Y16856   5.882   3.319  10.326 -0.3623 -0.4633  1.8008
  152SAPE   C2316857   5.365   3.333  10.078  0.1989  0.1833 -0.1685
  152SAPE   H3R16858   5.302   3.243  10.063 -1.4036  1.3173 -0.5244
  152SAPE   H3S16859   5.462   3.281  10.095  0.9493  0.8748 -2.0964
  152SAPE   C2416860   5.361   3.416   9.957  0.5595  0.7053  0.2946
  152SAPE   H4R16861   5.390   3.358   9.866  0.4768  0.1898  0.5894
  152SAPE   H4S16862   5.439   3.495   9.959  1.0029  0.2932 -0.3879
  152SAPE   C2516863   5.223   3.470   9.925  0.4924  0.2285  0.0334
  152SAPE   H5R16864   5.192   3.559   9.980 -0.8053 -0.2997  0.1996
  152SAPE   C2616865   5.136   3.415   9.839 -0.7697  0.1506  0.4688
  152SAPE   H6R16866   5.039   3.468   9.830 -0.2828  0.7583 -2.3271
  152SAPE   C2716867   5.143   3.291   9.749  0.0307 -0.5621 -0.1009
  152SAPE   H7R16868   5.176   3.201   9.805 -0.5258 -0.2805  0.6980
  152SAPE   H7S16869   5.213   3.316   9.666 -2.1230  0.5157 -1.6963
  152SAPE   C2816870   5.016   3.236   9.688  0.5669 -0.5637 -0.1721
  152SAPE   H8R16871   4.936   3.208   9.758 -2.5277  2.1544 -2.3351
  152SAPE   C2916872   4.991   3.206   9.561  0.9363 -0.5819  0.0971
  152SAPE   H9R16873   4.888   3.177   9.537  1.0697 -0.5325 -0.5784
  152SAPE  C21016874   5.083   3.207   9.438 -0.1210 -0.0521 -0.7332
  152SAPE  H10R16875   5.064   3.116   9.378  1.1822  0.0471 -1.3535
  152SAPE  H10S16876   5.190   3.198   9.468 -0.5357 -0.4677  0.7238
  152SAPE  C21116877   5.074   3.330   9.347  0.0710  0.3368 -0.8471
  152SAPE  H11R16878   5.119   3.423   9.385 -1.1972  1.2059 -1.4005
  152SAPE  C21216879   5.022   3.332   9.223 -0.4916 -0.1566 -0.6394
  152SAPE  H12R16880   5.010   3.431   9.176 -2.4030  0.1531  0.3802
  152SAPE  C21316881   4.961   3.215   9.148  0.4307 -0.3999  0.1814
  152SAPE  H13R16882   4.888   3.251   9.073  0.7106 -0.0071  0.0965
  152SAPE  H13S16883   4.909   3.146   9.219  0.0332 -0.7162 -0.4086
  152SAPE  C21416884   5.068   3.133   9.077 -0.5454 -0.3248 -0.5597
  152SAPE  H14R16885   5.161   3.185   9.049 -0.2645  0.1844  1.1964
  152SAPE  C21516886   5.061   3.002   9.059 -0.3212  0.3425  0.1248
  152SAPE  H15R16887   5.148   2.958   9.009 -0.8172 -0.7845  0.1997
  152SAPE  C21616888   4.944   2.909   9.100  0.1156 -0.2477  0.3785
  152SAPE  H16R16889   4.969   2.874   9.202 -0.6512  0.2084  0.7275
  152SAPE  H16S16890   4.951   2.817   9.038 -1.3653  0.2991 -0.6380
  152SAPE  C21716891   4.796   2.945   9.070 -0.2110  0.6943 -0.7748
  152SAPE  H17R16892   4.769   3.015   9.152 -0.2967 -0.0150 -0.1807
  152SAPE  H17S16893   4.742   2.849   9.087  1.0362  0.0699 -0.2035
  152SAPE  C21816894   4.762   3.008   8.936  0.2965  0.0051 -0.0021
  152SAPE  H18R16895   4.800   3.112   8.933 -1.2520  0.5807 -1.0809
  152SAPE  H18S16896   4.652   3.013   8.923  0.3141 -1.0182 -0.7449
  152SAPE  C21916897   4.820   2.920   8.826 -0.0208  0.1750 -0.9435
  152SAPE  H19R16898   4.816   2.814   8.859  0.8194  0.8529  1.5869
  152SAPE  H19S16899   4.926   2.947   8.804  0.4380  0.2088  1.1140
  152SAPE  C22016900   4.747   2.949   8.703  0.2999  0.2638  0.7234
  152SAPE  H20R16901   4.800   3.032   8.650 -1.0521  2.2763  2.3603
  152SAPE  H20S16902   4.642   2.983   8.717  0.0533  0.4303 -1.2275
  152SAPE  H20T16903   4.737   2.859   8.640 -0.7981  1.3616 -0.7392
  152SAPE   C3316904   5.755   3.255  10.156 -0.1591  0.2177  0.8027
  152SAPE   H3X16905   5.686   3.341  10.170 -1.6613 -0.8346  0.0232
  152SAPE   H3Y16906   5.688   3.171  10.129  0.9155  0.0847 -1.7772
  152SAPE   C3416907   5.837   3.291  10.029 -0.2485 -0.3351  0.3033
  152SAPE   H4X16908   5.909   3.210  10.005 -2.6263 -2.1741 -1.1331
  152SAPE   H4Y16909   5.893   3.384  10.048  0.4004 -0.6009 -0.2755
  152SAPE   C3516910   5.756   3.317   9.902 -0.2558  0.1972 -0.6056
  152SAPE   H5X16911   5.717   3.420   9.919 -1.4375 -0.4207  0.5295
  152SAPE   H5Y16912   5.666   3.252   9.902 -1.4989  1.8475  0.1737
  152SAPE   C3616913   5.834   3.311   9.765 -0.2110 -0.4456  0.1998
  152SAPE   H6X16914   5.893   3.217   9.759 -0.3831 -0.4601 -3.0493
  152SAPE   H6Y16915   5.903   3.397   9.777  1.9813 -2.0221 -0.4059
  152SAPE   C3716916   5.754   3.335   9.634 -0.2891 -0.1050 -0.3076
  152SAPE   H7X16917   5.725   3.442   9.633  0.4070  0.1215  1.0712
  152SAPE   H7Y16918   5.660   3.276   9.631 -0.5784  0.3793 -1.3054
  152SAPE   C3816919   5.835   3.303   9.502  0.1019 -0.4302 -0.4636
  152SAPE   H8X16920   5.862   3.196   9.514 -1.2904 -0.6850  0.7053
  152SAPE   H8Y16921   5.927   3.364   9.507  0.6526 -1.2491 -0.4189
  152SAPE   C3916922   5.760   3.331   9.364  0.2090 -0.3240  0.7280
  152SAPE   H9X16923   5.745   3.440   9.350 -0.2152 -0.3163  1.2161
  152SAPE   H9Y16924   5.658   3.288   9.368 -0.5820  1.4802  0.6281
  152SAPE  C31016925   5.840   3.286   9.251  0.0988 -0.1943  0.5198
  152SAPE  H10X16926   5.846   3.175   9.251  1.6758 -0.1331 -0.2911
  152SAPE  H10Y16927   5.948   3.311   9.254  0.3650 -1.3416  1.8782
  152SAPE  C31116928   5.785   3.328   9.113 -0.2789  0.3811  1.0468
  152SAPE  H11X16929   5.765   3.437   9.124  2.7671  1.3253 -1.2894
  152SAPE  H11Y16930   5.695   3.270   9.083  0.3854 -0.5846  0.8745
  152SAPE  C31216931   5.886   3.300   9.000 -0.4386 -0.1470 -0.9271
  152SAPE  H12X16932   5.907   3.192   9.016  1.7525  0.6060  2.0450
  152SAPE  H12Y16933   5.980   3.352   9.029  1.6496 -3.6352 -0.9526
  152SAPE  C31316934   5.851   3.346   8.855 -0.4707 -0.2392 -0.2303
  152SAPE  H13X16935   5.916   3.434   8.839 -0.2732 -0.1746  0.8492
  152SAPE  H13Y16936   5.747   3.384   8.867 -1.3506 -2.0757 -1.4669
  152SAPE  C31416937   5.870   3.238   8.759  0.2954  0.6428 -0.2821
  152SAPE  H14X16938   5.807   3.154   8.793 -0.0569  0.5801 -1.0627
  152SAPE  H14Y16939   5.978   3.212   8.762 -0.3411 -2.5337 -1.0151
  152SAPE  C31516940   5.829   3.276   8.617  0.4377 -0.2219  0.6316
  152SAPE  H15X16941   5.907   3.351   8.591  1.4706 -1.2956  0.5016
  152SAPE  H15Y16942   5.731   3.326   8.623  0.6145  0.0417  1.4415
  152SAPE  C31616943   5.822   3.164   8.516 -0.0853  0.2442  0.0946
  152SAPE  H16X16944   5.907   3.097   8.543 -1.2573 -0.0996  3.3338
  152SAPE  H16Y16945   5.844   3.194   8.411 -3.6438  0.5831 -0.6676
  152SAPE  C31716946   5.684   3.095   8.504 -0.0936  0.3460 -0.6496
  152SAPE  H17X16947   5.601   3.161   8.469 -0.5048 -1.5662 -3.6637
  152SAPE  H17Y16948   5.656   3.071   8.609  0.7797  0.7746 -0.3076
  152SAPE  C31816949   5.696   2.969   8.412 -0.8409 -0.5785  0.4122
  152SAPE  H18X16950   5.760   2.893   8.463 -2.8226 -1.5911  1.4947
  152SAPE  H18Y16951   5.736   3.010   8.317  1.5998  0.2804  1.7006
  152SAPE  H18Z16952   5.597   2.930   8.382 -0.9497 -0.2274  0.3113
  153SAPE     N16953   6.608   5.088  10.840  0.0762 -0.8455  0.5575
  153SAPE   HN116954   6.508   5.071  10.815  0.6618 -2.8328 -0.7093
  153SAPE   HN216955   6.642   5.164  10.778  1.3392 -1.6081  0.2888
  153SAPE   HN316956   6.651   4.996  10.816  1.7898  0.5645 -2.1122
  153SAPE   C1216957   6.620   5.132  10.984 -0.6756  0.9240  0.1075
  153SAPE  H12A16958   6.721   5.179  10.992 -0.2976  0.1327  0.1086
  153SAPE  H12B16959   6.606   5.040  11.046 -0.6230  1.5362  1.0489
  153SAPE   C1116960   6.507   5.220  11.021  0.5234 -0.0439  0.2213
  153SAPE  H11A16961   6.525   5.248  11.127  0.8438 -1.0261  0.4312
  153SAPE  H11B16962   6.401   5.189  11.011  0.4929  0.0104  0.3737
  153SAPE     P16963   6.536   5.479  10.976  0.1813 -0.0408 -0.3442
  153SAPE   O1316964   6.428   5.527  11.067 -0.5510  1.0857 -0.2402
  153SAPE   O1416965   6.674   5.501  11.021 -0.3092 -0.1605  0.1076
  153SAPE   O1216966   6.518   5.336  10.931 -0.3159 -0.2763  0.2892
  153SAPE   O1116967   6.522   5.542  10.835 -0.3016  0.3582  0.1695
  153SAPE    C116968   6.472   5.677  10.822 -0.5334 -0.3682  0.5848
  153SAPE    HA16969   6.376   5.672  10.766 -1.0179 -1.6489  1.4918
  153SAPE    HB16970   6.446   5.729  10.917  3.2523  1.7533  0.6389
  153SAPE    C216971   6.574   5.764  10.739 -0.9527 -0.2569  0.0666
  153SAPE    HS16972   6.521   5.861  10.730 -0.7696 -0.1207  0.4898
  153SAPE   O2116973   6.597   5.698  10.609 -0.0682 -0.4455 -0.2766
  153SAPE   C2116974   6.626   5.790  10.513 -0.9181 -0.5037 -0.5489
  153SAPE   O2216975   6.654   5.908  10.535 -0.2060 -0.7100  0.2784
  153SAPE   C2216976   6.610   5.718  10.377  0.5400 -0.2748  0.3225
  153SAPE   H2R16977   6.707   5.667  10.357  0.3736 -0.5349  0.1683
  153SAPE   H2S16978   6.523   5.649  10.378 -2.5711  3.1566 -2.3213
  153SAPE    C316979   6.704   5.780  10.826  0.0954 -0.0992 -0.8220
  153SAPE    HX16980   6.731   5.675  10.852  1.6553  0.5701  0.3835
  153SAPE    HY16981   6.689   5.827  10.926 -1.0521  0.2886 -1.1552
  153SAPE   O3116982   6.818   5.826  10.766 -0.1967  0.4185  0.3090
  153SAPE   C3116983   6.847   5.952  10.774 -0.1017  0.1268  1.0785
  153SAPE   O3216984   6.793   6.029  10.851 -0.0828 -0.3917  0.3073
  153SAPE   C3216985   6.952   5.981  10.666 -1.2157 -0.6247 -0.0874
  153SAPE   H2X16986   6.915   5.948  10.567  0.2051 -1.9734 -0.2092
  153SAPE   H2Y16987   7.037   5.918  10.700 -0.9060 -0.4990 -0.6218
  153SAPE   C2316988   6.568   5.811  10.254 -0.4265 -0.1936 -0.1439
  153SAPE   H3R16989   6.646   5.890  10.253  0.1455 -0.6870  1.9902
  153SAPE   H3S16990   6.473   5.867  10.274 -1.3865 -1.2859 -1.4451
  153SAPE   C2416991   6.544   5.741  10.121 -0.5467  0.3290 -0.7133
  153SAPE   H4R16992   6.495   5.811  10.050 -0.8177  0.4180 -0.4371
  153SAPE   H4S16993   6.460   5.673  10.148 -0.1187 -1.6396 -3.7673
  153SAPE   C2516994   6.661   5.661  10.067  0.1899  0.1104  0.4958
  153SAPE   H5R16995   6.688   5.581  10.136 -1.9290 -0.9361  0.2020
  153SAPE   C2616996   6.716   5.690   9.946 -0.9725 -0.2474 -0.4103
  153SAPE   H6R16997   6.800   5.629   9.910 -1.3135  0.7812 -3.1501
  153SAPE   C2716998   6.690   5.798   9.832  0.5389 -0.1319  0.4249
  153SAPE   H7R16999   6.781   5.837   9.782  1.0102 -2.7851 -0.9954
  153SAPE   H7S17000   6.640   5.885   9.879 -2.9135 -0.2039 -2.6070
  153SAPE   C2817001   6.596   5.761   9.720 -0.2709  0.1964  0.3396
  153SAPE   H8R17002   6.542   5.666   9.723 -1.3874  0.8373  1.6495
  153SAPE   C2917003   6.593   5.824   9.600 -0.2192 -0.6594 -0.3472
  153SAPE   H9R17004   6.531   5.781   9.519  2.2160 -0.1884 -2.6360
  153SAPE  C21017005   6.663   5.951   9.560 -0.4468 -0.1798 -0.3553
  153SAPE  H10R17006   6.690   6.005   9.653 -2.6830  0.5036 -0.0670
  153SAPE  H10S17007   6.602   6.019   9.498  0.2438  0.1694 -0.6653
  153SAPE  C21117008   6.791   5.914   9.487 -0.4061 -0.3093 -0.0761
  153SAPE  H11R17009   6.869   5.853   9.534 -0.1669 -2.8342 -3.3992
  153SAPE  C21217010   6.827   5.958   9.367 -0.3466 -0.1123  0.1414
  153SAPE  H12R17011   6.921   5.922   9.324  0.3147 -0.0282  1.4771
  153SAPE  C21317012   6.754   6.053   9.279  0.7200  0.4808  0.0076
  153SAPE  H13R17013   6.822   6.137   9.254  0.5478  0.6227  0.0136
  153SAPE  H13S17014   6.673   6.107   9.333  0.2946 -1.8284  1.8397
  153SAPE  C21417015   6.702   5.977   9.162 -0.0142 -0.0754 -0.5302
  153SAPE  H14R17016   6.611   5.915   9.169  0.3668 -0.7773 -1.4379
  153SAPE  C21517017   6.755   5.988   9.038 -0.2912  0.2025  0.2737
  153SAPE  H15R17018   6.702   5.928   8.963 -0.8840  0.0814  0.7819
  153SAPE  C21617019   6.869   6.073   9.000  0.0821  0.6515  0.4306
  153SAPE  H16R17020   6.941   6.072   9.084 -0.8724  1.0092  1.2644
  153SAPE  H16S17021   6.832   6.178   8.992  0.4156  0.8886  1.8503
  153SAPE  C21717022   6.937   6.027   8.873 -0.7426 -0.3598 -0.0128
  153SAPE  H17R17023   6.974   5.923   8.885 -0.2620 -0.2942 -0.8479
  153SAPE  H17S17024   7.016   6.102   8.856 -1.1188 -0.1370 -0.8288
  153SAPE  C21817025   6.843   6.037   8.749  0.3107  0.1772  0.5287
  153SAPE  H18R17026   6.821   6.145   8.738 -1.8517 -0.0472  1.8370
  153SAPE  H18S17027   6.744   5.987   8.762  0.4506  0.1812  1.8259
  153SAPE  C21917028   6.906   6.000   8.621 -0.6894  0.2984 -0.2521
  153SAPE  H19R17029   6.997   6.063   8.617 -0.1422 -0.2783  1.7979
  153SAPE  H19S17030   6.844   6.032   8.535 -0.3514 -2.4230 -1.6281
  153SAPE  C22017031   6.947   5.852   8.609  0.5977 -0.0795 -0.4327
  153SAPE  H20R17032   6.978   5.816   8.509  2.7950 -0.2059  0.2357
  153SAPE  H20S17033   6.854   5.799   8.637  0.3497  0.4595 -0.2206
  153SAPE  H20T17034   7.033   5.833   8.677  0.8906  2.3017 -0.0554
  153SAPE   C3317035   7.008   6.131  10.668  0.3923  0.8740 -0.3152
  153SAPE   H3X17036   7.021   6.158  10.775 -3.5453 -0.1668  0.6133
  153SAPE   H3Y17037   6.935   6.202  10.622 -0.9964  0.1849  0.7273
  153SAPE   C3417038   7.139   6.136  10.592 -0.3726 -0.5621  0.1661
  153SAPE   H4X17039   7.207   6.074  10.654 -0.5766  1.5746  2.6806
  153SAPE   H4Y17040   7.177   6.240  10.596  0.4585 -0.8940  3.4065
  153SAPE   C3517041   7.137   6.080  10.450 -0.4346 -0.0532  0.2677
  153SAPE   H5X17042   7.059   6.004  10.428  1.2174 -2.0797  1.1772
  153SAPE   H5Y17043   7.234   6.030  10.433 -1.1470 -1.1774 -0.6828
  153SAPE   C3617044   7.108   6.192  10.353  0.2429  0.1523  0.6631
  153SAPE   H6X17045   7.175   6.278  10.372  1.4850 -0.9059  1.2399
  153SAPE   H6Y17046   7.012   6.237  10.386  0.9821  2.1958  0.2011
  153SAPE   C3717047   7.099   6.149  10.202 -0.0074  0.2328  0.2967
  153SAPE   H7X17048   7.025   6.073  10.170 -0.6171  1.9572 -2.8065
  153SAPE   H7Y17049   7.202   6.114  10.181  1.1089  1.0213  3.7800
  153SAPE   C3817050   7.076   6.263  10.096 -0.1470 -0.0095 -0.2368
  153SAPE   H8X17051   7.131   6.354  10.128  0.7715 -0.3746 -0.7418
  153SAPE   H8Y17052   6.967   6.284  10.092 -0.0615  0.5182  0.1127
  153SAPE   C3917053   7.127   6.227   9.959  0.4204  0.2340 -0.1894
  153SAPE   H9X17054   7.086   6.129   9.926  0.7249  0.1165 -0.2202
  153SAPE   H9Y17055   7.237   6.222   9.942  0.4384 -0.6409  0.1534
  153SAPE  C31017056   7.083   6.332   9.856  0.0906  0.0171  0.5746
  153SAPE  H10X17057   7.160   6.412   9.858 -0.0627  0.1689  2.6299
  153SAPE  H10Y17058   6.982   6.372   9.882 -2.1439 -3.0277 -2.4569
  153SAPE  C31117059   7.062   6.277   9.710 -1.1408  0.3011 -0.5576
  153SAPE  H11X17060   6.972   6.213   9.715 -1.2660  0.2969 -2.2721
  153SAPE  H11Y17061   7.145   6.208   9.682  0.0451  1.4654 -0.0388
  153SAPE  C31217062   7.036   6.387   9.606 -0.1980  0.1937 -0.4017
  153SAPE  H12X17063   7.117   6.463   9.613  1.1920 -1.3278  1.0905
  153SAPE  H12Y17064   6.943   6.441   9.633 -1.4604 -1.3087 -1.5232
  153SAPE  C31317065   7.026   6.329   9.464 -0.2372 -0.2153 -0.0740
  153SAPE  H13X17066   6.933   6.271   9.446 -0.4410  0.2541 -0.5603
  153SAPE  H13Y17067   7.115   6.264   9.444  1.0103  0.9403  1.4529
  153SAPE  C31417068   7.030   6.436   9.359  0.4965 -0.6902  0.8861
  153SAPE  H14X17069   7.094   6.397   9.277 -0.7755  0.5375 -0.7737
  153SAPE  H14Y17070   7.080   6.525   9.403  0.4068 -0.2706  0.1543
  153SAPE  C31517071   6.892   6.459   9.298  0.2505  0.1723 -0.3195
  153SAPE  H15X17072   6.807   6.458   9.370  0.3254 -0.0852 -0.2302
  153SAPE  H15Y17073   6.868   6.375   9.229 -0.6900  0.1632  0.0019
  153SAPE  C31617074   6.865   6.595   9.226 -0.0228  1.0725 -0.7796
  153SAPE  H16X17075   6.761   6.594   9.186 -1.0773 -1.0534  1.7212
  153SAPE  H16Y17076   6.937   6.611   9.143 -0.6947  1.1038 -1.3627
  153SAPE  C31717077   6.882   6.722   9.324  0.1006  0.8045  0.8619
  153SAPE  H17X17078   6.850   6.809   9.263 -0.5111  1.4821  2.1295
  153SAPE  H17Y17079   6.989   6.732   9.352  0.0351  0.2187  1.3304
  153SAPE  C31817080   6.810   6.714   9.458 -0.5222  0.1703  0.5189
  153SAPE  H18X17081   6.795   6.813   9.506 -1.9750 -0.5148  1.5693
  153SAPE  H18Y17082   6.866   6.637   9.517 -0.4669 -0.5337 -0.4256
  153SAPE  H18Z17083   6.708   6.672   9.451 -0.4020 -0.0481  0.0048
  154SAPE     N17084   5.662   5.081  11.076  0.1524 -0.4361 -0.1770
  154SAPE   HN117085   5.677   4.978  11.066  0.8957 -0.3590  0.0530
  154SAPE   HN217086   5.611   5.106  11.163  1.1068  0.0338  0.2606
  154SAPE   HN317087   5.593   5.105  11.002  1.6937  1.0722 -1.1802
  154SAPE   C1217088   5.797   5.148  11.057 -0.4115 -0.3198 -0.1909
  154SAPE  H12A17089   5.857   5.103  11.139 -3.4887 -2.1211  1.2606
  154SAPE  H12B17090   5.785   5.258  11.074  2.1096  0.2813 -1.8353
  154SAPE   C1117091   5.854   5.114  10.912  0.2551  0.1777 -0.4101
  154SAPE  H11A17092   5.933   5.185  10.878  0.4532  0.6556  0.9944
  154SAPE  H11B17093   5.767   5.118  10.844  0.7426  1.0548 -1.0034
  154SAPE     P17094   6.058   4.942  10.874  0.4102 -0.1803 -0.0443
  154SAPE   O1317095   6.133   5.061  10.836  0.3947 -0.0482 -0.1376
  154SAPE   O1417096   6.114   4.859  10.978  0.0058 -0.1524  0.2044
  154SAPE   O1217097   5.905   4.981  10.909  0.3869  0.0696  0.3774
  154SAPE   O1117098   6.046   4.847  10.749  0.0686  0.4763 -0.1647
  154SAPE    C117099   5.926   4.830  10.674 -0.5056  0.1550 -0.8584
  154SAPE    HA17100   5.892   4.724  10.682  0.3528 -0.3235 -2.9655
  154SAPE    HB17101   5.839   4.878  10.724 -1.4911 -0.4368 -1.9513
  154SAPE    C217102   5.945   4.862  10.524 -0.2992  0.1276 -0.2827
  154SAPE    HS17103   6.048   4.824  10.507 -0.6374 -0.8828 -0.1115
  154SAPE   O2117104   5.942   5.004  10.510 -0.6359 -0.1792  0.3279
  154SAPE   C2117105   6.065   5.070  10.528  0.3917 -0.5131 -0.0659
  154SAPE   O2217106   6.170   5.010  10.540 -0.0944 -0.5364  0.2466
  154SAPE   C2217107   6.054   5.222  10.532  0.2811  0.2291  0.1903
  154SAPE   H2R17108   5.946   5.249  10.529  0.6512  1.8977  0.8387
  154SAPE   H2S17109   6.101   5.252  10.628 -1.3975 -0.7491  1.3658
  154SAPE    C317110   5.852   4.794  10.430 -0.2359 -0.9013  0.3479
  154SAPE    HX17111   5.753   4.845  10.434  0.0702 -0.2064 -0.6954
  154SAPE    HY17112   5.832   4.687  10.455  1.2854 -0.5860  3.2239
  154SAPE   O3117113   5.905   4.816  10.292 -0.2080 -0.0262 -0.7673
  154SAPE   C3117114   5.977   4.720  10.243 -0.3297 -0.2960 -0.0808
  154SAPE   O3217115   6.025   4.625  10.296 -0.0422 -0.3445 -0.2509
  154SAPE   C3217116   6.007   4.752  10.097 -0.1587  0.5789 -0.5263
  154SAPE   H2X17117   6.099   4.813  10.087 -0.1903  0.5661 -0.8841
  154SAPE   H2Y17118   5.930   4.817  10.053  0.9258  1.0549 -1.7812
  154SAPE   C2317119   6.113   5.289  10.398  0.4949 -0.7647 -0.0760
  154SAPE   H3R17120   6.206   5.234  10.372  0.4872 -1.0321  0.4536
  154SAPE   H3S17121   6.131   5.396  10.423 -3.1395  0.1437 -0.8609
  154SAPE   C2417122   6.017   5.294  10.273 -0.5561 -0.8634  0.7383
  154SAPE   H4R17123   6.059   5.369  10.203 -0.2136  0.2317  2.0880
  154SAPE   H4S17124   5.919   5.331  10.309 -0.4421 -0.3626  0.5415
  154SAPE   C2517125   5.993   5.160  10.210  0.4209  0.7716 -0.0614
  154SAPE   H5R17126   5.931   5.100  10.277 -1.0587  2.1095 -0.1787
  154SAPE   C2617127   6.040   5.116  10.097 -0.3396 -0.4529  0.6177
  154SAPE   H6R17128   6.021   5.014  10.061  3.0259 -1.7152  2.0791
  154SAPE   C2717129   6.130   5.196  10.005  0.6279  0.7539 -0.1108
  154SAPE   H7R17130   6.189   5.277  10.053 -0.4205  1.0078  0.8033
  154SAPE   H7S17131   6.068   5.247   9.928 -1.5916 -0.5259  0.7393
  154SAPE   C2817132   6.227   5.088   9.952 -0.3851 -0.2291 -0.4985
  154SAPE   H8R17133   6.262   5.025  10.035 -1.4844 -0.1411  0.0538
  154SAPE   C2917134   6.261   5.065   9.824 -0.2241  0.3691  0.8360
  154SAPE   H9R17135   6.331   4.983   9.802  0.4054  1.2606 -0.6181
  154SAPE  C21017136   6.195   5.135   9.703 -0.0919  0.4354  0.4905
  154SAPE  H10R17137   6.253   5.109   9.612  1.0012 -0.2106  1.3327
  154SAPE  H10S17138   6.211   5.245   9.708  0.3004  0.5276 -1.7653
  154SAPE  C21117139   6.047   5.110   9.692  0.0689 -0.4714 -0.1964
  154SAPE  H11R17140   5.997   5.084   9.787 -2.2066  0.0883 -1.1719
  154SAPE  C21217141   5.970   5.114   9.581 -0.3406 -0.6634  0.6795
  154SAPE  H12R17142   5.861   5.106   9.598 -0.4568  0.6017  0.6047
  154SAPE  C21317143   6.004   5.152   9.436 -0.4439 -0.7960  0.8604
  154SAPE  H13R17144   6.087   5.225   9.449  0.5521 -1.9998  1.4682
  154SAPE  H13S17145   5.930   5.213   9.381  0.8708  1.0500  1.0428
  154SAPE  C21417146   6.047   5.044   9.341  0.5257 -0.1842  0.2235
  154SAPE  H14R17147   6.085   4.954   9.392  1.0795  1.2837  2.5440
  154SAPE  C21517148   6.057   5.053   9.211  0.1506 -0.3422  0.1728
  154SAPE  H15R17149   6.088   4.961   9.160 -0.8787 -0.8541  0.4395
  154SAPE  C21617150   6.025   5.181   9.137  0.5642 -0.1017  0.2357
  154SAPE  H16R17151   6.003   5.274   9.192  0.8707 -1.4054  2.6847
  154SAPE  H16S17152   5.927   5.156   9.091  0.7052  0.5753 -0.4527
  154SAPE  C21717153   6.139   5.200   9.040 -0.6781  0.0974  0.2131
  154SAPE  H17R17154   6.147   5.113   8.971 -0.8165  0.1262  0.1591
  154SAPE  H17S17155   6.234   5.205   9.096  0.1224 -1.5580 -0.9210
  154SAPE  C21817156   6.116   5.323   8.951 -0.3242  0.1471 -0.6373
  154SAPE  H18R17157   6.090   5.404   9.022 -1.5607 -0.2952 -0.5542
  154SAPE  H18S17158   6.022   5.308   8.894 -0.5399  2.5169 -1.0019
  154SAPE  C21917159   6.226   5.355   8.848  0.2835  0.5100  0.0170
  154SAPE  H19R17160   6.221   5.269   8.777 -0.4658 -0.2897  1.0128
  154SAPE  H19S17161   6.323   5.359   8.902  0.7308  0.1192 -0.7398
  154SAPE  C22017162   6.210   5.476   8.764 -0.6059  0.5181 -0.3834
  154SAPE  H20R17163   6.297   5.484   8.695  0.5489  0.2776  1.0080
  154SAPE  H20S17164   6.215   5.566   8.830  1.1145 -0.7516  1.3218
  154SAPE  H20T17165   6.109   5.474   8.717 -0.3193  2.2960 -1.1732
  154SAPE   C3317166   6.024   4.621  10.014 -0.4640  0.5367 -0.1358
  154SAPE   H3X17167   5.939   4.550  10.016  0.4277 -0.5521 -0.0323
  154SAPE   H3Y17168   6.116   4.572  10.054 -1.1075 -0.6846 -0.1031
  154SAPE   C3417169   6.058   4.653   9.865  0.4319 -0.2309  0.1826
  154SAPE   H4X17170   6.101   4.566   9.811  2.0279  1.4957 -1.4963
  154SAPE   H4Y17171   6.139   4.729   9.858  2.4887 -2.4531 -2.6146
  154SAPE   C3517172   5.938   4.723   9.792 -0.0373  0.4587 -0.2503
  154SAPE   H5X17173   5.926   4.827   9.830  1.5628  0.8630 -0.7903
  154SAPE   H5Y17174   5.852   4.657   9.813  1.4274 -0.7066  2.4871
  154SAPE   C3617175   5.957   4.737   9.632  0.2663  0.9759  0.4080
  154SAPE   H6X17176   6.033   4.816   9.612  0.4467  0.5098 -0.7689
  154SAPE   H6Y17177   5.862   4.774   9.590 -1.5960 -1.6680  2.0034
  154SAPE   C3717178   5.989   4.615   9.554  0.3608 -0.5734 -0.6124
  154SAPE   H7X17179   5.912   4.534   9.562  1.1685 -1.5224 -2.0241
  154SAPE   H7Y17180   6.089   4.573   9.576  0.7539  0.2656 -0.7689
  154SAPE   C3817181   5.979   4.648   9.407  0.5643 -0.7242 -0.3574
  154SAPE   H8X17182   6.061   4.717   9.378  0.8453 -1.0026 -0.2350
  154SAPE   H8Y17183   5.886   4.693   9.366 -0.1963  0.1043  2.0960
  154SAPE   C3917184   6.004   4.531   9.311  0.0307  0.6414 -0.1054
  154SAPE   H9X17185   5.906   4.478   9.308 -0.2852  1.0606  1.5308
  154SAPE   H9Y17186   6.075   4.463   9.363  0.1589  0.6392 -0.2832
  154SAPE  C31017187   6.080   4.556   9.182  0.2362  0.1619  0.6680
  154SAPE  H10X17188   6.066   4.472   9.110  0.7403  0.9373 -0.3743
  154SAPE  H10Y17189   6.190   4.564   9.194  0.6848  0.7213 -2.7555
  154SAPE  C31117190   6.028   4.681   9.115  0.5508 -0.0246  0.0627
  154SAPE  H11X17191   6.051   4.782   9.156 -1.1721  0.8245 -0.9347
  154SAPE  H11Y17192   5.917   4.683   9.110  0.5295 -0.4158  0.3681
  154SAPE  C31217193   6.065   4.697   8.969  0.5338  0.5915  0.3495
  154SAPE  H12X17194   6.051   4.602   8.913 -0.0077 -0.0828  1.5860
  154SAPE  H12Y17195   6.173   4.721   8.971  1.1117 -1.5806 -1.6149
  154SAPE  C31317196   5.982   4.796   8.900  0.0350 -1.4877  0.2024
  154SAPE  H13X17197   5.995   4.891   8.954 -2.1422 -0.8914 -0.2178
  154SAPE  H13Y17198   5.881   4.749   8.896 -0.4616 -0.3723 -1.7292
  154SAPE  C31417199   6.026   4.811   8.753 -0.1300 -0.4215 -0.0308
  154SAPE  H14X17200   6.008   4.718   8.695  2.0133 -1.6439  1.1568
  154SAPE  H14Y17201   6.136   4.826   8.753 -0.1268 -0.1807  1.7892
  154SAPE  C31517202   5.954   4.940   8.699 -0.6795  0.0025 -0.4246
  154SAPE  H15X17203   5.997   5.029   8.748  0.8136 -1.2310  0.5786
  154SAPE  H15Y17204   5.850   4.946   8.738 -0.4716 -0.5621  0.2331
  154SAPE  C31617205   5.966   4.959   8.547  0.2610 -0.1518  0.0320
  154SAPE  H16X17206   5.930   4.864   8.503  0.5540 -1.9327  3.2852
  154SAPE  H16Y17207   6.071   4.969   8.511  0.7605  0.3304  1.5239
  154SAPE  C31717208   5.892   5.097   8.503 -0.2570  0.1278 -0.3938
  154SAPE  H17X17209   5.784   5.086   8.525  0.3493 -0.6577  2.6242
  154SAPE  H17Y17210   5.916   5.107   8.395  1.6259  1.3174  0.0855
  154SAPE  C31817211   5.938   5.221   8.584  0.2200  0.0192 -0.2545
  154SAPE  H18X17212   5.915   5.205   8.691  2.2684 -0.6388  0.1435
  154SAPE  H18Y17213   5.872   5.301   8.545  0.3959  0.1749 -0.2309
  154SAPE  H18Z17214   6.044   5.249   8.568  0.1595  0.3466 -0.0688
  155SAPE     N17215   1.091   6.579  11.075 -0.7263 -0.0056 -0.1763
  155SAPE   HN117216   1.073   6.489  11.026 -1.0911  0.5289 -1.0325
  155SAPE   HN217217   0.995   6.602  11.108 -0.0255  0.8958  1.3426
  155SAPE   HN317218   1.134   6.644  11.006  0.5127  0.0805  0.6267
  155SAPE   C1217219   1.186   6.573  11.190  0.1598 -0.4428  0.3855
  155SAPE  H12A17220   1.148   6.498  11.263  0.4544 -1.6066 -0.6285
  155SAPE  H12B17221   1.185   6.676  11.232  1.4964 -0.2638  0.0274
  155SAPE   C1117222   1.327   6.530  11.150 -0.5785 -0.3957  0.3479
  155SAPE  H11A17223   1.395   6.548  11.237 -1.8442  2.2871  0.8743
  155SAPE  H11B17224   1.361   6.595  11.067  1.3440  0.5545  1.7955
  155SAPE     P17225   1.460   6.317  11.087  0.1581 -0.2797 -0.2441
  155SAPE   O1317226   1.559   6.356  11.192  0.2583 -1.0959  0.0254
  155SAPE   O1417227   1.428   6.175  11.069 -0.1354 -0.2036 -0.1694
  155SAPE   O1217228   1.326   6.392  11.122 -0.3751  0.5329 -0.2959
  155SAPE   O1117229   1.503   6.373  10.939  0.7166  0.1065 -0.1351
  155SAPE    C117230   1.395   6.420  10.848 -0.5314 -0.2745  0.5287
  155SAPE    HA17231   1.293   6.431  10.889 -0.1574 -0.1069  1.4389
  155SAPE    HB17232   1.425   6.523  10.818 -1.5019  0.1229  0.8991
  155SAPE    C217233   1.397   6.326  10.721  0.7129 -0.1825 -0.6036
  155SAPE    HS17234   1.337   6.236  10.746 -0.8292  0.8128 -0.5622
  155SAPE   O2117235   1.534   6.299  10.680 -0.6965 -0.2453 -0.1455
  155SAPE   C2117236   1.580   6.183  10.683  0.1069  0.5412 -0.3947
  155SAPE   O2217237   1.517   6.080  10.706 -0.4932  0.1047 -0.3717
  155SAPE   C2217238   1.735   6.196  10.685  0.2510  0.6607 -0.0739
  155SAPE   H2R17239   1.765   6.295  10.724  2.6942 -1.2132  3.2640
  155SAPE   H2S17240   1.777   6.128  10.762  0.4289  0.9278  0.0658
  155SAPE    C317241   1.322   6.396  10.597  0.0199  0.3743  0.1514
  155SAPE    HX17242   1.395   6.464  10.548  1.4173 -0.8185  0.5131
  155SAPE    HY17243   1.236   6.452  10.640 -1.0680  0.1275 -1.5961
  155SAPE   O3117244   1.277   6.296  10.501  0.4186 -0.4561 -0.1382
  155SAPE   C3117245   1.211   6.354  10.399  0.0745  0.1000 -0.4054
  155SAPE   O3217246   1.192   6.474  10.389 -0.0220  0.0360 -0.3501
  155SAPE   C3217247   1.177   6.258  10.293  0.2371 -0.0601  0.7297
  155SAPE   H2X17248   1.102   6.186  10.333 -1.5689  0.7443 -1.0358
  155SAPE   H2Y17249   1.264   6.197  10.261 -0.2325 -0.1427 -0.4346
  155SAPE   C2317250   1.809   6.166  10.546  0.6965 -0.0872 -0.1203
  155SAPE   H3R17251   1.916   6.191  10.567  0.9297 -0.6595 -0.5982
  155SAPE   H3S17252   1.765   6.242  10.478 -3.4176 -0.3694  1.9043
  155SAPE   C2417253   1.805   6.020  10.502 -0.1067  0.0030 -0.3860
  155SAPE   H4R17254   1.701   5.997  10.468 -0.4684 -0.4413  0.9644
  155SAPE   H4S17255   1.817   5.952  10.589  0.2784 -1.1591 -1.3132
  155SAPE   C2517256   1.911   5.990  10.396  0.0665 -0.4345 -0.3402
  155SAPE   H5R17257   2.017   5.996  10.424  1.1002  0.1394 -3.8504
  155SAPE   C2617258   1.885   5.950  10.266 -0.7388  0.6936  0.2042
  155SAPE   H6R17259   1.965   5.922  10.196 -2.0090  0.6260 -1.2653
  155SAPE   C2717260   1.756   5.936  10.202 -0.3426 -0.7971 -0.0429
  155SAPE   H7R17261   1.684   5.893  10.275 -1.8408  1.0939 -0.2988
  155SAPE   H7S17262   1.761   5.854  10.127  2.0926  0.4627 -1.3768
  155SAPE   C2817263   1.690   6.060  10.147 -0.2248  0.2942  0.1503
  155SAPE   H8R17264   1.659   6.138  10.218  0.7469  0.7198  0.1279
  155SAPE   C2917265   1.647   6.070  10.017 -0.7708 -0.5738 -0.4127
  155SAPE   H9R17266   1.587   6.157   9.987  0.1999 -0.1640 -1.2131
  155SAPE  C21017267   1.669   5.972   9.907 -0.3672  0.1472 -0.0349
  155SAPE  H10R17268   1.593   5.999   9.830  0.6531 -0.6774 -1.3792
  155SAPE  H10S17269   1.621   5.876   9.936 -1.3933  0.4572 -0.6489
  155SAPE  C21117270   1.805   5.957   9.850  0.4238  0.2511  0.6222
  155SAPE  H11R17271   1.877   5.891   9.901  1.6005  1.1408  0.1458
  155SAPE  C21217272   1.843   6.013   9.730  0.2303 -0.0786 -0.6086
  155SAPE  H12R17273   1.948   6.002   9.699  0.2093  1.3238 -1.2681
  155SAPE  C21317274   1.755   6.101   9.639  0.0086 -0.0027 -0.4776
  155SAPE  H13R17275   1.816   6.173   9.580  0.8441  0.5444  1.0058
  155SAPE  H13S17276   1.690   6.160   9.707  0.0770 -1.0102  0.4968
  155SAPE  C21417277   1.659   6.021   9.556  0.3277 -0.1572  0.2305
  155SAPE  H14R17278   1.598   5.941   9.602  3.1882 -3.3420 -1.0213
  155SAPE  C21517279   1.658   6.021   9.417 -0.6634 -0.1643  0.2807
  155SAPE  H15R17280   1.590   5.947   9.372 -2.0237  1.6712 -0.8842
  155SAPE  C21617281   1.740   6.106   9.312 -0.2134 -0.3707 -0.2211
  155SAPE  H16R17282   1.827   6.049   9.272 -0.2916  0.1415 -1.1429
  155SAPE  H16S17283   1.776   6.199   9.361  0.6430 -0.7723 -0.0649
  155SAPE  C21717284   1.636   6.155   9.211  0.8913  0.8150 -0.1757
  155SAPE  H17R17285   1.578   6.236   9.261  0.8052  1.9265 -1.9766
  155SAPE  H17S17286   1.562   6.073   9.198  2.1761 -0.6818  1.5050
  155SAPE  C21817287   1.708   6.210   9.084 -0.3053 -0.1635 -0.6738
  155SAPE  H18R17288   1.771   6.131   9.038  0.6641 -1.3298  2.4350
  155SAPE  H18S17289   1.772   6.292   9.123 -0.4663 -0.1992 -0.3261
  155SAPE  C21917290   1.611   6.267   8.978  0.0828  0.7028 -0.0746
  155SAPE  H19R17291   1.674   6.315   8.899 -1.4302  1.1909 -1.0227
  155SAPE  H19S17292   1.532   6.330   9.024  0.3267  1.3891 -0.5780
  155SAPE  C22017293   1.536   6.154   8.910 -0.0541  0.3506  0.3103
  155SAPE  H20R17294   1.618   6.088   8.875 -0.0365  0.7747 -0.4713
  155SAPE  H20S17295   1.480   6.198   8.825 -1.3646 -1.2300  0.2920
  155SAPE  H20T17296   1.463   6.095   8.970  0.9620 -2.8466 -1.3285
  155SAPE   C3317297   1.114   6.318  10.154 -0.3595  0.5054 -0.5250
  155SAPE   H3X17298   1.198   6.373  10.106  0.2566 -0.6715 -0.8448
  155SAPE   H3Y17299   1.038   6.390  10.191  0.4538  0.8823  0.4630
  155SAPE   C3417300   1.061   6.203  10.065 -0.0803  0.3567 -0.0955
  155SAPE   H4X17301   1.021   6.252   9.974 -1.5524 -1.1702 -0.3055
  155SAPE   H4Y17302   0.977   6.155  10.119  0.8203 -0.5542  0.5290
  155SAPE   C3517303   1.180   6.108  10.031 -0.5568 -0.3018 -0.1846
  155SAPE   H5X17304   1.153   6.025   9.962  1.9978  0.4126 -2.2038
  155SAPE   H5Y17305   1.209   6.070  10.131 -1.8310  1.8104  1.0775
  155SAPE   C3617306   1.304   6.172   9.960 -0.0899 -0.7093 -0.1386
  155SAPE   H6X17307   1.381   6.091   9.961  0.6161 -0.1541  3.3497
  155SAPE   H6Y17308   1.343   6.259  10.016 -0.4225  0.3883 -1.5666
  155SAPE   C3717309   1.276   6.220   9.816 -0.3126  0.3413 -0.3708
  155SAPE   H7X17310   1.208   6.308   9.813  0.8920  1.2906 -2.9787
  155SAPE   H7Y17311   1.231   6.136   9.759  1.0557  0.8649 -2.3340
  155SAPE   C3817312   1.391   6.270   9.719 -0.6067 -1.0036  0.6859
  155SAPE   H8X17313   1.442   6.178   9.683  0.4201 -0.1394 -0.1284
  155SAPE   H8Y17314   1.459   6.327   9.786  0.1337 -0.2877 -0.6309
  155SAPE   C3917315   1.348   6.349   9.598  0.0131 -0.3048 -0.1370
  155SAPE   H9X17316   1.303   6.441   9.640 -0.9201 -0.3362 -1.0310
  155SAPE   H9Y17317   1.277   6.294   9.532  0.7808  0.3174 -1.5328
  155SAPE  C31017318   1.464   6.392   9.511  0.7706 -0.3605  0.1292
  155SAPE  H10X17319   1.507   6.294   9.480 -2.4217 -1.6040 -0.6735
  155SAPE  H10Y17320   1.531   6.460   9.569  2.1422 -2.5669  1.2565
  155SAPE  C31117321   1.431   6.462   9.379  0.3930  0.2597 -0.0675
  155SAPE  H11X17322   1.365   6.390   9.327  0.0545 -0.9087  1.9028
  155SAPE  H11Y17323   1.511   6.482   9.305  0.4498 -2.5672 -0.8718
  155SAPE  C31217324   1.333   6.582   9.407 -0.0011  0.2993 -0.5201
  155SAPE  H12X17325   1.401   6.630   9.481 -1.2366 -1.9957  2.3211
  155SAPE  H12Y17326   1.243   6.536   9.453 -0.0350  0.9363  0.0801
  155SAPE  C31317327   1.305   6.668   9.283 -0.5979  0.0937  0.3669
  155SAPE  H13X17328   1.400   6.701   9.236 -0.8030  1.0454  0.6109
  155SAPE  H13Y17329   1.243   6.752   9.318  0.0547  0.2896  1.0758
  155SAPE  C31417330   1.222   6.591   9.176 -0.5508  0.3251  0.4147
  155SAPE  H14X17331   1.155   6.513   9.218  0.6399 -0.2697  1.2501
  155SAPE  H14Y17332   1.286   6.532   9.108 -0.3691  1.6118 -0.5667
  155SAPE  C31517333   1.149   6.683   9.082  0.2915 -0.0947  0.2150
  155SAPE  H15X17334   1.227   6.739   9.027  0.5424 -0.6768 -0.0321
  155SAPE  H15Y17335   1.090   6.755   9.143 -2.6991  0.4977 -3.0274
  155SAPE  C31617336   1.052   6.607   8.992  0.4426 -0.1531  0.0027
  155SAPE  H16X17337   0.978   6.562   9.062 -0.8198 -0.3483 -1.3935
  155SAPE  H16Y17338   1.106   6.533   8.929 -0.7944 -1.0967  0.0073
  155SAPE  C31717339   0.982   6.693   8.886 -0.3525  0.4168 -0.3000
  155SAPE  H17X17340   0.939   6.630   8.805  1.2229 -2.1500  0.7364
  155SAPE  H17Y17341   1.049   6.769   8.840  0.8078 -0.1757  0.3598
  155SAPE  C31817342   0.857   6.761   8.941  0.7861 -0.0899 -0.2834
  155SAPE  H18X17343   0.817   6.826   8.860 -0.6486  2.2124  2.1262
  155SAPE  H18Y17344   0.873   6.817   9.035  0.6489  0.0329 -0.3328
  155SAPE  H18Z17345   0.779   6.685   8.961  0.5550 -0.2701 -1.7579
  156SAPE     N17346   4.350   3.142  10.713 -0.7997 -0.2997 -0.6333
  156SAPE   HN117347   4.285   3.114  10.637 -0.4100 -0.2784 -0.9762
  156SAPE   HN217348   4.430   3.076  10.716 -0.2178  0.3768 -1.0470
  156SAPE   HN317349   4.305   3.138  10.807  2.2607 -0.0716  0.9515
  156SAPE   C1217350   4.406   3.275  10.689 -0.2595 -0.4905 -0.1370
  156SAPE  H12A17351   4.475   3.301  10.772  1.3776 -1.8523 -1.0155
  156SAPE  H12B17352   4.328   3.354  10.701  0.5217  0.1961  0.5683
  156SAPE   C1117353   4.486   3.271  10.559  0.3246  0.3621 -0.2386
  156SAPE  H11A17354   4.495   3.370  10.509  1.6152  0.2658 -0.2504
  156SAPE  H11B17355   4.418   3.220  10.488  0.1626  2.9594 -2.0932
  156SAPE     P17356   4.755   3.280  10.597  0.1705 -0.0974  0.7416
  156SAPE   O1317357   4.739   3.381  10.702 -0.1951  0.1831  0.0922
  156SAPE   O1417358   4.859   3.179  10.617 -0.5529  0.6064 -0.4831
  156SAPE   O1217359   4.616   3.206  10.581 -0.6604 -0.6063  0.2524
  156SAPE   O1117360   4.767   3.349  10.452 -0.4849  0.0593 -1.1395
  156SAPE    C117361   4.776   3.274  10.332  0.0258  0.8214 -0.2237
  156SAPE    HA17362   4.810   3.171  10.357 -0.4212  0.5799 -0.6167
  156SAPE    HB17363   4.674   3.262  10.290 -0.5511  1.1436  1.0427
  156SAPE    C217364   4.876   3.347  10.234  0.7322  0.0303 -0.1789
  156SAPE    HS17365   4.960   3.381  10.298  1.9445 -0.3496 -1.5168
  156SAPE   O2117366   4.809   3.460  10.167 -0.6224 -0.1543  0.1575
  156SAPE   C2117367   4.896   3.556  10.142 -1.4236  0.7661  0.9958
  156SAPE   O2217368   5.020   3.550  10.153  0.0401 -0.5174 -0.0316
  156SAPE   C2217369   4.819   3.677  10.100 -0.2109  0.1798 -0.6338
  156SAPE   H2R17370   4.723   3.639  10.060 -1.6728  1.7953  1.1502
  156SAPE   H2S17371   4.808   3.742  10.189 -0.9567 -1.8809  0.8536
  156SAPE    C317372   4.936   3.231  10.136 -0.0883 -0.6983 -0.2059
  156SAPE    HX17373   4.982   3.152  10.198 -2.3385 -0.8723  1.3931
  156SAPE    HY17374   5.008   3.298  10.085 -2.0728  0.2827 -1.8947
  156SAPE   O3117375   4.834   3.181  10.049  0.3127 -0.2795 -0.1122
  156SAPE   C3117376   4.850   3.061  10.004  0.7451  0.1814 -0.8709
  156SAPE   O3217377   4.946   2.992  10.030  0.1488 -0.0671 -0.2587
  156SAPE   C3217378   4.747   3.018   9.894 -0.0749 -0.2010  0.1875
  156SAPE   H2X17379   4.746   3.100   9.819  2.6330 -1.3974 -1.2834
  156SAPE   H2Y17380   4.645   3.002   9.934 -0.9720 -1.7452 -2.4591
  156SAPE   C2317381   4.892   3.741   9.984 -0.1258 -0.4995  0.5095
  156SAPE   H3R17382   4.904   3.672   9.898  3.3459 -0.0578  0.5148
  156SAPE   H3S17383   4.995   3.770  10.011 -0.0990  1.0627 -1.0845
  156SAPE   C2417384   4.810   3.860   9.938  0.1270 -0.0901 -0.1999
  156SAPE   H4R17385   4.893   3.923   9.898  1.7107 -1.9327  0.0147
  156SAPE   H4S17386   4.765   3.896  10.033 -0.4060 -1.6437  0.1526
  156SAPE   C2517387   4.704   3.853   9.827  0.6364  0.0188  0.4477
  156SAPE   H5R17388   4.605   3.879   9.865  0.5316 -1.1914  1.0357
  156SAPE   C2617389   4.722   3.833   9.690  0.2846  0.0242  0.2445
  156SAPE   H6R17390   4.630   3.831   9.629  0.4947 -2.0723 -0.0859
  156SAPE   C2717391   4.853   3.799   9.616  0.3973  0.5744  0.5140
  156SAPE   H7R17392   4.830   3.715   9.547  2.3866  0.3571  0.0542
  156SAPE   H7S17393   4.924   3.751   9.687  1.0178  0.4516 -0.1878
  156SAPE   C2817394   4.912   3.920   9.555  0.5601 -0.5521 -0.2471
  156SAPE   H8R17395   4.912   4.004   9.625 -0.0627 -1.6655  1.1389
  156SAPE   C2917396   4.974   3.918   9.431 -0.3764 -0.0478  0.3065
  156SAPE   H9R17397   5.019   4.013   9.398 -0.7912  0.5660  1.4370
  156SAPE  C21017398   4.998   3.802   9.339 -0.3392 -0.0904 -0.3754
  156SAPE  H10R17399   5.000   3.707   9.397  1.7071 -0.8314 -1.5796
  156SAPE  H10S17400   5.098   3.804   9.291  0.4240 -0.8693  1.1295
  156SAPE  C21117401   4.885   3.786   9.237 -0.5202  0.0511 -0.7880
  156SAPE  H11R17402   4.785   3.781   9.283 -0.3401  2.2837 -0.0356
  156SAPE  C21217403   4.900   3.745   9.109  0.0055 -0.3444 -0.1967
  156SAPE  H12R17404   4.805   3.723   9.057  0.8708 -0.5932 -1.7137
  156SAPE  C21317405   5.029   3.715   9.039 -0.7801  0.4095  0.5211
  156SAPE  H13R17406   5.101   3.673   9.112 -1.9357  0.2394  1.6084
  156SAPE  H13S17407   5.069   3.815   9.012  2.3278 -0.1398  2.5910
  156SAPE  C21417408   5.012   3.631   8.918 -0.0293 -0.0817  0.5643
  156SAPE  H14R17409   5.030   3.525   8.941 -2.8354 -0.6765  0.4327
  156SAPE  C21517410   4.977   3.676   8.793 -0.3185 -0.2242 -0.2298
  156SAPE  H15R17411   4.976   3.603   8.711  1.6845  0.5490 -1.0155
  156SAPE  C21617412   4.955   3.816   8.740  0.0681  0.4411 -0.7746
  156SAPE  H16R17413   4.881   3.857   8.812 -0.0255  1.6615 -1.5406
  156SAPE  H16S17414   4.897   3.828   8.646 -0.5135 -0.1470 -0.4998
  156SAPE  C21717415   5.073   3.917   8.718 -0.2034 -0.1190  0.0035
  156SAPE  H17R17416   5.106   3.926   8.612  0.3168  1.8949  0.2977
  156SAPE  H17S17417   5.166   3.881   8.766  0.8965 -0.0673 -2.0026
  156SAPE  C21817418   5.041   4.049   8.773  0.0930  0.3990 -0.4109
  156SAPE  H18R17419   5.128   4.119   8.776  1.2858 -1.0773  1.7761
  156SAPE  H18S17420   5.000   4.043   8.876 -3.1002  1.8537 -1.4485
  156SAPE  C21917421   4.926   4.131   8.694 -0.3916  0.2896  0.5179
  156SAPE  H19R17422   4.846   4.061   8.661 -0.1364  1.1036 -2.0979
  156SAPE  H19S17423   4.980   4.171   8.605  1.3847 -1.1909  0.8808
  156SAPE  C22017424   4.880   4.256   8.769  0.1755  1.3152 -0.1299
  156SAPE  H20R17425   4.802   4.238   8.846  0.6815 -0.6841 -0.0406
  156SAPE  H20S17426   4.827   4.318   8.693  2.6915  0.8998 -2.3754
  156SAPE  H20T17427   4.974   4.304   8.803  1.0087 -0.0012 -0.5045
  156SAPE   C3317428   4.811   2.897   9.811 -0.7128  0.0734 -0.4598
  156SAPE   H3X17429   4.825   2.813   9.882  0.2370  1.2365  0.7908
  156SAPE   H3Y17430   4.911   2.937   9.784  0.5137 -0.4003  2.9445
  156SAPE   C3417431   4.732   2.844   9.691  0.6875 -0.4780  0.0826
  156SAPE   H4X17432   4.721   2.929   9.620  0.4875 -0.5225  0.0593
  156SAPE   H4Y17433   4.629   2.815   9.721  0.0923 -0.0979 -1.4996
  156SAPE   C3517434   4.812   2.718   9.636  0.1437 -0.6628  0.2367
  156SAPE   H5X17435   4.840   2.653   9.721  1.4166 -1.4647 -0.7626
  156SAPE   H5Y17436   4.907   2.750   9.589 -0.2210 -0.2076 -0.2123
  156SAPE   C3617437   4.730   2.641   9.535  0.0913  0.0264 -0.9892
  156SAPE   H6X17438   4.690   2.707   9.455 -2.4814 -0.3682 -0.1578
  156SAPE   H6Y17439   4.635   2.604   9.582 -0.3070  0.7120 -1.2390
  156SAPE   C3717440   4.817   2.532   9.458 -0.0196 -0.2553 -0.2695
  156SAPE   H7X17441   4.744   2.492   9.384 -0.5011 -0.8349  0.5005
  156SAPE   H7Y17442   4.859   2.455   9.526 -0.3482  0.1124  0.3644
  156SAPE   C3817443   4.935   2.598   9.374  0.1963 -0.1841 -0.4037
  156SAPE   H8X17444   5.019   2.610   9.446 -1.5812 -0.6515  1.8441
  156SAPE   H8Y17445   4.904   2.702   9.350  0.1893 -0.2174 -0.5374
  156SAPE   C3917446   4.975   2.517   9.244 -0.1733 -0.5383 -0.6833
  156SAPE   H9X17447   4.897   2.531   9.166 -1.8038  0.4684  1.0648
  156SAPE   H9Y17448   4.976   2.410   9.276  1.0542 -0.5658 -0.7614
  156SAPE  C31017449   5.119   2.551   9.187  0.2045 -0.3859  0.4996
  156SAPE  H10X17450   5.192   2.525   9.267  1.7951 -0.4736 -0.9037
  156SAPE  H10Y17451   5.121   2.661   9.173 -0.2255 -0.6927 -2.4695
  156SAPE  C31117452   5.150   2.488   9.051  0.2236  0.6195  0.0953
  156SAPE  H11X17453   5.153   2.378   9.059 -0.1964  0.6153  0.2581
  156SAPE  H11Y17454   5.245   2.527   9.009 -0.2049  1.1014 -0.4686
  156SAPE  C31217455   5.040   2.535   8.945  0.6283  0.1219  0.4132
  156SAPE  H12X17456   5.037   2.646   8.951  2.5678  0.1298  3.2930
  156SAPE  H12Y17457   4.939   2.493   8.965  1.5259 -2.5063 -0.1516
  156SAPE  C31317458   5.087   2.512   8.802 -0.3708 -0.2103  1.1880
  156SAPE  H13X17459   5.163   2.586   8.769 -0.1360 -0.8934  0.1256
  156SAPE  H13Y17460   4.996   2.521   8.739 -1.0002 -2.6191  1.6507
  156SAPE  C31417461   5.139   2.369   8.779 -0.3708  0.0667 -0.2193
  156SAPE  H14X17462   5.087   2.322   8.693 -0.2938 -1.4448  0.5237
  156SAPE  H14Y17463   5.099   2.297   8.853 -0.9134  0.8987  0.3050
  156SAPE  C31517464   5.296   2.346   8.758 -0.0673  0.5058 -0.5799
  156SAPE  H15X17465   5.362   2.353   8.846  2.4577 -0.3809 -2.3010
  156SAPE  H15Y17466   5.337   2.424   8.690  1.0046 -1.1596 -1.9401
  156SAPE  C31617467   5.317   2.215   8.689  0.4678 -0.3720 -0.1504
  156SAPE  H16X17468   5.282   2.228   8.584 -0.1357  3.2293  0.3776
  156SAPE  H16Y17469   5.250   2.138   8.732  0.5329 -0.0162  0.5878
  156SAPE  C31717470   5.459   2.165   8.663 -0.8218  0.7592 -1.2891
  156SAPE  H17X17471   5.525   2.236   8.607 -0.0076 -0.1375 -1.5065
  156SAPE  H17Y17472   5.443   2.071   8.606 -1.3892 -0.0659  0.1963
  156SAPE  C31817473   5.522   2.126   8.798 -0.2087  0.3796 -0.3279
  156SAPE  H18X17474   5.485   2.028   8.833  0.7388 -0.1938 -0.8991
  156SAPE  H18Y17475   5.509   2.202   8.878  0.0981 -0.6797  0.7606
  156SAPE  H18Z17476   5.630   2.106   8.784 -0.2624  0.0021 -0.2159
  157SAPE     N17477   3.354   3.955  11.037 -0.2916  0.0024 -0.0609
  157SAPE   HN117478   3.318   4.051  11.019  0.3155  0.5079  1.2353
  157SAPE   HN217479   3.280   3.900  11.084 -0.4554  0.0334 -0.2829
  157SAPE   HN317480   3.440   3.965  11.095 -0.3255 -1.2546  0.2333
  157SAPE   C1217481   3.391   3.902  10.902 -0.0850  0.0509 -0.2807
  157SAPE  H12A17482   3.306   3.915  10.831 -0.3328 -0.5888 -0.1009
  157SAPE  H12B17483   3.408   3.793  10.914  1.0060  0.3028  0.5802
  157SAPE   C1117484   3.523   3.963  10.839  0.2325 -0.4925 -0.5410
  157SAPE  H11A17485   3.507   4.071  10.818 -1.0439 -0.7377 -0.9162
  157SAPE  H11B17486   3.528   3.920  10.736 -1.2166  0.6274 -1.1135
  157SAPE     P17487   3.780   3.997  10.874 -0.0170  0.4495 -0.1543
  157SAPE   O1317488   3.756   4.144  10.879  0.0237 -0.1233 -0.0161
  157SAPE   O1417489   3.877   3.939  10.963  0.2862  0.3331 -0.1803
  157SAPE   O1217490   3.642   3.927  10.901 -0.0093  0.0870  0.0471
  157SAPE   O1117491   3.811   3.955  10.727 -0.1651 -0.0856  0.1644
  157SAPE    C117492   3.945   3.976  10.683 -0.2024 -0.6015  0.0013
  157SAPE    HA17493   3.961   4.084  10.664 -1.7851 -0.0961  1.2708
  157SAPE    HB17494   4.019   3.951  10.762  0.3792 -2.4331 -1.0683
  157SAPE    C217495   3.976   3.882  10.563  0.1741 -0.4340 -0.6607
  157SAPE    HS17496   3.960   3.778  10.598 -1.4772  0.0006 -0.0299
  157SAPE   O2117497   4.111   3.907  10.529 -0.2677  0.2431  0.0269
  157SAPE   C2117498   4.172   3.812  10.463  0.5669 -1.0723 -1.4049
  157SAPE   O2217499   4.131   3.693  10.445 -0.3174 -0.3521  0.5362
  157SAPE   C2217500   4.304   3.870  10.411 -0.8999  0.2756 -0.5169
  157SAPE   H2R17501   4.289   3.968  10.362  3.1425  0.2692 -2.1532
  157SAPE   H2S17502   4.365   3.902  10.498 -2.3322  1.3707  0.1222
  157SAPE    C317503   3.884   3.914  10.441  0.4345  0.2293 -0.2247
  157SAPE    HX17504   3.902   4.021  10.414 -0.6113  0.6273  0.6052
  157SAPE    HY17505   3.783   3.911  10.486 -0.6512 -1.4675 -2.5482
  157SAPE   O3117506   3.902   3.832  10.322 -0.0273  0.7028 -0.0816
  157SAPE   C3117507   3.846   3.715  10.330  0.5414  0.2030  1.0158
  157SAPE   O3217508   3.755   3.684  10.399  0.4253 -0.7347 -0.4565
  157SAPE   C3217509   3.906   3.621  10.230 -0.1250 -0.5389  0.2432
  157SAPE   H2X17510   3.961   3.540  10.283  1.4853  1.1988  1.3598
  157SAPE   H2Y17511   3.980   3.683  10.174  1.2014 -0.8554  1.5842
  157SAPE   C2317512   4.377   3.779  10.308 -0.7465  0.2893  0.3341
  157SAPE   H3R17513   4.296   3.750  10.237 -0.7337 -0.5360  0.6458
  157SAPE   H3S17514   4.419   3.682  10.339  0.2441  0.2582 -1.0091
  157SAPE   C2417515   4.483   3.842  10.214  0.1739 -0.9717 -0.5260
  157SAPE   H4R17516   4.499   3.772  10.128 -0.3032  0.4497 -1.8188
  157SAPE   H4S17517   4.578   3.854  10.270 -0.7678  0.2171  0.8812
  157SAPE   C2517518   4.450   3.981  10.156 -0.1056 -0.9340  0.2026
  157SAPE   H5R17519   4.492   4.064  10.213  1.0133  0.1563 -2.0824
  157SAPE   C2617520   4.362   3.998  10.047  0.0558 -0.5135  0.1883
  157SAPE   H6R17521   4.338   4.101  10.015  0.2680 -0.8375 -1.0888
  157SAPE   C2717522   4.292   3.894   9.967  0.2313 -0.2706  0.3772
  157SAPE   H7R17523   4.313   3.786   9.987 -2.0522 -1.5227 -2.9831
  157SAPE   H7S17524   4.308   3.923   9.861 -0.4789  0.4975  0.4780
  157SAPE   C2817525   4.144   3.900   9.986  0.9954 -0.5456 -0.2553
  157SAPE   H8R17526   4.112   3.905  10.092  0.3683  0.3922 -0.4730
  157SAPE   C2917527   4.038   3.906   9.906 -0.5726  0.6114 -0.2112
  157SAPE   H9R17528   3.938   3.903   9.951  0.3056 -1.8173  1.8346
  157SAPE  C21017529   4.044   3.911   9.757 -0.1122  0.2851 -0.7796
  157SAPE  H10R17530   3.975   3.834   9.715 -2.1946  2.9854 -2.6920
  157SAPE  H10S17531   4.140   3.868   9.720 -0.9788 -3.1831  0.6003
  157SAPE  C21117532   4.010   4.045   9.694  0.3616 -0.1916  0.0009
  157SAPE  H11R17533   4.004   4.130   9.764  0.7816  0.8089 -1.1435
  157SAPE  C21217534   4.013   4.078   9.559  0.2018  0.4810 -0.1487
  157SAPE  H12R17535   3.978   4.180   9.535  0.0307  0.5135  0.2288
  157SAPE  C21317536   4.032   3.986   9.444  0.4269 -0.7295 -0.2050
  157SAPE  H13R17537   3.930   3.987   9.401 -0.2443  0.5899  1.3233
  157SAPE  H13S17538   4.059   3.883   9.476 -0.1541 -0.6160  0.7033
  157SAPE  C21417539   4.129   4.033   9.337 -0.2205 -0.0248 -0.4402
  157SAPE  H14R17540   4.199   4.114   9.364  0.2203 -0.6382  0.2776
  157SAPE  C21517541   4.109   4.011   9.208  0.1967 -0.6865  0.6786
  157SAPE  H15R17542   4.187   4.043   9.138  0.1275 -0.0099  0.9063
  157SAPE  C21617543   3.997   3.940   9.141  0.0269  0.4584 -0.1177
  157SAPE  H16R17544   3.959   3.982   9.046 -2.5005 -0.7809  0.2608
  157SAPE  H16S17545   3.902   3.951   9.198 -0.3437  2.0435 -0.9931
  157SAPE  C21717546   4.038   3.790   9.125 -0.0411  0.1885 -0.1122
  157SAPE  H17R17547   3.953   3.728   9.091  2.4865 -2.2446 -2.6121
  157SAPE  H17S17548   4.070   3.756   9.226  0.6582  1.7307  0.2134
  157SAPE  C21817549   4.146   3.768   9.016 -0.0032  0.2819 -0.5039
  157SAPE  H18R17550   4.233   3.832   9.045  1.1123 -1.0515 -0.8222
  157SAPE  H18S17551   4.105   3.806   8.920 -1.2656  0.1759 -0.0215
  157SAPE  C21917552   4.202   3.620   9.018  0.3592 -0.5164 -1.0590
  157SAPE  H19R17553   4.119   3.547   9.011 -0.0218  0.0063 -2.3546
  157SAPE  H19S17554   4.263   3.596   9.108 -1.5178  1.0229  0.7289
  157SAPE  C22017555   4.290   3.586   8.905  0.2807  0.3486  1.0593
  157SAPE  H20R17556   4.386   3.642   8.899 -1.1138  2.8705  0.4437
  157SAPE  H20S17557   4.246   3.603   8.804 -0.1741  2.0606  1.5116
  157SAPE  H20T17558   4.312   3.478   8.897 -0.2403  0.3436 -0.7302
  157SAPE   C3317559   3.789   3.551  10.158  0.1757 -0.2652  0.1120
  157SAPE   H3X17560   3.709   3.512  10.225 -1.1207  0.0457 -1.2120
  157SAPE   H3Y17561   3.829   3.459  10.111 -0.1328  0.0334 -0.7554
  157SAPE   C3417562   3.722   3.632  10.053  0.2732 -0.8469 -0.0691
  157SAPE   H4X17563   3.808   3.679  10.001  0.4801  0.6972  1.5693
  157SAPE   H4Y17564   3.665   3.719  10.094 -1.0163 -1.3247 -0.7826
  157SAPE   C3517565   3.655   3.550   9.946 -0.5964 -0.2877  0.2629
  157SAPE   H5X17566   3.564   3.509   9.994 -1.3276  0.2244 -0.6531
  157SAPE   H5Y17567   3.727   3.472   9.913  0.6053  1.6925 -2.0974
  157SAPE   C3617568   3.599   3.629   9.819 -0.0181 -0.0907 -0.5044
  157SAPE   H6X17569   3.531   3.704   9.866  0.3561 -0.1435  0.1258
  157SAPE   H6Y17570   3.539   3.561   9.754 -0.9499  0.4033 -0.1819
  157SAPE   C3717571   3.708   3.692   9.721 -0.0130 -0.0342  0.0523
  157SAPE   H7X17572   3.767   3.612   9.672 -1.8065 -1.2641 -0.2200
  157SAPE   H7Y17573   3.782   3.756   9.772 -0.9779  1.8328 -0.7775
  157SAPE   C3817574   3.655   3.779   9.609  0.0354 -0.7165 -0.4674
  157SAPE   H8X17575   3.676   3.888   9.608  0.2096 -0.7535 -1.1609
  157SAPE   H8Y17576   3.545   3.774   9.624  0.1927  0.6041  1.3645
  157SAPE   C3917577   3.699   3.726   9.474  0.1901 -0.4743  0.7300
  157SAPE   H9X17578   3.807   3.716   9.453  0.0124 -1.0081  0.0710
  157SAPE   H9Y17579   3.667   3.805   9.403 -0.2136 -0.7865  0.5629
  157SAPE  C31017580   3.616   3.597   9.435 -0.2168 -0.4060  0.1145
  157SAPE  H10X17581   3.521   3.574   9.489 -0.4286  0.2634  0.0342
  157SAPE  H10Y17582   3.681   3.508   9.452 -0.0630 -0.2468  0.3660
  157SAPE  C31117583   3.582   3.601   9.286  0.2297  0.3473 -0.8167
  157SAPE  H11X17584   3.665   3.629   9.218  1.0382 -0.5331 -0.2269
  157SAPE  H11Y17585   3.503   3.678   9.279  0.3398  0.3317 -3.0327
  157SAPE  C31217586   3.521   3.472   9.236 -0.1955  0.5285 -0.0625
  157SAPE  H12X17587   3.448   3.441   9.314 -0.7298  0.5677 -0.5437
  157SAPE  H12Y17588   3.607   3.401   9.226 -2.2574 -2.6558  2.6716
  157SAPE  C31317589   3.451   3.491   9.107  0.6036  0.8018 -0.5365
  157SAPE  H13X17590   3.382   3.576   9.125  0.2230  0.3110  0.4288
  157SAPE  H13Y17591   3.384   3.403   9.094  1.6347 -0.1390  0.2965
  157SAPE  C31417592   3.546   3.490   8.978  0.5551 -0.5863  0.4450
  157SAPE  H14X17593   3.599   3.392   8.977 -1.5823 -1.8084 -0.1956
  157SAPE  H14Y17594   3.621   3.571   8.986 -1.7238  1.6285  0.5135
  157SAPE  C31517595   3.477   3.503   8.841 -0.3956 -0.6850 -0.1802
  157SAPE  H15X17596   3.558   3.502   8.764 -1.6407 -0.6007 -1.5432
  157SAPE  H15Y17597   3.432   3.604   8.834 -1.2073 -1.0914 -1.1252
  157SAPE  C31617598   3.394   3.377   8.810  0.6249 -0.1441  0.0947
  157SAPE  H16X17599   3.319   3.374   8.893 -1.6585 -3.9219 -1.8404
  157SAPE  H16Y17600   3.458   3.287   8.817 -0.8429 -1.6300 -3.5352
  157SAPE  C31717601   3.324   3.387   8.670 -0.2390 -0.9378 -0.3482
  157SAPE  H17X17602   3.248   3.307   8.664 -0.8859 -0.2109 -2.5255
  157SAPE  H17Y17603   3.408   3.383   8.597  0.3218 -1.0703  0.2884
  157SAPE  C31817604   3.250   3.519   8.650 -0.0272  0.2853 -0.0986
  157SAPE  H18X17605   3.327   3.598   8.641  0.4253 -0.3148 -1.7824
  157SAPE  H18Y17606   3.172   3.531   8.728  1.6499  0.5777  1.6102
  157SAPE  H18Z17607   3.200   3.519   8.551 -0.7444  1.7687  0.2279
  158SAPE     N17608   5.210   4.399  10.986 -0.2241  0.3570  0.2222
  158SAPE   HN117609   5.109   4.377  10.982 -0.0022 -0.5441 -1.3164
  158SAPE   HN217610   5.268   4.326  10.940  1.4297  0.5782  1.8003
  158SAPE   HN317611   5.238   4.407  11.086  1.3456 -1.5102  0.0030
  158SAPE   C1217612   5.239   4.519  10.916  0.3393 -0.4045 -0.0827
  158SAPE  H12A17613   5.175   4.601  10.955  2.1778  0.0397  2.2492
  158SAPE  H12B17614   5.210   4.494  10.812 -1.6521  0.7503  0.1347
  158SAPE   C1117615   5.385   4.554  10.933 -0.5275 -0.7269  0.4344
  158SAPE  H11A17616   5.410   4.553  11.041  1.4869  1.7933  0.0865
  158SAPE  H11B17617   5.408   4.656  10.895  0.0485 -1.6378 -1.8244
  158SAPE     P17618   5.618   4.472  10.862  0.3664 -0.1924 -0.3636
  158SAPE   O1317619   5.652   4.609  10.813  0.2462 -0.0086 -0.5542
  158SAPE   O1417620   5.675   4.429  10.998  0.0134 -0.2838 -0.3282
  158SAPE   O1217621   5.459   4.453  10.865 -0.1098 -0.2698 -0.6279
  158SAPE   O1117622   5.667   4.376  10.759  0.0159  0.0787 -0.4742
  158SAPE    C117623   5.617   4.243  10.739  0.1206 -0.3807  0.1756
  158SAPE    HA17624   5.702   4.178  10.768 -0.4167 -0.6008  1.3088
  158SAPE    HB17625   5.529   4.213  10.799  1.0202  0.0076  1.7528
  158SAPE    C217626   5.581   4.224  10.592  0.4606  0.6224  0.0471
  158SAPE    HS17627   5.547   4.120  10.573  1.5211  0.3146 -0.2426
  158SAPE   O2117628   5.695   4.245  10.510  0.1500 -0.4619  0.5158
  158SAPE   C2117629   5.800   4.160  10.513 -0.7680  0.0967 -0.1666
  158SAPE   O2217630   5.808   4.069  10.592 -0.0682  0.2536 -0.4353
  158SAPE   C2217631   5.900   4.180  10.402  0.5980  0.4657 -0.7667
  158SAPE   H2R17632   5.917   4.288  10.380  1.5732  0.2644 -1.0218
  158SAPE   H2S17633   5.996   4.132  10.429 -0.9484 -2.6227 -0.4260
  158SAPE    C317634   5.466   4.325  10.561 -0.8273  0.4760 -0.3330
  158SAPE    HX17635   5.499   4.427  10.589 -1.2152  0.7665 -0.9172
  158SAPE    HY17636   5.383   4.298  10.630  1.5508 -0.7965  2.2352
  158SAPE   O3117637   5.413   4.321  10.420 -0.0719  0.4095 -0.1431
  158SAPE   C3117638   5.361   4.205  10.392  0.4237 -0.5368  1.1180
  158SAPE   O3217639   5.351   4.110  10.464 -0.8880 -0.5202 -0.1457
  158SAPE   C3217640   5.310   4.206  10.244  0.0495  0.0493  0.0997
  158SAPE   H2X17641   5.367   4.289  10.197  0.4449  0.7918  1.8415
  158SAPE   H2Y17642   5.203   4.236  10.244  0.7096  2.6856  1.6751
  158SAPE   C2317643   5.858   4.103  10.272 -0.4989  0.1752 -0.2788
  158SAPE   H3R17644   5.828   3.997  10.287 -1.9530  0.4246 -1.2586
  158SAPE   H3S17645   5.948   4.108  10.208  1.2493 -2.4551  1.7638
  158SAPE   C2417646   5.744   4.167  10.188 -0.4590 -0.3289 -0.9789
  158SAPE   H4R17647   5.772   4.268  10.151 -1.5241  0.8583  1.2520
  158SAPE   H4S17648   5.659   4.172  10.260  0.3529  5.4856  0.0384
  158SAPE   C2517649   5.686   4.078  10.080  0.2483  0.6613 -0.0737
  158SAPE   H5R17650   5.647   3.981  10.114  2.1453 -0.0429  0.2302
  158SAPE   C2617651   5.677   4.109   9.949 -0.0375 -0.3713  0.1858
  158SAPE   H6R17652   5.641   4.037   9.874  0.5989 -1.3386  0.7982
  158SAPE   C2717653   5.728   4.240   9.883  0.3108  0.0647 -0.0535
  158SAPE   H7R17654   5.679   4.332   9.921 -0.9401 -0.9669  0.9036
  158SAPE   H7S17655   5.692   4.244   9.778  0.9378  0.4288 -0.2609
  158SAPE   C2817656   5.877   4.257   9.878  0.3363 -0.3318 -0.0414
  158SAPE   H8R17657   5.920   4.254   9.979  1.0935 -0.0678 -0.3481
  158SAPE   C2917658   5.950   4.271   9.761 -0.3548  0.2455  0.7781
  158SAPE   H9R17659   6.060   4.280   9.767 -0.3113 -0.4582  1.1734
  158SAPE  C21017660   5.902   4.276   9.617  0.0509 -0.6645 -0.0213
  158SAPE  H10R17661   5.977   4.324   9.551  0.5099  0.6700  1.4043
  158SAPE  H10S17662   5.819   4.349   9.617  0.3719 -0.2967  0.2436
  158SAPE  C21117663   5.880   4.142   9.557  0.2203 -0.1382  0.9592
  158SAPE  H11R17664   5.957   4.068   9.580  1.3191  0.8491  0.5774
  158SAPE  C21217665   5.765   4.116   9.498  0.0544 -0.2707 -0.5673
  158SAPE  H12R17666   5.754   4.013   9.462 -0.5525 -0.2016 -0.5943
  158SAPE  C21317667   5.645   4.198   9.464  0.1482 -0.1979  0.8205
  158SAPE  H13R17668   5.637   4.195   9.353 -1.0749  0.4722  0.8713
  158SAPE  H13S17669   5.648   4.306   9.491 -1.1683 -0.0833  0.5700
  158SAPE  C21417670   5.517   4.146   9.520  0.3192  0.1311 -0.7031
  158SAPE  H14R17671   5.491   4.188   9.619 -0.9607  1.4993 -1.5722
  158SAPE  C21517672   5.440   4.053   9.462  0.2992  0.4768  0.2001
  158SAPE  H15R17673   5.353   4.013   9.516  0.6325 -1.0471 -0.3322
  158SAPE  C21617674   5.450   3.992   9.320 -0.6926  0.2128  0.0928
  158SAPE  H16R17675   5.460   3.882   9.326 -0.2592  0.3284  2.2262
  158SAPE  H16S17676   5.535   4.030   9.258 -0.3293 -0.4980  0.1425
  158SAPE  C21717677   5.319   4.039   9.249 -0.2767 -0.2562  0.1463
  158SAPE  H17R17678   5.324   4.148   9.226  0.2315  0.0520  1.5804
  158SAPE  H17S17679   5.228   4.020   9.310 -1.2415 -0.6455 -1.3695
  158SAPE  C21817680   5.313   3.976   9.110 -0.1768 -0.0992  0.3561
  158SAPE  H18R17681   5.208   3.987   9.077 -1.0136 -1.0352  2.5723
  158SAPE  H18S17682   5.336   3.867   9.105 -1.1751 -0.2860 -0.5677
  158SAPE  C21917683   5.422   4.036   9.011  0.2101 -0.0171  0.6158
  158SAPE  H19R17684   5.524   4.017   9.052  0.5429  0.6315  0.0948
  158SAPE  H19S17685   5.410   4.146   9.006  1.6437  0.1560  0.6786
  158SAPE  C22017686   5.412   3.976   8.868  0.1479 -0.7004 -0.5778
  158SAPE  H20R17687   5.308   3.987   8.828  0.6305 -0.6011 -1.8624
  158SAPE  H20S17688   5.424   3.865   8.871 -1.4605 -0.9031 -0.2781
  158SAPE  H20T17689   5.490   4.012   8.798 -1.9116  1.9580 -1.6611
  158SAPE   C3317690   5.334   4.067  10.181  0.4919  0.3252  0.6951
  158SAPE   H3X17691   5.301   3.988  10.251  1.2234  0.1404  0.8397
  158SAPE   H3Y17692   5.443   4.057  10.160  0.3665 -2.2498  0.9757
  158SAPE   C3417693   5.253   4.043  10.051 -0.1745 -0.2929  0.2903
  158SAPE   H4X17694   5.283   4.123   9.980  0.2186  0.8617  1.7152
  158SAPE   H4Y17695   5.145   4.035  10.073 -0.3836  0.8017 -0.2693
  158SAPE   C3517696   5.291   3.906  10.000 -0.1559 -1.0779 -0.1050
  158SAPE   H5X17697   5.266   3.827  10.074 -0.0308 -1.6106 -0.6255
  158SAPE   H5Y17698   5.402   3.914   9.996 -0.3184  1.8780 -1.6820
  158SAPE   C3617699   5.243   3.875   9.859  0.0849  0.7457  0.3690
  158SAPE   H6X17700   5.192   3.967   9.823 -1.4253 -0.7856 -1.6795
  158SAPE   H6Y17701   5.158   3.804   9.870  0.3643  0.1848 -0.9170
  158SAPE   C3717702   5.355   3.830   9.768  0.1278  0.2468  0.0098
  158SAPE   H7X17703   5.414   3.752   9.821 -0.4216  0.2238  0.6099
  158SAPE   H7Y17704   5.427   3.914   9.754  0.0035  0.9556  2.9217
  158SAPE   C3817705   5.301   3.776   9.633 -0.4585 -0.5278 -0.1810
  158SAPE   H8X17706   5.247   3.857   9.579 -1.5379 -0.3529  1.1260
  158SAPE   H8Y17707   5.212   3.714   9.659 -2.2216  2.1394  0.6059
  158SAPE   C3917708   5.405   3.692   9.552  0.3164  0.2161  0.1321
  158SAPE   H9X17709   5.442   3.616   9.625  0.4091 -1.2904 -1.4135
  158SAPE   H9Y17710   5.497   3.749   9.527  2.0619 -0.8585  3.4532
  158SAPE  C31017711   5.350   3.621   9.428 -0.2764 -0.0888 -0.9371
  158SAPE  H10X17712   5.270   3.691   9.396 -0.5963  0.7188  1.3913
  158SAPE  H10Y17713   5.289   3.537   9.467 -0.6665  0.2898 -0.7142
  158SAPE  C31117714   5.452   3.576   9.322 -0.3460 -0.4471 -0.7476
  158SAPE  H11X17715   5.538   3.522   9.367  1.1709 -0.1399 -3.1185
  158SAPE  H11Y17716   5.503   3.664   9.277  1.2050 -1.5492 -1.2495
  158SAPE  C31217717   5.375   3.518   9.204  0.4805 -0.0413  0.0107
  158SAPE  H12X17718   5.307   3.595   9.163  0.4079  0.4314  0.9883
  158SAPE  H12Y17719   5.310   3.433   9.232 -1.6326  0.8784 -1.8001
  158SAPE  C31317720   5.468   3.474   9.086  0.4860 -0.4499  0.2959
  158SAPE  H13X17721   5.533   3.386   9.109  1.9999 -0.0892 -2.2503
  158SAPE  H13Y17722   5.536   3.559   9.064 -0.4716  0.3033  0.1712
  158SAPE  C31417723   5.387   3.432   8.954  0.1078 -0.1069 -0.5770
  158SAPE  H14X17724   5.297   3.496   8.955  0.2602  0.1096  0.1746
  158SAPE  H14Y17725   5.340   3.335   8.981 -3.7798  1.6348 -0.4720
  158SAPE  C31517726   5.460   3.421   8.830 -0.6092  0.2491  0.2219
  158SAPE  H15X17727   5.535   3.341   8.843 -1.8877 -1.2522 -1.2051
  158SAPE  H15Y17728   5.515   3.512   8.798 -2.9562  1.7910  0.2504
  158SAPE  C31617729   5.378   3.386   8.711  0.0644  0.8059 -0.0479
  158SAPE  H16X17730   5.323   3.296   8.746  4.1678 -1.1703  2.0393
  158SAPE  H16Y17731   5.431   3.337   8.626 -0.8672 -0.3106 -0.0175
  158SAPE  C31717732   5.283   3.489   8.654 -0.3554 -0.6794  0.2906
  158SAPE  H17X17733   5.225   3.537   8.735 -0.8986 -0.2954 -0.3109
  158SAPE  H17Y17734   5.203   3.433   8.600 -2.8951  1.2251  1.8878
  158SAPE  C31817735   5.360   3.586   8.566  0.2312  0.2570  0.0994
  158SAPE  H18X17736   5.423   3.643   8.637  1.0706 -1.8805  1.1334
  158SAPE  H18Y17737   5.284   3.657   8.526 -0.3078 -1.2199 -1.6717
  158SAPE  H18Z17738   5.416   3.540   8.481  2.1185  1.0116  0.8743
  159SAPE     N17739   5.687   1.203   6.510 -0.8767  0.3067 -0.0528
  159SAPE   HN117740   5.657   1.123   6.569  0.2224  0.9668  1.4586
  159SAPE   HN217741   5.641   1.206   6.417  1.8527  1.3468 -1.4976
  159SAPE   HN317742   5.786   1.185   6.483 -0.7571  2.2694 -1.1031
  159SAPE   C1217743   5.662   1.329   6.586 -0.8749 -0.4140  0.6645
  159SAPE  H12A17744   5.718   1.317   6.681  1.9499  2.2171 -0.4939
  159SAPE  H12B17745   5.553   1.339   6.603 -0.7955  0.8928  0.4933
  159SAPE   C1117746   5.717   1.448   6.512  0.0543  0.0020  0.9022
  159SAPE  H11A17747   5.691   1.537   6.573  2.1852  1.3360 -0.0265
  159SAPE  H11B17748   5.676   1.464   6.410  3.8353  0.4479 -0.7059
  159SAPE     P17749   5.958   1.549   6.481  0.1981  0.2789 -0.2447
  159SAPE   O1317750   6.079   1.502   6.414 -0.2946  0.2317  0.2785
  159SAPE   O1417751   5.899   1.670   6.418 -0.0198 -0.1067  0.2333
  159SAPE   O1217752   5.860   1.433   6.495  0.0117 -0.2839 -0.0582
  159SAPE   O1117753   5.996   1.578   6.626 -0.5571  0.6573  0.2604
  159SAPE    C117754   6.085   1.486   6.697  0.0626  0.7673  0.1757
  159SAPE    HA17755   6.019   1.417   6.753  0.9222 -0.1324  0.1075
  159SAPE    HB17756   6.149   1.424   6.630  1.5484  2.6928 -0.2482
  159SAPE    C217757   6.183   1.562   6.793  0.2279 -0.2283 -0.4237
  159SAPE    HS17758   6.283   1.583   6.749  0.7919  0.0507  0.9479
  159SAPE   O2117759   6.191   1.489   6.915  0.6666  0.2859  0.4275
  159SAPE   C2117760   6.303   1.443   6.962 -0.1482 -0.0353 -0.2407
  159SAPE   O2217761   6.416   1.449   6.907 -0.0284  0.2277  0.2319
  159SAPE   C2217762   6.273   1.416   7.110 -0.1014  0.3258  0.0065
  159SAPE   H2R17763   6.295   1.512   7.160  0.7943  0.8224 -1.2692
  159SAPE   H2S17764   6.168   1.382   7.123  0.3437 -1.1706 -0.1007
  159SAPE    C317765   6.123   1.708   6.818  0.5629 -0.4872 -0.3347
  159SAPE    HX17766   6.013   1.705   6.831  0.3565 -1.2934 -2.0450
  159SAPE    HY17767   6.140   1.771   6.728  0.7465 -0.2699 -0.1490
  159SAPE   O3117768   6.180   1.770   6.936  0.1720 -0.2638 -0.1285
  159SAPE   C3117769   6.260   1.872   6.927  0.0228  0.6413 -0.7438
  159SAPE   O3217770   6.318   1.912   6.826  0.0260  0.1945 -0.3276
  159SAPE   C3217771   6.270   1.936   7.066  0.2757 -0.2109  0.3714
  159SAPE   H2X17772   6.211   2.029   7.053  2.6064  1.2076 -0.5370
  159SAPE   H2Y17773   6.374   1.966   7.087  0.3327 -0.2259  0.1158
  159SAPE   C2317774   6.369   1.302   7.155  0.2680 -0.4305  0.3609
  159SAPE   H3R17775   6.467   1.337   7.115 -1.7855  3.9977 -1.5054
  159SAPE   H3S17776   6.344   1.212   7.096 -2.0513  0.7359 -0.5588
  159SAPE   C2417777   6.369   1.267   7.303  0.1595 -0.0777 -0.5864
  159SAPE   H4R17778   6.442   1.184   7.316 -0.6376 -0.9669 -1.5904
  159SAPE   H4S17779   6.272   1.223   7.333 -0.9701  2.0253 -0.9360
  159SAPE   C2517780   6.404   1.383   7.402  0.7521 -0.3777  0.1084
  159SAPE   H5R17781   6.320   1.454   7.406  0.5655 -0.5813 -0.1697
  159SAPE   C2617782   6.509   1.402   7.487  0.4147  0.3927 -0.3111
  159SAPE   H6R17783   6.516   1.492   7.550  1.6232  1.1741 -1.5176
  159SAPE   C2717784   6.630   1.312   7.498 -0.0722 -0.6106  0.4569
  159SAPE   H7R17785   6.706   1.378   7.544 -0.2241  0.7984 -1.2177
  159SAPE   H7S17786   6.684   1.278   7.407  1.8908 -0.7884  1.6372
  159SAPE   C2817787   6.602   1.188   7.585 -0.4797 -0.8711  0.2411
  159SAPE   H8R17788   6.552   1.107   7.530 -2.1247 -0.9510  1.7685
  159SAPE   C2917789   6.604   1.181   7.721  0.3139 -0.5238  0.3413
  159SAPE   H9R17790   6.565   1.085   7.760  1.5588 -1.7960 -1.4094
  159SAPE  C21017791   6.641   1.296   7.817 -0.1264 -0.0175 -0.2782
  159SAPE  H10R17792   6.555   1.338   7.875  0.6754 -0.1124  1.0305
  159SAPE  H10S17793   6.686   1.377   7.756 -0.8131  0.5795 -0.0080
  159SAPE  C21117794   6.748   1.244   7.912  0.0486  0.5583 -0.6817
  159SAPE  H11R17795   6.848   1.233   7.869  0.2361  0.3809 -0.2125
  159SAPE  C21217796   6.722   1.225   8.044 -0.7549  0.1786  0.2615
  159SAPE  H12R17797   6.794   1.173   8.109 -0.3546  1.4600  0.8782
  159SAPE  C21317798   6.585   1.245   8.098 -0.5454 -0.3741 -0.1852
  159SAPE  H13R17799   6.506   1.196   8.036 -0.3904  0.2072 -0.8481
  159SAPE  H13S17800   6.574   1.353   8.078 -1.2464 -0.7940 -2.3501
  159SAPE  C21417801   6.565   1.198   8.239  0.1284 -0.4161  0.3877
  159SAPE  H14R17802   6.569   1.088   8.251 -3.6579 -0.7840 -0.5426
  159SAPE  C21517803   6.534   1.272   8.351  0.2957 -0.2733  0.9482
  159SAPE  H15R17804   6.513   1.216   8.443 -0.0449  0.0241  1.0496
  159SAPE  C21617805   6.510   1.421   8.363 -0.4602 -0.8000 -0.2610
  159SAPE  H16R17806   6.411   1.443   8.407  0.5085  1.2056  1.0596
  159SAPE  H16S17807   6.528   1.484   8.273  0.0119 -0.3067  0.1719
  159SAPE  C21717808   6.590   1.475   8.491 -0.5500  0.5283 -0.1902
  159SAPE  H17R17809   6.560   1.579   8.519  0.3119  1.0005 -0.9746
  159SAPE  H17S17810   6.696   1.492   8.462  0.2021  0.4975  2.2865
  159SAPE  C21817811   6.599   1.383   8.615  0.1749 -0.4158  0.1898
  159SAPE  H18R17812   6.668   1.299   8.593  1.8724  0.3771  2.1350
  159SAPE  H18S17813   6.497   1.349   8.643 -0.7025  1.7892 -0.1119
  159SAPE  C21917814   6.668   1.458   8.728 -0.0348 -0.0557 -0.0662
  159SAPE  H19R17815   6.599   1.542   8.753 -1.2795 -1.5293  1.7660
  159SAPE  H19S17816   6.760   1.505   8.688 -0.0422  0.8976  0.9946
  159SAPE  C22017817   6.694   1.375   8.856 -0.5025  1.0351 -0.1592
  159SAPE  H20R17818   6.731   1.273   8.833 -0.0940  0.8685  1.1656
  159SAPE  H20S17819   6.596   1.370   8.908  0.2765 -0.4323  1.2614
  159SAPE  H20T17820   6.769   1.425   8.921  2.4958 -2.8472 -0.2484
  159SAPE   C3317821   6.220   1.843   7.177 -0.1064 -0.1455 -0.1410
  159SAPE   H3X17822   6.227   1.739   7.139 -1.6995  0.7277 -3.2117
  159SAPE   H3Y17823   6.112   1.863   7.194 -0.0347 -0.3400  0.5698
  159SAPE   C3417824   6.294   1.867   7.307 -0.1083  0.1481 -0.1731
  159SAPE   H4X17825   6.323   1.973   7.314 -0.3736  0.1799  0.5087
  159SAPE   H4Y17826   6.388   1.807   7.306 -0.0436  0.2279  0.4658
  159SAPE   C3517827   6.204   1.845   7.425  0.0940 -0.5793 -0.2190
  159SAPE   H5X17828   6.173   1.739   7.439 -0.7641 -0.0191  3.2133
  159SAPE   H5Y17829   6.108   1.898   7.410  1.2137  1.3610 -0.8196
  159SAPE   C3617830   6.256   1.910   7.554  0.1712  0.0771  0.2657
  159SAPE   H6X17831   6.245   2.020   7.564 -1.8130  0.0044 -0.6238
  159SAPE   H6Y17832   6.364   1.884   7.550 -0.0488 -0.9252  0.4367
  159SAPE   C3717833   6.190   1.836   7.673 -0.0302 -0.0133 -0.3087
  159SAPE   H7X17834   6.184   1.727   7.650 -2.1623 -0.2415  1.0928
  159SAPE   H7Y17835   6.085   1.869   7.681 -0.1311 -0.4271  0.1085
  159SAPE   C3817836   6.270   1.856   7.800 -0.0640  0.0429 -0.1718
  159SAPE   H8X17837   6.284   1.962   7.832 -1.0384  0.2136 -0.2791
  159SAPE   H8Y17838   6.371   1.815   7.777 -0.5871 -0.4355 -1.7365
  159SAPE   C3917839   6.208   1.794   7.926 -0.4955  0.0894 -0.0686
  159SAPE   H9X17840   6.232   1.686   7.933 -1.2256  0.0015  1.7003
  159SAPE   H9Y17841   6.100   1.816   7.908  0.2247  3.3104 -1.2143
  159SAPE  C31017842   6.244   1.856   8.056  0.2464  0.0903 -0.4268
  159SAPE  H10X17843   6.206   1.960   8.052  3.1269  1.3019  0.9339
  159SAPE  H10Y17844   6.354   1.864   8.074  0.1100  0.5557  0.2694
  159SAPE  C31117845   6.173   1.813   8.186  0.1706 -0.0817 -0.2784
  159SAPE  H11X17846   6.177   1.702   8.197 -3.0705 -0.3160 -0.4306
  159SAPE  H11Y17847   6.069   1.847   8.204  0.4407  0.1581  0.9193
  159SAPE  C31217848   6.243   1.870   8.305  0.3754 -0.1496 -0.4698
  159SAPE  H12X17849   6.263   1.976   8.282 -0.8186  0.3873  0.7976
  159SAPE  H12Y17850   6.343   1.823   8.312  0.3803 -0.4400 -2.1304
  159SAPE  C31317851   6.160   1.843   8.434 -0.2242 -0.2340  0.0056
  159SAPE  H13X17852   6.056   1.876   8.411 -0.2876 -0.2762  0.2243
  159SAPE  H13Y17853   6.195   1.910   8.516  0.6539  1.2685 -1.5377
  159SAPE  C31417854   6.153   1.700   8.489  0.5488  0.1297  1.1880
  159SAPE  H14X17855   6.163   1.629   8.403 -0.4647  1.1801  0.1627
  159SAPE  H14Y17856   6.054   1.679   8.533 -0.5422  1.1077 -0.6630
  159SAPE  C31517857   6.253   1.688   8.604 -0.1600 -0.0312 -0.2365
  159SAPE  H15X17858   6.216   1.770   8.668  1.6234  0.5917  0.0428
  159SAPE  H15Y17859   6.356   1.708   8.570  0.0985 -2.3549 -1.0459
  159SAPE  C31617860   6.245   1.554   8.677  0.0495  0.0866 -0.5355
  159SAPE  H16X17861   6.306   1.476   8.626 -0.3073  0.9242 -2.3167
  159SAPE  H16Y17862   6.143   1.512   8.667  0.2741 -0.3043 -1.1830
  159SAPE  C31717863   6.302   1.567   8.816 -0.4190  0.1983  0.7427
  159SAPE  H17X17864   6.261   1.662   8.857  3.0290  2.1388  0.0786
  159SAPE  H17Y17865   6.413   1.579   8.822 -0.4837  0.6215  1.1789
  159SAPE  C31817866   6.264   1.446   8.903 -0.0173  0.5094  0.0978
  159SAPE  H18X17867   6.222   1.362   8.842  0.3681  0.1876  0.2712
  159SAPE  H18Y17868   6.199   1.474   8.989  1.0347  0.0250  1.0820
  159SAPE  H18Z17869   6.350   1.399   8.955 -0.6996 -0.1660  0.6397
  160SAPE     N17870   4.011   2.307   6.569 -0.2916  0.5453 -0.0373
  160SAPE   HN117871   3.937   2.369   6.531 -0.4740  0.0176 -0.5666
  160SAPE   HN217872   4.069   2.263   6.494  0.1660 -1.6384  1.4951
  160SAPE   HN317873   3.956   2.233   6.617 -0.4919  0.1132 -0.9056
  160SAPE   C1217874   4.099   2.383   6.660  0.1412 -0.5156  0.5153
  160SAPE  H12A17875   4.030   2.453   6.712 -1.7241 -1.0884 -1.0626
  160SAPE  H12B17876   4.175   2.441   6.603 -1.6532 -0.8418 -2.4245
  160SAPE   C1117877   4.164   2.292   6.774  0.5828  0.5311 -0.2001
  160SAPE  H11A17878   4.091   2.215   6.808 -0.5472  2.3073  1.6215
  160SAPE  H11B17879   4.201   2.341   6.866  2.5240 -1.9432  0.4297
  160SAPE     P17880   4.420   2.276   6.696  0.0257  0.2184  0.4100
  160SAPE   O1317881   4.510   2.165   6.649  0.0937 -0.0589  0.2080
  160SAPE   O1417882   4.414   2.400   6.615 -0.0636 -0.0502  0.3503
  160SAPE   O1217883   4.275   2.227   6.714  0.1070  0.8396  0.5519
  160SAPE   O1117884   4.474   2.308   6.841  0.1655  0.5350  0.2458
  160SAPE    C117885   4.428   2.220   6.941 -0.1093 -0.1546  0.4381
  160SAPE    HA17886   4.325   2.242   6.977 -0.8218 -3.1443  0.4121
  160SAPE    HB17887   4.429   2.112   6.916  2.0363 -0.5650  1.9579
  160SAPE    C217888   4.524   2.216   7.063 -0.2838 -0.1591  0.1315
  160SAPE    HS17889   4.488   2.140   7.135  0.6449  0.0386  0.8128
  160SAPE   O2117890   4.510   2.341   7.136  0.0765 -0.1616  0.4073
  160SAPE   C2117891   4.390   2.369   7.181 -0.0685 -0.7356  0.0260
  160SAPE   O2217892   4.294   2.296   7.188  0.1192  0.1202  0.4135
  160SAPE   C2217893   4.382   2.517   7.212  0.0834  0.0550 -0.2079
  160SAPE   H2R17894   4.442   2.561   7.130  1.3777 -2.0103 -0.4546
  160SAPE   H2S17895   4.277   2.553   7.214 -0.2316 -0.5661 -2.6513
  160SAPE    C317896   4.671   2.186   7.022  0.2974 -0.2680  0.1087
  160SAPE    HX17897   4.703   2.264   6.950  0.3902 -0.5407 -0.1458
  160SAPE    HY17898   4.684   2.091   6.967 -1.6622 -0.2144 -0.5042
  160SAPE   O3117899   4.758   2.190   7.139 -0.4363  0.2132 -0.2307
  160SAPE   C3117900   4.821   2.293   7.176 -0.5925  0.4616 -0.1651
  160SAPE   O3217901   4.841   2.399   7.116 -0.0179  0.0957 -0.4652
  160SAPE   C3217902   4.880   2.252   7.322 -0.3544 -0.2300  0.0584
  160SAPE   H2X17903   4.946   2.338   7.349 -0.4697  0.1029 -0.7207
  160SAPE   H2Y17904   4.940   2.158   7.317  1.8474  1.1378 -0.6909
  160SAPE   C2317905   4.449   2.553   7.344 -0.5444 -0.5275 -0.1498
  160SAPE   H3R17906   4.430   2.661   7.360 -1.5045 -0.7516  0.2407
  160SAPE   H3S17907   4.559   2.540   7.329 -0.6390 -3.8944  1.2880
  160SAPE   C2417908   4.403   2.466   7.467 -0.4202 -0.1476 -0.3257
  160SAPE   H4R17909   4.472   2.475   7.554 -0.7810  1.2728 -0.1699
  160SAPE   H4S17910   4.411   2.359   7.437 -3.0258 -1.0942  1.8475
  160SAPE   C2517911   4.263   2.510   7.492 -0.1454 -0.7095  0.1868
  160SAPE   H5R17912   4.179   2.480   7.428 -0.7243  0.5694  0.3099
  160SAPE   C2617913   4.234   2.579   7.606 -0.5125 -0.1660  0.7486
  160SAPE   H6R17914   4.130   2.605   7.631 -1.0299 -2.4762  1.2231
  160SAPE   C2717915   4.329   2.626   7.710  0.7003 -0.4807  0.3790
  160SAPE   H7R17916   4.281   2.713   7.759  0.1913 -2.0008  2.7384
  160SAPE   H7S17917   4.425   2.664   7.667 -1.2813  1.7564 -2.4396
  160SAPE   C2817918   4.383   2.523   7.808 -0.1450  0.1453 -0.0749
  160SAPE   H8R17919   4.351   2.419   7.789  0.9822 -0.1443 -0.5366
  160SAPE   C2917920   4.461   2.558   7.913 -0.3708  0.9808 -0.1476
  160SAPE   H9R17921   4.517   2.483   7.970 -0.6914 -0.2089 -1.3408
  160SAPE  C21017922   4.499   2.707   7.949 -0.4209  0.6112 -0.5941
  160SAPE  H10R17923   4.408   2.748   7.997 -0.8551 -2.0742  1.0401
  160SAPE  H10S17924   4.526   2.760   7.855  1.6008  1.8356  0.6182
  160SAPE  C21117925   4.621   2.695   8.039  0.3554  0.1325  0.1870
  160SAPE  H11R17926   4.715   2.697   7.982  0.0812 -0.3963 -0.2907
  160SAPE  C21217927   4.622   2.698   8.171 -0.1113  0.1291 -0.0850
  160SAPE  H12R17928   4.718   2.672   8.218 -0.5015 -1.5587 -0.1573
  160SAPE  C21317929   4.505   2.713   8.265 -0.0713  1.3005 -0.0294
  160SAPE  H13R17930   4.425   2.762   8.207 -0.2901  1.4941  0.4365
  160SAPE  H13S17931   4.534   2.774   8.353  0.4946 -0.1233  0.8108
  160SAPE  C21417932   4.438   2.582   8.298  0.3337  0.2868 -0.1874
  160SAPE  H14R17933   4.414   2.516   8.214  0.1811 -1.6020  1.2965
  160SAPE  C21517934   4.408   2.531   8.419 -0.1776  0.4457 -0.5346
  160SAPE  H15R17935   4.354   2.435   8.426  0.2829  0.3094  1.7227
  160SAPE  C21617936   4.442   2.599   8.549 -0.3252 -0.2417 -0.8335
  160SAPE  H16R17937   4.348   2.608   8.608 -0.1829 -0.1867 -0.6113
  160SAPE  H16S17938   4.471   2.706   8.537 -1.3811  0.4042  1.6622
  160SAPE  C21717939   4.559   2.534   8.628  0.3820 -0.1191  0.8641
  160SAPE  H17R17940   4.648   2.545   8.563  0.2097 -0.1120  0.6282
  160SAPE  H17S17941   4.538   2.425   8.636  1.8991 -0.5467 -0.3891
  160SAPE  C21817942   4.569   2.595   8.767 -0.5526  0.0524 -0.5884
  160SAPE  H18R17943   4.475   2.608   8.825  0.0782 -0.8465  0.6848
  160SAPE  H18S17944   4.601   2.699   8.750  1.6781 -0.7037 -1.3575
  160SAPE  C21917945   4.677   2.529   8.864 -0.6871 -0.2148 -0.3083
  160SAPE  H19R17946   4.712   2.617   8.922 -0.7750  0.1200 -0.7602
  160SAPE  H19S17947   4.760   2.490   8.801 -1.9537 -2.4239 -0.7098
  160SAPE  C22017948   4.640   2.430   8.965  0.3894 -0.0433 -0.4064
  160SAPE  H20R17949   4.717   2.421   9.044  0.9834  0.0712 -0.9595
  160SAPE  H20S17950   4.619   2.328   8.927 -2.6753  1.0666 -2.0879
  160SAPE  H20T17951   4.547   2.471   9.009  1.1474  1.4399 -0.1041
  160SAPE   C3317952   4.763   2.235   7.421  0.1986 -0.9334  0.1768
  160SAPE   H3X17953   4.698   2.151   7.386 -2.1249  0.9281 -0.2458
  160SAPE   H3Y17954   4.714   2.335   7.421  2.2587  0.1187 -0.6106
  160SAPE   C3417955   4.798   2.203   7.568  0.1925 -0.0871 -1.0527
  160SAPE   H4X17956   4.834   2.303   7.600 -0.2421  0.9194 -3.4994
  160SAPE   H4Y17957   4.883   2.131   7.570  0.6240  0.3779  1.5394
  160SAPE   C3517958   4.679   2.145   7.645  0.1288 -0.2573 -1.1496
  160SAPE   H5X17959   4.662   2.049   7.593 -1.4349  0.0350 -1.2218
  160SAPE   H5Y17960   4.594   2.209   7.614 -0.5949 -1.0281 -0.7706
  160SAPE   C3617961   4.704   2.143   7.798  0.9012  0.7398 -0.3881
  160SAPE   H6X17962   4.765   2.052   7.820 -0.0034  0.0495 -0.6455
  160SAPE   H6Y17963   4.605   2.121   7.844  2.1167 -1.1345  1.5201
  160SAPE   C3717964   4.745   2.272   7.852 -0.5916 -0.3543  0.2393
  160SAPE   H7X17965   4.701   2.352   7.789  0.4476  1.0073  1.1700
  160SAPE   H7Y17966   4.856   2.282   7.852 -0.6647  0.5395  0.5759
  160SAPE   C3817967   4.705   2.286   7.999  0.0971  0.6857 -0.2002
  160SAPE   H8X17968   4.596   2.309   7.999  0.1818  1.1610  1.3256
  160SAPE   H8Y17969   4.763   2.374   8.033  1.6184 -1.1535  2.3574
  160SAPE   C3917970   4.738   2.166   8.100 -1.4292 -0.7103  0.5848
  160SAPE   H9X17971   4.847   2.151   8.089 -1.6022 -0.7819 -1.3719
  160SAPE   H9Y17972   4.690   2.067   8.079  0.9818 -1.6693 -0.8205
  160SAPE  C31017973   4.696   2.205   8.240  0.4194  0.0212 -0.1757
  160SAPE  H10X17974   4.596   2.253   8.232 -0.0111 -1.0960 -2.8841
  160SAPE  H10Y17975   4.771   2.276   8.280  1.8740 -1.8192  0.4811
  160SAPE  C31117976   4.681   2.077   8.336  0.0705 -0.3574  1.1343
  160SAPE  H11X17977   4.773   2.016   8.318  0.3704 -1.0738  4.4245
  160SAPE  H11Y17978   4.594   2.018   8.301 -0.1603  0.9557 -0.6154
  160SAPE  C31217979   4.661   2.113   8.485 -0.0605  0.1979  0.0524
  160SAPE  H12X17980   4.584   2.193   8.488 -0.7778 -0.3667 -1.8347
  160SAPE  H12Y17981   4.755   2.166   8.514 -0.8159  1.5323  0.1418
  160SAPE  C31317982   4.634   2.000   8.573  0.5487  0.8861 -0.3334
  160SAPE  H13X17983   4.651   2.036   8.677  1.6744 -1.3793  0.3531
  160SAPE  H13Y17984   4.714   1.923   8.566  0.5955  0.9562 -0.5534
  160SAPE  C31417985   4.493   1.945   8.570  0.0275 -0.3202  0.4497
  160SAPE  H14X17986   4.489   1.862   8.644  1.5486  0.5205  1.5317
  160SAPE  H14Y17987   4.462   1.906   8.471 -1.1974  0.5844  0.4417
  160SAPE  C31517988   4.383   2.054   8.605 -0.3282  0.7042  0.2187
  160SAPE  H15X17989   4.285   2.003   8.594 -0.0947  0.3243 -0.1487
  160SAPE  H15Y17990   4.386   2.126   8.520 -0.0901 -2.0844 -2.2947
  160SAPE  C31617991   4.393   2.120   8.742 -0.3757  0.1087  0.5566
  160SAPE  H16X17992   4.490   2.167   8.767 -0.0804 -0.5815  0.7364
  160SAPE  H16Y17993   4.375   2.047   8.824  1.4166  0.0550  0.9534
  160SAPE  C31717994   4.292   2.236   8.759  0.3582  0.0109  0.3206
  160SAPE  H17X17995   4.197   2.180   8.749  0.1140  0.7530 -2.2959
  160SAPE  H17Y17996   4.296   2.307   8.674  1.6878 -0.9740 -0.4673
  160SAPE  C31817997   4.295   2.305   8.889  0.2112 -0.3038 -0.1150
  160SAPE  H18X17998   4.208   2.375   8.889 -0.0390 -0.5973  0.7566
  160SAPE  H18Y17999   4.384   2.371   8.893 -0.5568  0.7428  0.4734
  160SAPE  H18Z18000   4.294   2.245   8.982  1.3182 -0.8635 -0.4567
  161SAPE     N18001   6.176   6.743   6.156  0.3445  0.0783  0.4190
  161SAPE   HN118002   6.147   6.713   6.060 -0.1294  1.0431  0.2550
  161SAPE   HN218003   6.097   6.793   6.201 -0.8024  0.9628 -2.3642
  161SAPE   HN318004   6.235   6.827   6.137 -1.5940  1.2940 -0.5249
  161SAPE   C1218005   6.246   6.640   6.239 -0.0626  0.5631 -0.6756
  161SAPE  H12A18006   6.272   6.680   6.340  0.3438  1.3007 -1.0631
  161SAPE  H12B18007   6.335   6.614   6.178  0.8628  3.5855 -0.7685
  161SAPE   C1118008   6.162   6.513   6.255 -0.1760  0.0764 -0.4086
  161SAPE  H11A18009   6.226   6.439   6.309 -0.4640  1.2613  1.6673
  161SAPE  H11B18010   6.139   6.479   6.152  0.5575  0.2741 -0.6449
  161SAPE     P18011   5.934   6.424   6.316  0.1519 -0.1017  0.0901
  161SAPE   O1318012   5.856   6.457   6.196 -0.3446 -0.3270 -0.1244
  161SAPE   O1418013   5.988   6.284   6.319 -0.3802  0.4248  0.0866
  161SAPE   O1218014   6.040   6.530   6.336  0.3045 -0.1657  0.1224
  161SAPE   O1118015   5.850   6.442   6.452 -0.1679 -0.1991  0.0124
  161SAPE    C118016   5.747   6.542   6.453  0.3388 -0.3235 -0.4862
  161SAPE    HA18017   5.716   6.567   6.350  3.3233  1.5725 -1.0398
  161SAPE    HB18018   5.658   6.499   6.505  1.5269 -1.0502  1.0406
  161SAPE    C218019   5.790   6.672   6.529  0.2774 -0.6309  0.0928
  161SAPE    HS18020   5.877   6.718   6.478  0.1135  1.7998  1.8253
  161SAPE   O2118021   5.837   6.628   6.661  0.0634 -0.0796  0.1462
  161SAPE   C2118022   5.892   6.727   6.731 -0.1550 -0.4753  0.1980
  161SAPE   O2218023   5.905   6.842   6.696 -0.4516  0.2916 -0.0712
  161SAPE   C2218024   5.927   6.673   6.868 -0.1891 -0.4924 -0.5859
  161SAPE   H2R18025   5.833   6.631   6.910 -0.8939  1.1005 -0.4957
  161SAPE   H2S18026   6.016   6.607   6.860  0.3849  0.2269 -0.2486
  161SAPE    C318027   5.666   6.765   6.536 -0.5408 -0.8086 -0.1509
  161SAPE    HX18028   5.635   6.799   6.435 -0.6168 -1.0395 -0.2055
  161SAPE    HY18029   5.689   6.862   6.586 -2.2031 -0.8363  0.7673
  161SAPE   O3118030   5.553   6.698   6.597  0.0942 -0.5658 -0.2298
  161SAPE   C3118031   5.551   6.723   6.727  0.4972  0.3951  0.4296
  161SAPE   O3218032   5.619   6.807   6.785 -0.1133 -0.3228 -0.6551
  161SAPE   C3218033   5.456   6.624   6.790 -0.3563  0.1356  0.0466
  161SAPE   H2X18034   5.385   6.603   6.707 -1.2149  2.1561  0.2200
  161SAPE   H2Y18035   5.405   6.670   6.877  1.2268  0.4139  0.8627
  161SAPE   C2318036   5.959   6.780   6.982  0.6709  0.0315  0.6093
  161SAPE   H3R18037   5.875   6.851   6.994  0.3158 -0.0081 -1.2790
  161SAPE   H3S18038   6.046   6.843   6.955  1.3887 -1.1268  0.1049
  161SAPE   C2418039   5.970   6.703   7.119  0.1038 -0.5253  0.2155
  161SAPE   H4R18040   6.037   6.615   7.109  0.5748 -0.1261 -0.1821
  161SAPE   H4S18041   5.867   6.670   7.143 -0.3267  1.1969  0.9026
  161SAPE   C2518042   6.014   6.789   7.236  0.0417 -0.2286  0.5115
  161SAPE   H5R18043   6.009   6.895   7.209  2.7808 -0.5642 -1.8734
  161SAPE   C2618044   6.043   6.740   7.353 -0.2440  0.5678 -0.3361
  161SAPE   H6R18045   6.062   6.810   7.436  1.2821 -0.7545  0.4844
  161SAPE   C2718046   6.034   6.599   7.394 -0.1759 -0.2408 -0.4278
  161SAPE   H7R18047   6.130   6.584   7.448  0.5777  4.0427 -0.2354
  161SAPE   H7S18048   6.035   6.534   7.304  1.1596  0.5418 -1.0160
  161SAPE   C2818049   5.918   6.567   7.486  0.2319 -0.0784 -0.3859
  161SAPE   H8R18050   5.845   6.498   7.441 -0.4241  0.4951 -0.2201
  161SAPE   C2918051   5.888   6.605   7.617  0.0438 -0.0758  0.5012
  161SAPE   H9R18052   5.798   6.563   7.663 -0.8541  0.4213 -0.7622
  161SAPE  C21018053   5.970   6.683   7.708 -0.4140  0.5811 -0.0580
  161SAPE  H10R18054   6.076   6.689   7.675 -0.0586  2.5601  1.2859
  161SAPE  H10S18055   5.978   6.611   7.793  0.0831 -0.2937 -0.8275
  161SAPE  C21118056   5.911   6.815   7.744 -0.6990  0.4397  0.0558
  161SAPE  H11R18057   5.855   6.868   7.666 -0.1768 -0.1351 -0.7146
  161SAPE  C21218058   5.891   6.868   7.869 -0.0298  0.3776  0.5472
  161SAPE  H12R18059   5.856   6.972   7.879  1.6424  0.9861  0.4439
  161SAPE  C21318060   5.942   6.799   7.986  0.2118  0.0361  0.8946
  161SAPE  H13R18061   5.915   6.691   7.981  0.5037  0.0281 -1.9257
  161SAPE  H13S18062   5.878   6.840   8.067 -1.2078 -0.9569  0.3125
  161SAPE  C21418063   6.095   6.825   8.004 -0.2557  0.1352  0.8729
  161SAPE  H14R18064   6.168   6.755   7.960 -2.0609 -1.1458 -0.2126
  161SAPE  C21518065   6.146   6.939   8.065  0.1587  0.0492 -0.1694
  161SAPE  H15R18066   6.255   6.946   8.083  0.1338  1.1653 -0.4401
  161SAPE  C21618067   6.068   7.055   8.133 -1.3425 -0.2834  0.3228
  161SAPE  H16R18068   5.958   7.043   8.126 -1.3431  0.6006 -1.8725
  161SAPE  H16S18069   6.096   7.148   8.080 -1.2856 -1.0875 -1.1060
  161SAPE  C21718070   6.089   7.087   8.283  0.4040 -0.2016 -0.4327
  161SAPE  H17R18071   6.199   7.092   8.298  0.3224  0.2062  0.0582
  161SAPE  H17S18072   6.035   7.007   8.337 -0.0793  1.1423  1.1506
  161SAPE  C21818073   6.024   7.224   8.319 -0.1349  0.3158 -0.9914
  161SAPE  H18R18074   5.950   7.251   8.242 -2.5246  0.7590  1.3210
  161SAPE  H18S18075   6.098   7.304   8.301 -1.2755  1.6228 -0.0294
  161SAPE  C21918076   5.962   7.243   8.457 -0.0904  0.4064 -0.2273
  161SAPE  H19R18077   5.892   7.157   8.463  3.0056 -2.3322 -0.3312
  161SAPE  H19S18078   5.903   7.334   8.430  0.0591  0.2768 -1.0242
  161SAPE  C22018079   6.051   7.260   8.581 -0.1297  0.0994  1.0289
  161SAPE  H20R18080   5.988   7.289   8.668 -0.0508 -1.2010  1.5415
  161SAPE  H20S18081   6.121   7.344   8.566 -0.5786  0.2800 -0.1405
  161SAPE  H20T18082   6.103   7.164   8.600 -2.6784 -1.5976  0.0707
  161SAPE   C3318083   5.525   6.486   6.828  0.6747  0.0506  0.5077
  161SAPE   H3X18084   5.608   6.465   6.757  0.9079 -0.3107  0.8830
  161SAPE   H3Y18085   5.452   6.404   6.816  1.4698 -0.5441 -0.4710
  161SAPE   C3418086   5.578   6.474   6.975  0.4388 -0.3320 -0.3824
  161SAPE   H4X18087   5.659   6.550   6.979 -0.3719  0.6520 -1.7168
  161SAPE   H4Y18088   5.617   6.373   7.002  1.1332  0.9858  4.2920
  161SAPE   C3518089   5.476   6.501   7.086  0.5376 -0.2842 -0.2849
  161SAPE   H5X18090   5.391   6.431   7.074 -1.8024  2.3375  0.0107
  161SAPE   H5Y18091   5.443   6.607   7.079  0.5565  0.0632  3.1375
  161SAPE   C3618092   5.524   6.475   7.224 -0.7142 -0.0265 -0.4502
  161SAPE   H6X18093   5.625   6.520   7.229 -1.3418  1.3675  0.0630
  161SAPE   H6Y18094   5.538   6.365   7.238 -0.7197  0.0927  0.5738
  161SAPE   C3718095   5.449   6.551   7.330  0.2120  1.2435  0.3769
  161SAPE   H7X18096   5.347   6.507   7.341  0.6347  0.4178  1.2006
  161SAPE   H7Y18097   5.452   6.656   7.293 -0.6319  1.0352 -0.3215
  161SAPE   C3818098   5.516   6.534   7.469  0.0805 -0.3944  0.2003
  161SAPE   H8X18099   5.613   6.588   7.470 -0.5542  0.8841 -1.6674
  161SAPE   H8Y18100   5.544   6.429   7.490  0.8847 -0.5570 -1.5419
  161SAPE   C3918101   5.425   6.575   7.588 -0.1053  0.3768  0.2735
  161SAPE   H9X18102   5.340   6.504   7.592  0.6130 -0.5227  0.0237
  161SAPE   H9Y18103   5.385   6.675   7.563 -1.0350  0.1668  0.8781
  161SAPE  C31018104   5.507   6.575   7.722  0.0130  0.2000  0.1107
  161SAPE  H10X18105   5.586   6.653   7.717 -0.2882  0.4806 -4.7959
  161SAPE  H10Y18106   5.555   6.475   7.724  0.0083  0.2040  0.4191
  161SAPE  C31118107   5.431   6.611   7.849 -0.0559 -0.1410 -0.8853
  161SAPE  H11X18108   5.363   6.524   7.863 -0.1706 -0.0084 -0.6112
  161SAPE  H11Y18109   5.372   6.704   7.838  0.8872  0.8062  1.3948
  161SAPE  C31218110   5.532   6.623   7.965 -0.8356 -0.1740  0.0752
  161SAPE  H12X18111   5.564   6.729   7.973 -0.8471 -0.2695  1.7945
  161SAPE  H12Y18112   5.622   6.562   7.943 -1.9373 -1.7695 -0.1885
  161SAPE  C31318113   5.467   6.573   8.099 -0.0496 -0.3247  0.5296
  161SAPE  H13X18114   5.463   6.462   8.109 -0.1834 -0.2439  1.5372
  161SAPE  H13Y18115   5.363   6.611   8.094 -0.4996 -1.3995  1.0980
  161SAPE  C31418116   5.546   6.626   8.217  0.2142  0.1998  0.2868
  161SAPE  H14X18117   5.655   6.608   8.203  0.2541  1.2251 -0.8555
  161SAPE  H14Y18118   5.496   6.562   8.293 -1.2261 -0.2362 -0.9776
  161SAPE  C31518119   5.526   6.776   8.255 -0.1024  0.2835  0.6049
  161SAPE  H15X18120   5.416   6.791   8.249 -0.5930 -2.9434 -0.4434
  161SAPE  H15Y18121   5.569   6.834   8.171 -3.3653 -2.7622 -3.5452
  161SAPE  C31618122   5.603   6.807   8.380  0.4873  0.0872  0.1829
  161SAPE  H16X18123   5.698   6.751   8.369  1.9771  2.7121 -1.2689
  161SAPE  H16Y18124   5.544   6.771   8.468 -0.6941 -1.2163 -1.0950
  161SAPE  C31718125   5.621   6.958   8.389  0.7659  0.0317  0.7264
  161SAPE  H17X18126   5.643   6.985   8.494 -0.3056  0.2099  0.9142
  161SAPE  H17Y18127   5.523   7.004   8.365  0.4141 -0.3421  1.4113
  161SAPE  C31818128   5.720   7.026   8.297  0.5798  0.2911  0.3261
  161SAPE  H18X18129   5.819   6.981   8.321 -0.1507 -2.6321 -1.6430
  161SAPE  H18Y18130   5.716   7.136   8.317 -0.8712  0.1875  0.6587
  161SAPE  H18Z18131   5.699   7.016   8.189  1.6409  0.0341  0.1277
  162SAPE     N18132   0.673   5.817   6.281 -0.1238 -0.3997 -0.2014
  162SAPE   HN118133   0.627   5.752   6.214  0.3079 -1.1813  0.2318
  162SAPE   HN218134   0.609   5.896   6.300 -0.4350 -0.8266  0.5795
  162SAPE   HN318135   0.769   5.833   6.243  0.1338  0.5675  0.8187
  162SAPE   C1218136   0.684   5.713   6.394 -0.6457  0.1026  0.2546
  162SAPE  H12A18137   0.580   5.714   6.433 -1.2877 -0.1437 -1.3798
  162SAPE  H12B18138   0.753   5.752   6.472 -1.1653  0.8512  0.3540
  162SAPE   C1118139   0.738   5.579   6.347 -0.9131 -0.4564  0.2508
  162SAPE  H11A18140   0.743   5.508   6.432 -1.3321 -1.4323 -0.5150
  162SAPE  H11B18141   0.839   5.593   6.304 -2.0788  0.9984 -2.2980
  162SAPE     P18142   0.658   5.378   6.200  0.1323 -0.0206 -0.2911
  162SAPE   O1318143   0.531   5.308   6.187  0.2144  0.3188  0.4980
  162SAPE   O1418144   0.739   5.372   6.075  0.5570 -0.0149 -0.6863
  162SAPE   O1218145   0.647   5.531   6.242 -0.9004 -0.2380  0.5839
  162SAPE   O1118146   0.745   5.310   6.308  0.2057  0.4907  0.2390
  162SAPE    C118147   0.713   5.188   6.371  0.5061 -0.0851  0.7150
  162SAPE    HA18148   0.681   5.113   6.295  2.4180 -1.1004  0.8471
  162SAPE    HB18149   0.803   5.143   6.418  1.2281 -0.1436 -0.6933
  162SAPE    C218150   0.599   5.216   6.473 -0.3016  0.0844  0.5915
  162SAPE    HS18151   0.509   5.244   6.415  0.6599  1.0614 -0.4836
  162SAPE   O2118152   0.635   5.328   6.555  0.3740  0.1279 -0.9706
  162SAPE   C2118153   0.531   5.381   6.626 -0.7341  0.1785  0.1571
  162SAPE   O2218154   0.416   5.351   6.596  0.4108 -0.5073 -0.1418
  162SAPE   C2218155   0.567   5.463   6.746 -0.0718 -0.0849 -0.2434
  162SAPE   H2R18156   0.676   5.478   6.760  0.4107 -1.8330 -1.8109
  162SAPE   H2S18157   0.520   5.562   6.729 -2.2778 -1.1425 -0.6713
  162SAPE    C318158   0.576   5.091   6.560 -0.2517  0.3476  0.0706
  162SAPE    HX18159   0.665   5.075   6.625  0.2110  3.4531  0.3583
  162SAPE    HY18160   0.562   5.017   6.478  1.1554 -0.5799  0.6283
  162SAPE   O3118161   0.468   5.102   6.657 -0.4754  0.2167  0.1714
  162SAPE   C3118162   0.358   5.049   6.623  0.3731 -0.3096 -0.8566
  162SAPE   O3218163   0.328   5.010   6.515 -0.4405  0.0676  0.7850
  162SAPE   C3218164   0.275   5.028   6.753 -0.3333 -0.1636  0.1727
  162SAPE   H2X18165   0.209   4.941   6.735 -0.6333  0.4376 -1.8824
  162SAPE   H2Y18166   0.220   5.124   6.756 -0.3669 -0.1337 -0.9333
  162SAPE   C2318167   0.524   5.383   6.875  0.6408  0.0378  0.3807
  162SAPE   H3R18168   0.587   5.420   6.959 -0.3464  3.0242 -0.0655
  162SAPE   H3S18169   0.534   5.272   6.872 -0.3335 -0.0858  1.1154
  162SAPE   C2418170   0.376   5.401   6.915 -0.1175  0.3017  0.4948
  162SAPE   H4R18171   0.356   5.330   6.999  2.1991  0.4738  1.2659
  162SAPE   H4S18172   0.312   5.370   6.830  0.7555  1.3818 -0.5933
  162SAPE   C2518173   0.346   5.536   6.958  0.4739  0.1253 -1.2526
  162SAPE   H5R18174   0.374   5.619   6.891  2.5375 -0.6520 -1.4193
  162SAPE   C2618175   0.257   5.568   7.055 -0.1364 -0.3533 -0.8616
  162SAPE   H6R18176   0.222   5.672   7.061  1.3905  0.1193  0.6453
  162SAPE   C2718177   0.193   5.469   7.150  0.8119 -0.2466 -0.5492
  162SAPE   H7R18178   0.169   5.376   7.093  2.3600 -0.3705 -1.0427
  162SAPE   H7S18179   0.094   5.504   7.186  1.2829 -0.7756  1.3423
  162SAPE   C2818180   0.289   5.421   7.264 -0.1445  0.1084  0.8734
  162SAPE   H8R18181   0.397   5.425   7.242 -0.4718  1.1153 -0.6259
  162SAPE   C2918182   0.257   5.380   7.387 -0.1454 -0.4362  0.1973
  162SAPE   H9R18183   0.343   5.351   7.447 -0.4430 -0.0880  0.8059
  162SAPE  C21018184   0.120   5.370   7.448 -0.0508  0.7949 -0.0669
  162SAPE  H10R18185   0.102   5.263   7.474 -0.9662  0.5945 -1.4212
  162SAPE  H10S18186   0.049   5.381   7.363  0.4091 -2.6577 -1.0512
  162SAPE  C21118187   0.091   5.465   7.566 -0.8640  0.5912  0.5956
  162SAPE  H11R18188   0.044   5.560   7.538 -2.4261 -0.7454 -1.5925
  162SAPE  C21218189   0.123   5.438   7.689 -0.2224  0.3877 -0.0733
  162SAPE  H12R18190   0.120   5.524   7.758 -0.9168  0.0996  0.2645
  162SAPE  C21318191   0.189   5.314   7.748  0.0381  0.5323 -0.3533
  162SAPE  H13R18192   0.220   5.257   7.658  0.5241  1.3502 -0.7093
  162SAPE  H13S18193   0.117   5.251   7.806 -0.9228  3.0299  1.3481
  162SAPE  C21418194   0.315   5.328   7.830  0.0671 -0.1241  0.4379
  162SAPE  H14R18195   0.393   5.388   7.780  1.4834 -1.8182  0.5415
  162SAPE  C21518196   0.344   5.274   7.949 -0.1957  0.0651  0.4129
  162SAPE  H15R18197   0.438   5.312   7.992  0.0028  1.2948 -0.9816
  162SAPE  C21618198   0.251   5.189   8.023  0.6057 -0.1071 -0.6190
  162SAPE  H16R18199   0.275   5.082   8.005 -0.3258 -0.3294 -0.5544
  162SAPE  H16S18200   0.147   5.209   7.992  0.8232 -0.9912 -2.0011
  162SAPE  C21718201   0.266   5.210   8.180  0.3601  0.6758  0.4616
  162SAPE  H17R18202   0.247   5.318   8.196 -0.9217  0.6287 -0.6067
  162SAPE  H17S18203   0.372   5.201   8.214  0.9713 -1.7806 -1.6906
  162SAPE  C21818204   0.166   5.134   8.273 -0.2452 -0.8128  0.3920
  162SAPE  H18R18205   0.186   5.026   8.253 -3.6406 -1.5499  0.3573
  162SAPE  H18S18206   0.065   5.161   8.233  0.4097  2.3113  0.6039
  162SAPE  C21918207   0.165   5.167   8.423 -0.0170 -0.6713  0.1830
  162SAPE  H19R18208   0.161   5.278   8.434 -2.8558 -0.4177 -2.2127
  162SAPE  H19S18209   0.257   5.129   8.472  1.0164  1.1829 -0.2252
  162SAPE  C22018210   0.052   5.093   8.488  0.3062 -0.1803  0.4332
  162SAPE  H20R18211   0.041   4.993   8.440 -2.0076  0.0337  0.4379
  162SAPE  H20S18212  -0.036   5.153   8.458  2.5570  2.1065 -2.2634
  162SAPE  H20T18213   0.061   5.073   8.596 -0.5841  2.2494  1.0229
  162SAPE   C3318214   0.357   5.020   6.880 -0.2548  0.0091 -0.6985
  162SAPE   H3X18215   0.419   5.110   6.899  0.5425 -0.3536 -1.4980
  162SAPE   H3Y18216   0.438   4.944   6.874  0.6084  1.0003 -2.1163
  162SAPE   C3418217   0.273   4.995   7.017  0.1054  0.1456 -0.3752
  162SAPE   H4X18218   0.227   4.896   7.002  1.6222 -0.4982 -0.9895
  162SAPE   H4Y18219   0.203   5.079   7.037 -2.2592 -1.7050 -0.5165
  162SAPE   C3518220   0.359   4.983   7.146  0.5038 -0.3752 -0.5249
  162SAPE   H5X18221   0.440   5.058   7.154  0.2684 -0.0395 -1.1762
  162SAPE   H5Y18222   0.403   4.882   7.160 -1.1993 -0.8956  1.6116
  162SAPE   C3618223   0.276   5.003   7.271 -0.6117  0.7018 -1.5801
  162SAPE   H6X18224   0.187   4.938   7.267 -0.2431  0.2334 -2.5598
  162SAPE   H6Y18225   0.242   5.107   7.289  2.3805  1.1857  2.9458
  162SAPE   C3718226   0.349   4.963   7.406  0.2008 -0.0310 -0.4198
  162SAPE   H7X18227   0.409   5.051   7.436 -2.2506  2.2222 -1.6984
  162SAPE   H7Y18228   0.410   4.873   7.383  0.1002 -0.4690  0.9216
  162SAPE   C3818229   0.254   4.940   7.530 -0.0538  0.5172  0.4231
  162SAPE   H8X18230   0.165   4.877   7.510 -0.9488  1.8318  0.1238
  162SAPE   H8Y18231   0.208   5.036   7.563 -1.0781 -1.1116  4.1936
  162SAPE   C3918232   0.322   4.875   7.649 -0.2471 -0.2285 -0.2092
  162SAPE   H9X18233   0.404   4.942   7.682  0.2604 -0.2935 -1.3089
  162SAPE   H9Y18234   0.360   4.776   7.616  0.6196 -0.3973  1.2131
  162SAPE  C31018235   0.229   4.850   7.770  0.2284 -0.4236 -0.2804
  162SAPE  H10X18236   0.140   4.794   7.734 -0.4258  0.7428 -0.4998
  162SAPE  H10Y18237   0.181   4.946   7.797 -0.5572 -0.3201 -1.9360
  162SAPE  C31118238   0.278   4.779   7.894  0.0019 -0.4179 -0.1589
  162SAPE  H11X18239   0.349   4.856   7.932 -0.7951  0.0365  0.4300
  162SAPE  H11Y18240   0.339   4.687   7.881 -0.3816 -0.9749  1.7104
  162SAPE  C31218241   0.167   4.752   8.001  0.3251  0.2645 -0.2111
  162SAPE  H12X18242   0.123   4.655   7.969  0.5713 -0.2998  1.1149
  162SAPE  H12Y18243   0.103   4.843   7.992  0.7563  0.4100 -2.4085
  162SAPE  C31318244   0.226   4.752   8.147  0.1641  0.3440 -0.1008
  162SAPE  H13X18245   0.136   4.755   8.212 -0.3652  0.7505 -0.8291
  162SAPE  H13Y18246   0.291   4.841   8.159 -1.0154  1.1730  0.3841
  162SAPE  C31418247   0.305   4.629   8.184 -0.5139  0.0810  0.0839
  162SAPE  H14X18248   0.412   4.634   8.154  0.1932 -2.4402  1.9050
  162SAPE  H14Y18249   0.255   4.537   8.148 -1.1669 -0.4136  2.1384
  162SAPE  C31518250   0.310   4.616   8.336  0.3552  0.2163  0.3342
  162SAPE  H15X18251   0.364   4.521   8.356 -2.3080 -1.3257  0.8231
  162SAPE  H15Y18252   0.208   4.600   8.379 -0.8542  2.1839 -1.5928
  162SAPE  C31618253   0.369   4.741   8.408 -0.5392 -0.0387  0.1375
  162SAPE  H16X18254   0.320   4.830   8.364 -1.6402  0.0651  1.4941
  162SAPE  H16Y18255   0.477   4.736   8.384 -0.4763 -0.2083  0.4481
  162SAPE  C31718256   0.347   4.743   8.559 -0.3271  0.3366  0.2032
  162SAPE  H17X18257   0.240   4.764   8.576 -0.1682  1.0488  0.3278
  162SAPE  H17Y18258   0.409   4.827   8.597  0.3255 -0.2779  0.5464
  162SAPE  C31818259   0.389   4.616   8.643  0.3886 -0.0399  0.6665
  162SAPE  H18X18260   0.496   4.586   8.639  0.0370 -1.2497 -1.5008
  162SAPE  H18Y18261   0.338   4.523   8.611  0.7558 -0.3034  0.8384
  162SAPE  H18Z18262   0.360   4.621   8.750 -1.5537 -0.5729  0.1915
  163SAPE     N18263   3.676   0.409   6.524 -0.5255 -0.0136 -0.3889
  163SAPE   HN118264   3.574   0.425   6.541 -0.1724  1.0528  0.8476
  163SAPE   HN218265   3.712   0.476   6.453 -0.8541  0.3427 -0.2242
  163SAPE   HN318266   3.682   0.310   6.493  1.1231  0.3303 -1.2390
  163SAPE   C1218267   3.733   0.431   6.664  0.0141  0.0794 -0.4286
  163SAPE  H12A18268   3.840   0.403   6.672 -0.5193 -1.4584  2.6873
  163SAPE  H12B18269   3.680   0.353   6.722 -0.7054  1.0859  0.2909
  163SAPE   C1118270   3.727   0.572   6.734  0.2596 -0.7888 -0.2585
  163SAPE  H11A18271   3.774   0.564   6.835  0.4584 -1.5162 -0.3949
  163SAPE  H11B18272   3.618   0.588   6.750  0.4345 -0.2059  0.4058
  163SAPE     P18273   3.928   0.703   6.625 -0.0427  0.0335 -0.4226
  163SAPE   O1318274   3.995   0.574   6.590 -0.2356 -0.1336 -0.4635
  163SAPE   O1418275   3.948   0.825   6.542 -0.2664  0.4445  0.6210
  163SAPE   O1218276   3.774   0.678   6.643  0.3053  0.4179  0.4940
  163SAPE   O1118277   3.983   0.732   6.770 -0.0734 -0.8701  0.0784
  163SAPE    C118278   3.958   0.850   6.838 -0.8138  0.1008  0.5041
  163SAPE    HA18279   4.058   0.889   6.868 -2.0836  2.1031  2.4924
  163SAPE    HB18280   3.917   0.933   6.777 -1.6337  0.5571  1.6428
  163SAPE    C218281   3.879   0.837   6.970  0.1961 -0.5183 -0.3050
  163SAPE    HS18282   3.918   0.914   7.039  0.3823  0.4347 -1.4509
  163SAPE   O2118283   3.890   0.702   7.027  0.1108  0.3820 -0.5089
  163SAPE   C2118284   4.019   0.678   7.056  0.3739  0.1131  0.5424
  163SAPE   O2218285   4.105   0.761   7.067  0.0062 -0.4959  0.1733
  163SAPE   C2218286   4.031   0.528   7.058  0.1055 -0.6044  0.0611
  163SAPE   H2R18287   3.939   0.484   7.014  1.6478 -1.1549 -2.8232
  163SAPE   H2S18288   4.114   0.499   6.991  2.2232 -0.5839  2.5069
  163SAPE    C318289   3.730   0.870   6.939  0.5305  0.0932  0.0958
  163SAPE    HX18290   3.695   0.793   6.867 -2.2753  2.9579 -1.8896
  163SAPE    HY18291   3.718   0.969   6.891  0.1982 -0.0390 -0.0977
  163SAPE   O3118292   3.646   0.875   7.058  0.2499 -0.1654 -0.6835
  163SAPE   C3118293   3.585   0.753   7.078  0.4290  0.3197 -0.3147
  163SAPE   O3218294   3.599   0.656   7.005  0.9064 -0.0599  0.4294
  163SAPE   C3218295   3.504   0.775   7.204  0.1675  0.0665 -0.5689
  163SAPE   H2X18296   3.440   0.861   7.178  0.4494  0.6549  0.6259
  163SAPE   H2Y18297   3.563   0.787   7.297  0.7221 -0.2530 -0.8692
  163SAPE   C2318298   4.062   0.461   7.190  0.1786  0.1337  0.5680
  163SAPE   H3R18299   4.153   0.503   7.239 -0.0475  2.4000 -0.7900
  163SAPE   H3S18300   4.088   0.355   7.174 -1.0960 -0.1945  0.5862
  163SAPE   C2418301   3.937   0.461   7.282  0.2782 -0.1147 -0.1010
  163SAPE   H4R18302   3.892   0.563   7.286  1.1749  0.3094 -0.6310
  163SAPE   H4S18303   3.976   0.445   7.385  0.1390 -0.3236 -0.0815
  163SAPE   C2518304   3.824   0.365   7.249  0.1133  0.1254  0.2288
  163SAPE   H5R18305   3.767   0.385   7.157  1.1571  0.8024 -0.2951
  163SAPE   C2618306   3.786   0.259   7.322 -0.3906 -0.2184 -0.6030
  163SAPE   H6R18307   3.707   0.193   7.283  0.0220 -0.5610 -0.8598
  163SAPE   C2718308   3.841   0.213   7.453 -0.0863  0.5736  0.4904
  163SAPE   H7R18309   3.947   0.242   7.470 -0.5710  1.2303  2.7770
  163SAPE   H7S18310   3.836   0.103   7.437 -0.5313  0.4113  1.6319
  163SAPE   C2818311   3.762   0.237   7.578  0.8199 -0.4368  0.0788
  163SAPE   H8R18312   3.657   0.202   7.571  0.4050  0.7356  0.2610
  163SAPE   C2918313   3.806   0.248   7.707 -0.3430 -0.1543  0.7287
  163SAPE   H9R18314   3.735   0.260   7.791 -0.2856 -0.6748  0.8598
  163SAPE  C21018315   3.949   0.238   7.749 -0.4767  0.5243 -0.2073
  163SAPE  H10R18316   4.007   0.172   7.681 -0.7310  1.0417 -0.9412
  163SAPE  H10S18317   3.951   0.187   7.848 -2.0535  0.0429 -0.4026
  163SAPE  C21118318   4.007   0.374   7.752 -0.5052 -0.4674 -0.5177
  163SAPE  H11R18319   4.028   0.417   7.653  2.6445  3.1207  1.4009
  163SAPE  C21218320   4.018   0.454   7.861 -0.7440 -0.5587 -0.2631
  163SAPE  H12R18321   4.049   0.559   7.847 -2.2064 -0.3417 -2.4574
  163SAPE  C21318322   3.985   0.419   8.001  0.5115  0.2882 -0.5044
  163SAPE  H13R18323   4.085   0.437   8.046  0.6167  1.1610 -1.0537
  163SAPE  H13S18324   3.968   0.311   8.019 -3.2459  0.8324  0.0951
  163SAPE  C21418325   3.879   0.502   8.066  0.6852  0.7329 -0.2920
  163SAPE  H14R18326   3.791   0.517   8.002  2.7291  0.7551 -3.3181
  163SAPE  C21518327   3.884   0.549   8.190 -0.0287  0.3293 -0.2021
  163SAPE  H15R18328   3.796   0.599   8.232 -1.7804 -0.7449 -2.4253
  163SAPE  C21618329   3.996   0.550   8.294  0.2059 -0.3264  0.1677
  163SAPE  H16R18330   4.077   0.475   8.286  1.5689  0.8819  2.0607
  163SAPE  H16S18331   3.951   0.512   8.388  1.5013  0.6905  1.2369
  163SAPE  C21718332   4.053   0.695   8.291 -0.5813 -0.7512 -0.2223
  163SAPE  H17R18333   4.077   0.726   8.187 -0.8431 -0.6247 -0.2470
  163SAPE  H17S18334   4.149   0.703   8.346 -0.3643  0.3681 -0.7337
  163SAPE  C21818335   3.966   0.813   8.346 -0.0594 -0.1429 -0.8574
  163SAPE  H18R18336   3.900   0.849   8.264 -1.7612  0.8432  0.8885
  163SAPE  H18S18337   4.025   0.903   8.372  0.2578 -0.0056 -2.0102
  163SAPE  C21918338   3.883   0.774   8.474 -0.3426  0.6194  0.3620
  163SAPE  H19R18339   3.809   0.693   8.460 -1.4183  1.5385  0.5540
  163SAPE  H19S18340   3.819   0.860   8.504 -1.7903 -1.1208  2.5882
  163SAPE  C22018341   3.968   0.739   8.598  0.9787 -0.2164 -0.3289
  163SAPE  H20R18342   3.910   0.685   8.676  0.3168  0.5337 -0.2965
  163SAPE  H20S18343   4.006   0.833   8.642  0.9608 -1.1957  1.9036
  163SAPE  H20T18344   4.060   0.685   8.567  1.4893  1.1624 -1.3181
  163SAPE   C3318345   3.394   0.664   7.217 -0.3584  0.0368  0.2750
  163SAPE   H3X18346   3.438   0.566   7.190 -1.8442  0.0309 -2.4667
  163SAPE   H3Y18347   3.308   0.681   7.149 -0.8615 -4.0010 -0.3651
  163SAPE   C3418348   3.356   0.660   7.363  0.0646  0.5656 -0.9161
  163SAPE   H4X18349   3.261   0.602   7.366  0.9620 -1.0673 -2.1098
  163SAPE   H4Y18350   3.348   0.766   7.393  0.0445 -0.2175  2.1879
  163SAPE   C3518351   3.464   0.605   7.458  0.3567  0.0786 -0.7771
  163SAPE   H5X18352   3.560   0.655   7.430 -0.8726  1.3230 -3.0204
  163SAPE   H5Y18353   3.475   0.499   7.429 -0.5342 -0.6615  1.3913
  163SAPE   C3618354   3.425   0.622   7.601  1.0947  0.2875  0.5590
  163SAPE   H6X18355   3.316   0.603   7.607  1.4825 -2.3798  0.4620
  163SAPE   H6Y18356   3.424   0.728   7.634 -2.2263  0.4763  0.1660
  163SAPE   C3718357   3.508   0.542   7.697 -0.0501 -0.5028  0.2441
  163SAPE   H7X18358   3.609   0.586   7.686 -1.1948  1.7754 -2.2664
  163SAPE   H7Y18359   3.509   0.435   7.670 -2.0380 -0.9000  1.5648
  163SAPE   C3818360   3.470   0.569   7.849 -0.0659 -0.0072  0.3279
  163SAPE   H8X18361   3.451   0.679   7.851 -0.7729 -0.1310  0.9606
  163SAPE   H8Y18362   3.555   0.534   7.910  1.5073  1.4518 -0.9310
  163SAPE   C3918363   3.357   0.486   7.907  0.4399  0.2377 -0.0924
  163SAPE   H9X18364   3.382   0.385   7.867  1.2085  0.6490 -0.6762
  163SAPE   H9Y18365   3.260   0.516   7.863 -0.4258 -1.5765  0.4596
  163SAPE  C31018366   3.336   0.489   8.058  0.2056 -0.3238  0.3723
  163SAPE  H10X18367   3.251   0.422   8.086 -0.9641  0.6722 -0.6995
  163SAPE  H10Y18368   3.309   0.592   8.090 -1.6001 -0.2370 -1.2765
  163SAPE  C31118369   3.457   0.458   8.134  0.1186  0.8201 -0.4036
  163SAPE  H11X18370   3.534   0.536   8.114 -0.3907  1.1089 -1.3167
  163SAPE  H11Y18371   3.505   0.361   8.111 -0.5025  0.4215 -0.0352
  163SAPE  C31218372   3.434   0.450   8.285  0.5615  0.1624 -0.4099
  163SAPE  H12X18373   3.386   0.354   8.314  1.2637  0.6017  2.5451
  163SAPE  H12Y18374   3.383   0.541   8.323  2.4851  0.4222  1.7784
  163SAPE  C31318375   3.567   0.451   8.363 -0.2042  0.0153 -0.3181
  163SAPE  H13X18376   3.639   0.528   8.331  0.9603 -1.9537 -2.7563
  163SAPE  H13Y18377   3.628   0.361   8.343 -0.7202  0.1885 -3.1523
  163SAPE  C31418378   3.544   0.484   8.508  0.2476 -0.0968  0.3051
  163SAPE  H14X18379   3.456   0.423   8.539  0.9927 -1.8271 -0.8664
  163SAPE  H14Y18380   3.515   0.590   8.527 -0.1338  0.6761 -3.7651
  163SAPE  C31518381   3.664   0.451   8.601  0.1881 -0.0631 -0.6336
  163SAPE  H15X18382   3.629   0.494   8.697 -0.5364  0.0969 -0.9659
  163SAPE  H15Y18383   3.746   0.516   8.565 -1.6123  2.0413 -1.1284
  163SAPE  C31618384   3.701   0.302   8.613  0.0315  0.1557  0.6978
  163SAPE  H16X18385   3.731   0.260   8.515 -3.9799 -1.1840 -0.1540
  163SAPE  H16Y18386   3.621   0.230   8.641  0.1487  0.2059  1.1874
  163SAPE  C31718387   3.826   0.290   8.706 -0.1393 -0.3310 -0.2125
  163SAPE  H17X18388   3.782   0.339   8.795 -1.9693  0.9738 -1.7450
  163SAPE  H17Y18389   3.908   0.355   8.668 -0.1569  1.0108  1.8776
  163SAPE  C31818390   3.863   0.144   8.745 -0.1942  0.7898  0.3302
  163SAPE  H18X18391   3.895   0.098   8.650 -2.0214  0.8074 -0.3417
  163SAPE  H18Y18392   3.780   0.080   8.781  0.6066 -1.1060 -1.0662
  163SAPE  H18Z18393   3.957   0.144   8.805  0.0697  0.7300 -0.0840
  164SAPE     N18394   0.321   4.049   6.146  0.1696 -0.0406  0.1683
  164SAPE   HN118395   0.295   3.952   6.173 -1.7129 -0.3917 -2.5142
  164SAPE   HN218396   0.236   4.097   6.180 -2.2240 -2.0393 -2.5368
  164SAPE   HN318397   0.320   4.067   6.044 -1.3108 -0.6457  0.0552
  164SAPE   C1218398   0.438   4.111   6.209  0.3649  0.6982  0.0773
  164SAPE  H12A18399   0.519   4.122   6.134  1.3277 -0.3086  0.9449
  164SAPE  H12B18400   0.470   4.044   6.292  2.5618  0.6110 -0.7763
  164SAPE   C1118401   0.391   4.243   6.258  0.3586  0.1360 -0.3810
  164SAPE  H11A18402   0.470   4.297   6.315  0.7491 -0.3481 -0.4521
  164SAPE  H11B18403   0.307   4.236   6.331  0.4551 -1.7520 -0.3954
  164SAPE     P18404   0.443   4.402   6.065 -0.0603  0.0754  0.3582
  164SAPE   O1318405   0.555   4.312   6.032 -0.0797  0.5050  0.0057
  164SAPE   O1418406   0.375   4.462   5.952  0.4734 -0.2310 -0.2141
  164SAPE   O1218407   0.340   4.326   6.154 -0.3526 -0.0904  0.9059
  164SAPE   O1118408   0.506   4.509   6.161 -0.3473  0.9090 -0.6947
  164SAPE    C118409   0.433   4.593   6.256 -0.2696  0.3928 -0.0147
  164SAPE    HA18410   0.401   4.686   6.204  1.2824 -0.0735 -1.9186
  164SAPE    HB18411   0.340   4.538   6.282 -0.9434  1.0517 -1.0029
  164SAPE    C218412   0.519   4.628   6.380  0.2890  0.3127  0.3080
  164SAPE    HS18413   0.569   4.531   6.398  0.8520  0.2578 -1.3573
  164SAPE   O2118414   0.442   4.679   6.491  0.1917  0.2480 -0.2177
  164SAPE   C2118415   0.406   4.587   6.580 -0.1109 -0.7366 -0.4241
  164SAPE   O2218416   0.442   4.470   6.580  0.9656 -0.1758  0.3126
  164SAPE   C2218417   0.306   4.638   6.688 -0.9969  0.2474  0.9342
  164SAPE   H2R18418   0.296   4.748   6.676  0.6229  0.3435  0.2060
  164SAPE   H2S18419   0.207   4.591   6.676 -1.8576  2.2143 -0.1347
  164SAPE    C318420   0.633   4.723   6.342 -0.1533 -0.4385 -0.2430
  164SAPE    HX18421   0.594   4.816   6.295  3.0785  0.4949 -1.3921
  164SAPE    HY18422   0.702   4.677   6.267 -0.5560 -3.3379  1.0134
  164SAPE   O3118423   0.702   4.779   6.462 -0.0761  0.3904  0.0890
  164SAPE   C3118424   0.785   4.697   6.515  0.5138  0.7223  0.2685
  164SAPE   O3218425   0.811   4.580   6.483  0.7402  0.3216  0.0959
  164SAPE   C3218426   0.826   4.762   6.650 -0.1094 -0.0819  0.5463
  164SAPE   H2X18427   0.739   4.790   6.714 -0.4001 -2.3236  1.1968
  164SAPE   H2Y18428   0.880   4.851   6.612  0.4900 -1.1139 -1.0749
  164SAPE   C2318429   0.360   4.605   6.833  0.1636  0.3728  0.0037
  164SAPE   H3R18430   0.427   4.685   6.869  1.1546 -0.9112  1.1089
  164SAPE   H3S18431   0.416   4.509   6.833  0.8909  0.6794  3.3505
  164SAPE   C2418432   0.239   4.600   6.931  0.0440  1.1284 -0.5952
  164SAPE   H4R18433   0.180   4.506   6.925 -1.5969  2.0220  0.6497
  164SAPE   H4S18434   0.162   4.676   6.908  0.1231  0.9401 -1.5083
  164SAPE   C2518435   0.291   4.620   7.074 -0.4824 -0.1313 -0.0483
  164SAPE   H5R18436   0.297   4.729   7.087 -1.6211 -0.1402  0.7335
  164SAPE   C2618437   0.328   4.524   7.167 -0.1205 -0.4753  0.9047
  164SAPE   H6R18438   0.355   4.547   7.271 -0.1733 -0.1753  0.8518
  164SAPE   C2718439   0.316   4.372   7.140  1.0640  0.1823 -0.0594
  164SAPE   H7R18440   0.223   4.339   7.088 -0.0476  0.3944  1.6889
  164SAPE   H7S18441   0.300   4.334   7.243 -0.6533  1.4241  0.1869
  164SAPE   C2818442   0.437   4.304   7.088 -0.1275  0.0241  0.0552
  164SAPE   H8R18443   0.530   4.361   7.101  0.7396 -1.0379 -1.2550
  164SAPE   C2918444   0.448   4.203   6.997  0.0673  0.4282 -0.6608
  164SAPE   H9R18445   0.552   4.175   6.976  1.7325  2.0823  3.9738
  164SAPE  C21018446   0.328   4.125   6.949 -0.0549  0.2461  0.3682
  164SAPE  H10R18447   0.296   4.174   6.855  0.8983  1.3747  0.6050
  164SAPE  H10S18448   0.240   4.142   7.016  0.1483 -0.0312  0.7109
  164SAPE  C21118449   0.350   3.975   6.928  0.1929 -0.5165 -0.1190
  164SAPE  H11R18450   0.361   3.941   6.824  0.5881 -1.0764  0.1034
  164SAPE  C21218451   0.369   3.890   7.039  0.0909 -0.4056  0.0573
  164SAPE  H12R18452   0.400   3.787   7.015  2.1842 -0.0152  0.8831
  164SAPE  C21318453   0.356   3.931   7.185  0.1143 -0.2267  0.3604
  164SAPE  H13R18454   0.273   4.005   7.184 -1.9388 -2.4152 -1.1312
  164SAPE  H13S18455   0.447   3.990   7.209 -1.1152  2.1236 -0.3993
  164SAPE  C21418456   0.331   3.830   7.293 -0.4232  0.2171 -0.0363
  164SAPE  H14R18457   0.277   3.740   7.260 -1.1515 -0.0324  1.6874
  164SAPE  C21518458   0.370   3.838   7.424  0.2829 -0.1791  1.3472
  164SAPE  H15R18459   0.361   3.742   7.477 -2.4671  0.2196  1.7224
  164SAPE  C21618460   0.450   3.950   7.489 -0.1940  0.6420  0.0893
  164SAPE  H16R18461   0.415   4.046   7.445  0.2958  2.5668  3.5002
  164SAPE  H16S18462   0.559   3.941   7.469  0.0144  3.3640 -0.4785
  164SAPE  C21718463   0.419   3.953   7.639  0.7622 -1.0941  0.5167
  164SAPE  H17R18464   0.448   3.856   7.686  2.5902  0.2244  2.2602
  164SAPE  H17S18465   0.309   3.959   7.656  0.8881 -0.8773  1.3403
  164SAPE  C21818466   0.498   4.052   7.722 -0.3973 -0.7442 -0.4923
  164SAPE  H18R18467   0.605   4.019   7.724  0.3653  1.5266 -1.1615
  164SAPE  H18S18468   0.465   4.053   7.827  3.0436 -0.4587  0.7284
  164SAPE  C21918469   0.488   4.197   7.664 -0.9244  0.7913  0.0440
  164SAPE  H19R18470   0.530   4.190   7.562 -0.6482  0.1467  0.1937
  164SAPE  H19S18471   0.553   4.255   7.734  0.1269  0.5750 -0.7287
  164SAPE  C22018472   0.340   4.251   7.652 -0.2925 -0.3587  0.3382
  164SAPE  H20R18473   0.291   4.262   7.751  2.5853  0.6359  1.7433
  164SAPE  H20S18474   0.281   4.187   7.583  2.1986 -1.3378 -1.0019
  164SAPE  H20T18475   0.342   4.357   7.618 -0.4801 -0.0316  1.3286
  164SAPE   C3318476   0.914   4.659   6.720 -0.6900 -0.6993 -0.1481
  164SAPE   H3X18477   1.009   4.646   6.665 -0.9756  1.0523 -1.1280
  164SAPE   H3Y18478   0.862   4.561   6.729  1.7316 -2.0606 -0.2110
  164SAPE   C3418479   0.941   4.704   6.868 -0.0304 -0.2703 -0.3005
  164SAPE   H4X18480   0.985   4.806   6.872  0.1042 -0.1784 -2.8085
  164SAPE   H4Y18481   1.018   4.635   6.906 -1.8948 -1.7309  1.0188
  164SAPE   C3518482   0.815   4.701   6.957 -0.1602  0.0115  0.1674
  164SAPE   H5X18483   0.751   4.613   6.934  1.7938 -2.1460  2.4397
  164SAPE   H5Y18484   0.748   4.788   6.937  0.1292  0.1856 -0.0514
  164SAPE   C3618485   0.842   4.703   7.115  0.7142 -0.3543  0.6065
  164SAPE   H6X18486   0.860   4.808   7.147 -0.0774  0.1234 -0.4532
  164SAPE   H6Y18487   0.921   4.635   7.152  0.4670 -0.2459  1.3459
  164SAPE   C3718488   0.714   4.660   7.194 -0.1061 -0.2218  0.1909
  164SAPE   H7X18489   0.707   4.549   7.187 -1.7266 -0.0694 -1.1707
  164SAPE   H7Y18490   0.630   4.714   7.146 -0.7748 -2.0133 -0.7718
  164SAPE   C3818491   0.729   4.687   7.344 -0.2667 -0.2332  0.7469
  164SAPE   H8X18492   0.711   4.796   7.350  0.0076 -0.1776  0.5740
  164SAPE   H8Y18493   0.834   4.669   7.376  0.2521  0.8856 -0.2358
  164SAPE   C3918494   0.634   4.605   7.435  0.3197  0.3753 -0.7454
  164SAPE   H9X18495   0.657   4.497   7.436  0.6047  0.4179  0.7221
  164SAPE   H9Y18496   0.525   4.610   7.414  0.3866 -0.0173 -1.1900
  164SAPE  C31018497   0.669   4.635   7.581 -0.0597  0.5385 -0.9138
  164SAPE  H10X18498   0.618   4.734   7.590 -2.0733 -0.5410  0.4264
  164SAPE  H10Y18499   0.777   4.654   7.597  0.1186 -1.1005 -0.0572
  164SAPE  C31118500   0.626   4.533   7.691 -0.5066 -0.4618 -0.1091
  164SAPE  H11X18501   0.701   4.455   7.715  1.5606  1.9858  2.0609
  164SAPE  H11Y18502   0.533   4.486   7.652 -1.3349  1.0485 -0.0340
  164SAPE  C31218503   0.601   4.595   7.828 -0.3068  0.2974 -0.2801
  164SAPE  H12X18504   0.528   4.527   7.878  0.1764 -1.4380 -1.8195
  164SAPE  H12Y18505   0.542   4.687   7.804 -0.3323  0.3685  0.0441
  164SAPE  C31318506   0.736   4.621   7.899 -0.1084  0.2387 -0.6097
  164SAPE  H13X18507   0.806   4.676   7.833  0.0206 -2.0012 -2.4779
  164SAPE  H13Y18508   0.786   4.522   7.900  2.7908  1.5931 -1.1336
  164SAPE  C31418509   0.730   4.676   8.041 -0.3164 -0.0852 -0.5864
  164SAPE  H14X18510   0.637   4.732   8.064 -0.0630 -0.0563  0.3957
  164SAPE  H14Y18511   0.812   4.751   8.052 -0.7517  0.1198  1.5372
  164SAPE  C31518512   0.751   4.565   8.149 -0.3218  0.3579 -0.0415
  164SAPE  H15X18513   0.850   4.522   8.123 -0.0110  1.2252 -0.3385
  164SAPE  H15Y18514   0.682   4.478   8.145  0.6981 -0.4460 -1.3726
  164SAPE  C31618515   0.755   4.622   8.297 -0.0546 -0.1562 -0.4379
  164SAPE  H16X18516   0.658   4.669   8.322 -0.7311 -2.5244  1.7636
  164SAPE  H16Y18517   0.825   4.709   8.290  0.0967 -0.1222  1.2703
  164SAPE  C31718518   0.799   4.529   8.410 -0.0960 -0.4424 -0.2586
  164SAPE  H17X18519   0.881   4.464   8.373  1.7586  1.9198 -0.5553
  164SAPE  H17Y18520   0.718   4.457   8.432  1.6458 -2.2571  0.4729
  164SAPE  C31818521   0.849   4.605   8.531  0.0512  0.5681  0.2233
  164SAPE  H18X18522   0.762   4.659   8.573  0.0688  2.3291 -1.8369
  164SAPE  H18Y18523   0.916   4.686   8.495  1.2187 -1.3712 -2.2360
  164SAPE  H18Z18524   0.900   4.541   8.606  1.7501  0.5300 -0.8993
  165SAPE     N18525   0.183   1.002   6.414  0.8376  0.0204 -0.1423
  165SAPE   HN118526   0.269   1.046   6.453  1.6280 -0.9961 -0.6540
  165SAPE   HN218527   0.170   0.911   6.463  2.9203 -0.0080  0.4671
  165SAPE   HN318528   0.211   0.980   6.316 -0.8499 -1.1718 -0.3985
  165SAPE   C1218529   0.074   1.098   6.431 -0.3578 -0.4680  0.2232
  165SAPE  H12A18530   0.003   1.060   6.507 -1.2603  1.1210  0.2226
  165SAPE  H12B18531   0.021   1.112   6.334 -0.6635 -0.1143  0.4384
  165SAPE   C1118532   0.123   1.242   6.480 -0.6033 -0.1668  0.0390
  165SAPE  H11A18533   0.142   1.228   6.588 -2.6917 -1.1683  0.3293
  165SAPE  H11B18534   0.049   1.323   6.466  0.3019  0.6296 -0.1793
  165SAPE     P18535   0.318   1.415   6.428 -0.0248 -0.0666  0.2382
  165SAPE   O1318536   0.461   1.401   6.383  0.2004  0.3131 -0.2382
  165SAPE   O1418537   0.258   1.514   6.342 -0.1753 -0.0476  0.2438
  165SAPE   O1218538   0.244   1.276   6.411 -0.5564  0.0810 -0.2631
  165SAPE   O1118539   0.305   1.452   6.577 -0.2392 -0.3450 -0.2158
  165SAPE    C118540   0.361   1.369   6.674 -0.1185 -0.1770 -0.1216
  165SAPE    HA18541   0.335   1.261   6.667  0.1509 -0.3278  1.0287
  165SAPE    HB18542   0.471   1.364   6.660  0.0035  1.8293 -0.2161
  165SAPE    C218543   0.318   1.419   6.814 -0.5765 -0.6317 -0.3231
  165SAPE    HS18544   0.209   1.427   6.797 -0.4544  0.3488 -0.6885
  165SAPE   O2118545   0.390   1.535   6.841 -0.2745 -0.7760  0.0710
  165SAPE   C2118546   0.327   1.645   6.880  0.5711  0.8938  0.5210
  165SAPE   O2218547   0.209   1.649   6.910  0.0756  0.0871  0.3254
  165SAPE   C2218548   0.429   1.753   6.881  0.4850 -0.1813  0.0097
  165SAPE   H2R18549   0.481   1.768   6.784  1.1861  1.9044  0.6616
  165SAPE   H2S18550   0.379   1.852   6.887  0.4875  0.0368 -2.4591
  165SAPE    C318551   0.345   1.318   6.924 -0.5419 -0.2079 -0.3292
  165SAPE    HX18552   0.456   1.316   6.926 -0.5611 -0.8436  1.0160
  165SAPE    HY18553   0.309   1.217   6.895  0.9031 -0.7259 -0.3804
  165SAPE   O3118554   0.310   1.365   7.064 -0.3450 -0.0369  0.3587
  165SAPE   C3118555   0.376   1.306   7.156  0.0275 -0.6490 -0.3280
  165SAPE   O3218556   0.459   1.217   7.145  0.4789 -0.2083  0.3648
  165SAPE   C3218557   0.303   1.364   7.280  0.3576  0.0178  0.3987
  165SAPE   H2X18558   0.209   1.308   7.296  1.2591 -1.5187  0.5387
  165SAPE   H2Y18559   0.284   1.471   7.256  2.1078  0.3521  0.3271
  165SAPE   C2318560   0.535   1.722   6.977 -0.0172  1.2345 -0.7298
  165SAPE   H3R18561   0.611   1.801   6.963  1.0916  0.3195 -0.0489
  165SAPE   H3S18562   0.578   1.620   6.970 -1.3940  0.3897  1.7765
  165SAPE   C2418563   0.487   1.732   7.125 -0.6731  0.7061  0.2437
  165SAPE   H4R18564   0.402   1.663   7.142 -1.0782  1.3371  0.8708
  165SAPE   H4S18565   0.452   1.837   7.130 -0.5339  0.9650 -2.5442
  165SAPE   C2518566   0.603   1.712   7.227 -0.6321  0.6046 -0.1140
  165SAPE   H5R18567   0.693   1.672   7.177 -2.5519 -1.2489 -2.4018
  165SAPE   C2618568   0.610   1.748   7.353  0.6237 -0.0340 -0.1390
  165SAPE   H6R18569   0.689   1.720   7.424  0.5017 -1.7309 -0.6448
  165SAPE   C2718570   0.502   1.829   7.417  0.4227  0.5424  0.6054
  165SAPE   H7R18571   0.432   1.752   7.455 -0.2503 -1.0519 -3.3265
  165SAPE   H7S18572   0.440   1.883   7.343  1.7817  0.4067 -0.6835
  165SAPE   C2818573   0.529   1.934   7.523 -0.4926  0.4989 -0.0040
  165SAPE   H8R18574   0.544   2.035   7.482 -1.2470  0.3439 -0.6861
  165SAPE   C2918575   0.553   1.907   7.655 -0.0707  0.3473  0.8400
  165SAPE   H9R18576   0.587   1.985   7.725  0.8156  0.8860 -0.1516
  165SAPE  C21018577   0.559   1.777   7.714 -0.0403  0.4689 -0.3186
  165SAPE  H10R18578   0.563   1.691   7.643 -3.7547 -1.4320  1.4908
  165SAPE  H10S18579   0.465   1.775   7.773  1.0212  0.3990  1.4137
  165SAPE  C21118580   0.663   1.757   7.821 -0.5411  0.2526 -0.2080
  165SAPE  H11R18581   0.620   1.762   7.923 -1.0269  2.7843 -0.4685
  165SAPE  C21218582   0.792   1.720   7.808 -0.2682  0.2053  0.2878
  165SAPE  H12R18583   0.843   1.702   7.903 -1.8455  0.8000  1.2731
  165SAPE  C21318584   0.862   1.694   7.679 -0.5122  0.2480 -0.5070
  165SAPE  H13R18585   0.816   1.753   7.597  0.8512  1.8297 -0.2035
  165SAPE  H13S18586   0.863   1.585   7.659 -1.4846 -0.2641  1.9410
  165SAPE  C21418587   1.009   1.741   7.685  0.1383  0.5264 -0.0073
  165SAPE  H14R18588   1.072   1.686   7.757  1.3717 -2.8960 -3.3991
  165SAPE  C21518589   1.059   1.839   7.617 -0.4066  0.3535  0.0873
  165SAPE  H15R18590   1.168   1.851   7.628  0.0206 -2.8767  0.3607
  165SAPE  C21618591   0.985   1.915   7.515  0.4055 -0.5790 -0.2670
  165SAPE  H16R18592   1.035   2.011   7.495 -2.1671  0.9466  0.1350
  165SAPE  H16S18593   0.885   1.951   7.547 -0.3517 -0.1654 -2.8207
  165SAPE  C21718594   0.964   1.845   7.375 -0.1067 -0.4128  0.1543
  165SAPE  H17R18595   0.927   1.931   7.315  2.5709 -0.9426 -2.4590
  165SAPE  H17S18596   0.891   1.761   7.379  0.5278 -0.9373  1.1717
  165SAPE  C21818597   1.101   1.808   7.313 -0.3103  0.2105  0.4535
  165SAPE  H18R18598   1.151   1.728   7.371 -0.2079 -1.0729 -1.3002
  165SAPE  H18S18599   1.160   1.902   7.319 -2.4568  1.6765 -0.0405
  165SAPE  C21918600   1.105   1.764   7.166 -0.5040 -0.5484 -0.0699
  165SAPE  H19R18601   1.080   1.852   7.103  0.9763 -0.1201 -0.0970
  165SAPE  H19S18602   1.014   1.699   7.167 -1.1521  0.3410  0.4703
  165SAPE  C22018603   1.232   1.693   7.127 -0.5549 -0.0758  0.3750
  165SAPE  H20R18604   1.320   1.756   7.149 -1.2191  0.8074  0.5549
  165SAPE  H20S18605   1.243   1.680   7.017  0.8422  0.6794  0.3978
  165SAPE  H20T18606   1.251   1.597   7.180 -2.6202 -0.8515 -0.1882
  165SAPE   C3318607   0.396   1.373   7.404  0.1663  0.9502 -0.2354
  165SAPE   H3X18608   0.476   1.449   7.394  2.5850 -1.0512  2.2127
  165SAPE   H3Y18609   0.448   1.275   7.417 -0.4463  0.8518  1.9449
  165SAPE   C3418610   0.325   1.394   7.541  0.0939 -0.5834 -0.9913
  165SAPE   H4X18611   0.244   1.320   7.563  0.8774 -0.4422  3.3414
  165SAPE   H4Y18612   0.275   1.492   7.549  0.2114 -0.6871  3.1270
  165SAPE   C3518613   0.420   1.383   7.661 -0.1782  0.2509  0.2461
  165SAPE   H5X18614   0.501   1.458   7.663 -0.2887  0.3620  2.3753
  165SAPE   H5Y18615   0.470   1.286   7.642 -1.9852 -0.2208 -2.8112
  165SAPE   C3618616   0.348   1.375   7.798 -0.1830  0.1810 -0.0668
  165SAPE   H6X18617   0.322   1.269   7.816 -1.3308  0.4011 -0.3366
  165SAPE   H6Y18618   0.249   1.421   7.777  0.7258  2.0502 -0.5202
  165SAPE   C3718619   0.435   1.445   7.911 -0.2870  0.2622 -0.2960
  165SAPE   H7X18620   0.464   1.544   7.871  1.8943  0.9568  2.6288
  165SAPE   H7Y18621   0.524   1.379   7.926 -0.6271 -0.0839  0.2782
  165SAPE   C3818622   0.366   1.473   8.040 -0.1563  0.0588 -0.2641
  165SAPE   H8X18623   0.298   1.388   8.062 -0.6008  0.2196 -0.9510
  165SAPE   H8Y18624   0.288   1.549   8.019 -1.3489 -0.8809  0.6057
  165SAPE   C3918625   0.452   1.535   8.152  0.1611  1.5039  0.1830
  165SAPE   H9X18626   0.525   1.612   8.118  2.6824 -0.5767  0.5989
  165SAPE   H9Y18627   0.508   1.451   8.197 -3.0140 -1.7910 -1.5284
  165SAPE  C31018628   0.362   1.599   8.263 -0.3895 -0.2771 -0.2157
  165SAPE  H10X18629   0.275   1.537   8.295 -0.6228  0.7052  1.1707
  165SAPE  H10Y18630   0.328   1.701   8.235 -1.6924  0.0913  2.3927
  165SAPE  C31118631   0.438   1.610   8.395  0.1680 -0.4558 -0.0985
  165SAPE  H11X18632   0.505   1.524   8.419  0.1899  0.0903  2.0697
  165SAPE  H11Y18633   0.372   1.609   8.484  2.0527  1.7654  1.4478
  165SAPE  C31218634   0.526   1.735   8.405 -0.2210 -0.3617  0.2534
  165SAPE  H12X18635   0.463   1.821   8.436 -0.7375 -1.2085  1.6180
  165SAPE  H12Y18636   0.559   1.764   8.303  0.4319  0.3061  0.6458
  165SAPE  C31318637   0.653   1.725   8.478  0.3143  0.7297  0.3116
  165SAPE  H13X18638   0.723   1.657   8.426  0.0379  2.7456 -3.0010
  165SAPE  H13Y18639   0.633   1.671   8.573  0.1548  0.7741  0.3036
  165SAPE  C31418640   0.718   1.854   8.515 -0.1649 -0.5449  0.0873
  165SAPE  H14X18641   0.647   1.915   8.574  0.1942  2.3942 -2.2754
  165SAPE  H14Y18642   0.735   1.913   8.422 -0.8473 -0.3635  0.0707
  165SAPE  C31518643   0.848   1.837   8.604  0.0789  0.0767 -0.1504
  165SAPE  H15X18644   0.848   1.749   8.673  0.6307 -0.2033 -0.4989
  165SAPE  H15Y18645   0.861   1.932   8.660  2.6506 -0.3742  0.1349
  165SAPE  C31618646   0.972   1.809   8.516 -0.2266 -0.6818 -0.1954
  165SAPE  H16X18647   0.969   1.880   8.431 -1.3308  1.8048  1.8059
  165SAPE  H16Y18648   0.973   1.704   8.478 -0.6242 -0.5510 -0.5753
  165SAPE  C31718649   1.099   1.836   8.601 -0.0168  0.4410 -0.1412
  165SAPE  H17X18650   1.097   1.780   8.697  0.0908  2.0622  0.8422
  165SAPE  H17Y18651   1.102   1.943   8.630 -2.2678 -0.0314  2.2442
  165SAPE  C31818652   1.236   1.797   8.546 -0.1885 -0.3886  1.0890
  165SAPE  H18X18653   1.266   1.842   8.449 -3.4570 -0.9869 -0.3067
  165SAPE  H18Y18654   1.242   1.687   8.528  1.0272 -0.2942  0.8259
  165SAPE  H18Z18655   1.323   1.822   8.611  0.4851  0.8851 -0.2606
  166SAPE     N18656   5.004   4.809   6.295 -0.0117  0.3830 -0.2794
  166SAPE   HN118657   5.037   4.785   6.391 -1.6270 -0.2421  0.1549
  166SAPE   HN218658   5.011   4.913   6.296  1.2734  0.3982 -2.6969
  166SAPE   HN318659   4.910   4.764   6.284  0.0888 -0.8916  2.9546
  166SAPE   C1218660   5.089   4.743   6.185  0.2754  0.5069 -0.3952
  166SAPE  H12A18661   5.040   4.761   6.087 -1.2660  2.6806  0.6906
  166SAPE  H12B18662   5.097   4.633   6.200  1.1667  0.5173 -0.7367
  166SAPE   C1118663   5.233   4.803   6.179 -0.6078  0.6676  0.5198
  166SAPE  H11A18664   5.267   4.805   6.284  0.3209 -0.0269  0.2439
  166SAPE  H11B18665   5.244   4.908   6.143 -0.0330  1.5744  3.1511
  166SAPE     P18666   5.470   4.729   6.126 -0.1982 -0.3735 -0.2761
  166SAPE   O1318667   5.546   4.633   6.045 -0.3269 -0.4041 -0.1480
  166SAPE   O1418668   5.505   4.871   6.105  0.1008 -0.1705 -0.1337
  166SAPE   O1218669   5.314   4.711   6.094 -0.1448 -0.4693 -0.4654
  166SAPE   O1118670   5.484   4.703   6.278  0.1703  0.2835 -0.4063
  166SAPE    C118671   5.470   4.565   6.321 -0.3516 -0.1278 -0.1284
  166SAPE    HA18672   5.372   4.521   6.294  0.4469 -0.7624 -2.1966
  166SAPE    HB18673   5.547   4.499   6.275 -0.1464 -0.0543  0.1035
  166SAPE    C218674   5.512   4.549   6.467 -0.2035  0.1458  0.4192
  166SAPE    HS18675   5.622   4.565   6.469 -0.4631  2.2940 -0.2320
  166SAPE   O2118676   5.469   4.420   6.516  0.3684 -0.0904  0.1839
  166SAPE   C2118677   5.541   4.314   6.484 -0.0869  0.4186  0.7541
  166SAPE   O2218678   5.639   4.304   6.410 -0.6074 -0.2325  0.1436
  166SAPE   C2218679   5.484   4.195   6.559 -0.3061 -0.4202  0.6304
  166SAPE   H2R18680   5.400   4.158   6.497  0.0764  0.3400 -0.3524
  166SAPE   H2S18681   5.561   4.115   6.551  1.4188  1.1895  0.5198
  166SAPE    C318682   5.456   4.665   6.554 -0.1568  0.3512  0.7898
  166SAPE    HX18683   5.345   4.670   6.549 -0.0983  0.8340 -0.1132
  166SAPE    HY18684   5.492   4.760   6.510 -0.2120  0.6561  1.3871
  166SAPE   O3118685   5.509   4.656   6.686  0.3293 -0.2060 -0.2042
  166SAPE   C3118686   5.433   4.598   6.775 -0.7451  0.0455 -0.1992
  166SAPE   O3218687   5.323   4.551   6.750  0.6671 -0.1500 -0.4983
  166SAPE   C3218688   5.507   4.573   6.913 -0.3140 -0.2789  0.8063
  166SAPE   H2X18689   5.574   4.661   6.922 -1.2015  0.3775  1.1174
  166SAPE   H2Y18690   5.569   4.482   6.896 -0.0463 -0.4680  2.5959
  166SAPE   C2318691   5.443   4.232   6.702  0.4880  0.7501  0.2877
  166SAPE   H3R18692   5.358   4.303   6.696  1.1379  1.6167  1.0931
  166SAPE   H3S18693   5.519   4.284   6.764 -0.3741 -0.9990  3.0599
  166SAPE   C2418694   5.401   4.109   6.779  0.6046  0.8207  0.0529
  166SAPE   H4R18695   5.384   4.142   6.883 -1.5346 -2.4676  0.9116
  166SAPE   H4S18696   5.484   4.036   6.776 -1.1841 -1.4442  1.8711
  166SAPE   C2518697   5.272   4.044   6.714  0.2028  0.4139 -0.6714
  166SAPE   H5R18698   5.261   4.053   6.605  3.5144 -0.1737 -1.1683
  166SAPE   C2618699   5.172   3.983   6.784 -0.4636  0.4745  0.5789
  166SAPE   H6R18700   5.092   3.940   6.723  0.5226  0.8187 -1.0385
  166SAPE   C2718701   5.161   3.950   6.930  0.0722 -0.0359  0.0909
  166SAPE   H7R18702   5.253   3.910   6.976 -0.7825 -1.5023  0.5868
  166SAPE   H7S18703   5.084   3.872   6.946 -2.4018  2.3340  0.6116
  166SAPE   C2818704   5.123   4.069   7.022  0.0438 -0.2612  0.0993
  166SAPE   H8R18705   5.088   4.165   6.981  1.1639  0.7664  1.4503
  166SAPE   C2918706   5.119   4.067   7.161  0.2938  0.5154  0.3992
  166SAPE   H9R18707   5.095   4.157   7.219  1.2751  0.6491  0.6239
  166SAPE  C21018708   5.170   3.959   7.260  0.5982  0.0747  0.5745
  166SAPE  H10R18709   5.235   4.013   7.333  1.3261  0.9593 -0.6908
  166SAPE  H10S18710   5.245   3.894   7.211 -1.8422 -1.0528 -1.8850
  166SAPE  C21118711   5.055   3.885   7.323  0.1203 -0.0441 -0.5465
  166SAPE  H11R18712   4.975   3.847   7.257 -1.0723  0.9760  0.2627
  166SAPE  C21218713   5.044   3.874   7.459  0.4370 -0.1916  0.5498
  166SAPE  H12R18714   4.961   3.815   7.502  0.7534 -1.1173 -0.0627
  166SAPE  C21318715   5.141   3.926   7.555  0.0836 -0.1804  0.4924
  166SAPE  H13R18716   5.244   3.909   7.517 -1.5149 -2.4058 -3.4549
  166SAPE  H13S18717   5.136   3.867   7.649 -1.3464  0.3418  0.7728
  166SAPE  C21418718   5.113   4.068   7.584 -0.0513 -0.4166 -0.4213
  166SAPE  H14R18719   5.150   4.138   7.508  2.1213 -0.5339  0.4642
  166SAPE  C21518720   5.042   4.123   7.687 -0.4431  0.1279 -0.1857
  166SAPE  H15R18721   5.017   4.229   7.694 -0.5467  0.0698  0.3457
  166SAPE  C21618722   4.981   4.044   7.800  0.8021  0.4570 -0.1057
  166SAPE  H16R18723   5.031   3.945   7.811 -0.5417 -0.0539  2.1246
  166SAPE  H16S18724   4.872   4.024   7.792  0.7180  0.6288  0.5585
  166SAPE  C21718725   5.007   4.112   7.935 -0.3491 -0.3869 -0.4300
  166SAPE  H17R18726   4.975   4.219   7.940  0.9005 -0.0460  0.8950
  166SAPE  H17S18727   5.117   4.114   7.949 -0.2959  2.4602 -0.6764
  166SAPE  C21818728   4.953   4.045   8.053  0.1673 -0.3984 -0.9778
  166SAPE  H18R18729   4.995   3.943   8.064  2.5160  0.5700 -0.2612
  166SAPE  H18S18730   4.842   4.047   8.059  0.2416 -0.2566  1.4518
  166SAPE  C21918731   4.994   4.109   8.191 -0.5558  0.0414  0.0588
  166SAPE  H19R18732   4.938   4.204   8.197  0.5458  0.6786  0.4945
  166SAPE  H19S18733   5.103   4.132   8.187 -1.0960  2.8916  0.2897
  166SAPE  C22018734   4.971   4.025   8.321  0.7240 -0.0895 -0.3815
  166SAPE  H20R18735   4.998   3.921   8.291 -1.3377 -0.1180 -2.3105
  166SAPE  H20S18736   4.864   4.013   8.347  1.0216 -1.0489  0.4700
  166SAPE  H20T18737   5.031   4.057   8.409 -0.5686 -3.2670  1.8552
  166SAPE   C3318738   5.421   4.548   7.037 -0.2005  0.4471  0.0497
  166SAPE   H3X18739   5.351   4.462   7.024  1.0138 -0.7095  0.8408
  166SAPE   H3Y18740   5.357   4.635   7.062 -0.7168  0.3363 -0.8570
  166SAPE   C3418741   5.515   4.508   7.157 -0.2787  0.5372 -0.3093
  166SAPE   H4X18742   5.575   4.599   7.180 -0.7890  1.2306 -1.5824
  166SAPE   H4Y18743   5.594   4.438   7.122 -0.5002  0.4959 -0.7440
  166SAPE   C3518744   5.450   4.445   7.279  0.0549 -0.1804 -0.1800
  166SAPE   H5X18745   5.528   4.391   7.337  0.9921  2.2084  0.9392
  166SAPE   H5Y18746   5.376   4.370   7.244  0.9653 -1.8018  1.2004
  166SAPE   C3618747   5.384   4.550   7.367  0.5811  0.1978  0.1326
  166SAPE   H6X18748   5.327   4.617   7.299  1.6110 -0.5387 -1.5061
  166SAPE   H6Y18749   5.465   4.612   7.413 -1.5275  1.2483  2.7354
  166SAPE   C3718750   5.309   4.490   7.483  0.6545  0.7871 -0.2404
  166SAPE   H7X18751   5.379   4.418   7.530  0.8129  1.6858  0.9461
  166SAPE   H7Y18752   5.227   4.426   7.441  1.1776  0.7331 -1.2110
  166SAPE   C3818753   5.249   4.592   7.574  0.6572 -0.2753  0.1146
  166SAPE   H8X18754   5.172   4.650   7.518 -0.7044 -2.4792 -0.4454
  166SAPE   H8Y18755   5.314   4.673   7.613  0.7672 -0.8623  1.2127
  166SAPE   C3918756   5.172   4.524   7.691  0.6858 -0.1624 -0.2559
  166SAPE   H9X18757   5.117   4.436   7.650 -0.8870 -0.1814  1.7464
  166SAPE   H9Y18758   5.087   4.593   7.711  0.5846 -0.5022  0.4964
  166SAPE  C31018759   5.247   4.515   7.822 -0.4282 -0.7136  0.4047
  166SAPE  H10X18760   5.325   4.593   7.838 -1.7444  1.0590 -1.2613
  166SAPE  H10Y18761   5.302   4.419   7.819 -1.3235 -1.2179 -0.1319
  166SAPE  C31118762   5.150   4.494   7.946 -0.3296 -0.4076  0.0235
  166SAPE  H11X18763   5.087   4.407   7.919 -0.8362 -0.8561  2.4531
  166SAPE  H11Y18764   5.090   4.588   7.951  0.4543  0.0581  0.9059
  166SAPE  C31218765   5.219   4.472   8.083 -0.3626 -0.2934  0.2945
  166SAPE  H12X18766   5.290   4.557   8.094 -0.7766  0.4041 -1.8832
  166SAPE  H12Y18767   5.289   4.385   8.082  1.2790  0.9504  0.7631
  166SAPE  C31318768   5.120   4.460   8.190  0.0676  0.0919 -0.4837
  166SAPE  H13X18769   5.044   4.383   8.165 -1.1762  0.5708  1.6148
  166SAPE  H13Y18770   5.063   4.555   8.185  0.4652  0.2690 -3.1358
  166SAPE  C31418771   5.160   4.429   8.334  0.2211  0.0728  0.6712
  166SAPE  H14X18772   5.228   4.342   8.348 -1.4769 -1.1471  1.7340
  166SAPE  H14Y18773   5.072   4.394   8.392 -2.5091  1.3320 -2.4322
  166SAPE  C31518774   5.220   4.540   8.410  0.3267  0.4281 -0.9375
  166SAPE  H15X18775   5.148   4.622   8.426 -0.6585 -0.6518  0.3855
  166SAPE  H15Y18776   5.301   4.580   8.345 -0.1695  1.4257 -0.9563
  166SAPE  C31618777   5.279   4.488   8.542  0.0369  0.1776  0.0114
  166SAPE  H16X18778   5.374   4.437   8.515 -0.3220  0.7392 -2.6091
  166SAPE  H16Y18779   5.215   4.409   8.586  1.1822 -2.5838 -2.9112
  166SAPE  C31718780   5.329   4.583   8.652 -0.3792 -0.3690  0.1310
  166SAPE  H17X18781   5.249   4.661   8.651  0.1155  0.2096  2.0038
  166SAPE  H17Y18782   5.421   4.634   8.616  0.4689 -1.9076  0.0552
  166SAPE  C31818783   5.343   4.546   8.797 -0.8401 -0.1944  0.5285
  166SAPE  H18X18784   5.351   4.637   8.861 -0.5940  2.1201 -2.5587
  166SAPE  H18Y18785   5.440   4.491   8.801 -0.6058 -0.1260 -2.2948
  166SAPE  H18Z18786   5.265   4.473   8.826 -0.7567 -1.2526 -1.7076
  167SAPE     N18787   1.372   6.028   6.326  0.0238 -0.4905  0.4068
  167SAPE   HN118788   1.466   5.990   6.304  0.1821 -2.2247  3.5751
  167SAPE   HN218789   1.295   5.980   6.275 -1.0203  1.0023  0.4806
  167SAPE   HN318790   1.357   6.122   6.283  1.6623 -0.9138 -1.2307
  167SAPE   C1218791   1.362   6.027   6.480 -0.0741 -0.2649  1.1343
  167SAPE  H12A18792   1.256   6.052   6.501 -0.0515  0.5713  0.2966
  167SAPE  H12B18793   1.426   6.110   6.516  0.1369  0.0393  0.0811
  167SAPE   C1118794   1.388   5.892   6.550  0.4647  0.6915 -0.9614
  167SAPE  H11A18795   1.317   5.817   6.509 -1.5063  2.7558 -1.5907
  167SAPE  H11B18796   1.352   5.910   6.654  0.9006  1.0078 -0.8618
  167SAPE     P18797   1.577   5.757   6.442  0.7081  0.2130  0.1011
  167SAPE   O1318798   1.499   5.629   6.435 -0.0630  0.0713 -0.3849
  167SAPE   O1418799   1.580   5.834   6.312  0.1604  0.3938 -0.0744
  167SAPE   O1218800   1.523   5.852   6.549 -0.4521  0.0959  0.1665
  167SAPE   O1118801   1.724   5.734   6.487  0.2415 -0.2200 -0.2063
  167SAPE    C118802   1.771   5.727   6.622  0.8511  0.0540  0.7557
  167SAPE    HA18803   1.881   5.712   6.627  0.7470 -0.4674  1.7644
  167SAPE    HB18804   1.730   5.815   6.676  0.2709  0.7344 -0.7203
  167SAPE    C218805   1.730   5.596   6.693  0.0371 -0.3655  0.1152
  167SAPE    HS18806   1.713   5.515   6.619 -0.3425 -1.6808  1.5783
  167SAPE   O2118807   1.609   5.622   6.761  0.3475  0.0640  0.0183
  167SAPE   C2118808   1.532   5.518   6.793  0.0859  0.0564  0.6371
  167SAPE   O2218809   1.555   5.401   6.764 -0.1080  0.2227  0.2150
  167SAPE   C2218810   1.418   5.572   6.877  0.1834 -0.2135  0.2015
  167SAPE   H2R18811   1.463   5.653   6.937 -0.1696 -2.3088  3.5499
  167SAPE   H2S18812   1.343   5.609   6.805  0.2771 -0.9321 -0.2880
  167SAPE    C318813   1.827   5.561   6.809  0.6511 -1.2465  0.7098
  167SAPE    HX18814   1.914   5.517   6.756  0.9297  0.0529  0.0631
  167SAPE    HY18815   1.784   5.477   6.867  0.3427 -1.2500  0.4836
  167SAPE   O3118816   1.867   5.672   6.895 -0.2841  0.7727  0.3755
  167SAPE   C3118817   1.789   5.674   7.005 -0.6567  0.3687 -0.0549
  167SAPE   O3218818   1.704   5.589   7.036 -0.2454 -0.6774 -0.2803
  167SAPE   C3218819   1.832   5.804   7.079 -0.2138 -0.4305 -0.2865
  167SAPE   H2X18820   1.801   5.884   7.009 -0.8452  2.7641  3.3484
  167SAPE   H2Y18821   1.942   5.814   7.091 -0.3317 -1.3805  1.9196
  167SAPE   C2318822   1.358   5.459   6.960  0.1366 -0.2553 -1.0034
  167SAPE   H3R18823   1.430   5.404   7.024  0.3744 -1.8282 -2.5420
  167SAPE   H3S18824   1.324   5.379   6.891  0.8214  0.1041 -1.7748
  167SAPE   C2418825   1.232   5.519   7.033 -0.5627 -0.2261 -0.7793
  167SAPE   H4R18826   1.175   5.437   7.082  2.9623 -2.2217  0.2536
  167SAPE   H4S18827   1.166   5.565   6.955  0.8607  2.3229 -0.5716
  167SAPE   C2518828   1.261   5.632   7.130 -0.0739  0.1634 -0.1798
  167SAPE   H5R18829   1.297   5.730   7.098 -0.0897  0.2951  0.2079
  167SAPE   C2618830   1.249   5.622   7.266  0.0088 -0.4254  0.1714
  167SAPE   H6R18831   1.266   5.711   7.328  2.5953  0.0661 -1.1221
  167SAPE   C2718832   1.215   5.501   7.345  0.2269 -0.7966  0.2905
  167SAPE   H7R18833   1.316   5.481   7.386  0.6606  0.7849  0.0584
  167SAPE   H7S18834   1.177   5.417   7.283  1.5371 -1.6658  0.6277
  167SAPE   C2818835   1.130   5.536   7.466  0.4109 -0.1038  0.4850
  167SAPE   H8R18836   1.183   5.579   7.553 -0.3192  0.3327  0.7227
  167SAPE   C2918837   0.995   5.515   7.474  0.0574 -0.4488 -0.1058
  167SAPE   H9R18838   0.926   5.541   7.555  0.2908  0.6965 -0.2565
  167SAPE  C21018839   0.920   5.454   7.359  0.1405  0.0776 -0.4642
  167SAPE  H10R18840   0.867   5.366   7.401  0.8675  0.4338  1.2876
  167SAPE  H10S18841   0.981   5.405   7.280 -0.2407  1.1404 -1.4416
  167SAPE  C21118842   0.824   5.544   7.284  0.2659 -0.3137  0.4780
  167SAPE  H11R18843   0.858   5.606   7.200 -0.0182 -0.0999  0.5165
  167SAPE  C21218844   0.699   5.574   7.338  0.3394  0.5961  0.5980
  167SAPE  H12R18845   0.623   5.635   7.286  1.5978  1.0445 -0.7764
  167SAPE  C21318846   0.638   5.499   7.457  0.4368  1.3590 -0.4041
  167SAPE  H13R18847   0.693   5.410   7.496 -0.1723  1.5242  0.8928
  167SAPE  H13S18848   0.536   5.463   7.434  1.0030  0.6151 -1.8714
  167SAPE  C21418849   0.621   5.597   7.572  0.6645  0.3256 -0.0014
  167SAPE  H14R18850   0.574   5.691   7.539  1.5575  0.4666 -0.8846
  167SAPE  C21518851   0.664   5.589   7.700 -0.5185  0.2344  0.2988
  167SAPE  H15R18852   0.659   5.673   7.772 -1.7003  1.1369 -0.7668
  167SAPE  C21618853   0.737   5.466   7.754 -0.1461 -0.1114  0.6752
  167SAPE  H16R18854   0.783   5.397   7.681  1.0747  0.2022  1.1281
  167SAPE  H16S18855   0.662   5.407   7.811 -0.3502 -0.6907 -0.1800
  167SAPE  C21718856   0.837   5.498   7.863 -0.1973  0.1301 -0.3245
  167SAPE  H17R18857   0.909   5.574   7.825  0.0397 -0.1569 -0.4569
  167SAPE  H17S18858   0.891   5.403   7.884 -1.3773 -0.2636  1.0729
  167SAPE  C21818859   0.786   5.549   7.997  0.2941  0.3645 -0.7970
  167SAPE  H18R18860   0.717   5.474   8.042  4.1720 -1.7867  2.1021
  167SAPE  H18S18861   0.730   5.645   7.983  1.8161  1.7239  1.8352
  167SAPE  C21918862   0.890   5.577   8.102  0.4680  0.0179 -0.1024
  167SAPE  H19R18863   0.844   5.632   8.187 -1.2426  0.5539 -1.3027
  167SAPE  H19S18864   0.964   5.656   8.076  1.2245  0.9085  4.0071
  167SAPE  C22018865   0.969   5.459   8.156 -0.5651  0.1078 -0.3179
  167SAPE  H20R18866   1.007   5.473   8.259 -1.0948  0.5542 -0.1756
  167SAPE  H20S18867   1.063   5.443   8.098 -0.5684  0.1883 -0.3456
  167SAPE  H20T18868   0.915   5.363   8.160  0.8267 -0.6578  1.0440
  167SAPE   C3318869   1.764   5.836   7.215  0.4596  0.3537  0.1084
  167SAPE   H3X18870   1.665   5.786   7.214  0.4505  0.3704 -1.2715
  167SAPE   H3Y18871   1.732   5.943   7.218 -0.8108  0.0468 -1.5778
  167SAPE   C3418872   1.849   5.798   7.337  0.2604  0.2779  0.5331
  167SAPE   H4X18873   1.954   5.822   7.309 -0.3039  0.3515 -1.7320
  167SAPE   H4Y18874   1.846   5.688   7.351  0.1791  0.4440  1.9734
  167SAPE   C3518875   1.818   5.893   7.450 -0.1530  0.3859 -0.3614
  167SAPE   H5X18876   1.709   5.902   7.472 -0.4103 -0.1001 -1.3848
  167SAPE   H5Y18877   1.843   5.999   7.427  0.8691  0.7946  2.2835
  167SAPE   C3618878   1.908   5.853   7.568 -0.7126  0.4412  0.4146
  167SAPE   H6X18879   2.014   5.878   7.548 -0.4478 -1.1195 -0.1962
  167SAPE   H6Y18880   1.902   5.742   7.574  1.3546 -0.0136 -3.2871
  167SAPE   C3718881   1.876   5.930   7.694 -0.7689 -0.0790  0.0479
  167SAPE   H7X18882   1.773   5.901   7.726 -1.7531 -0.0022 -2.7282
  167SAPE   H7Y18883   1.875   6.039   7.673  2.9241  0.0518 -0.0090
  167SAPE   C3818884   1.980   5.908   7.803  0.5996  0.4202 -0.2911
  167SAPE   H8X18885   1.950   5.971   7.890  1.7456  0.6255 -0.0382
  167SAPE   H8Y18886   2.071   5.963   7.774  0.6007  0.7717  0.3640
  167SAPE   C3918887   2.000   5.755   7.837 -0.0079 -0.3316  0.4184
  167SAPE   H9X18888   2.065   5.711   7.758 -0.6460 -2.0643  0.8254
  167SAPE   H9Y18889   1.897   5.715   7.844 -0.5680  1.0240  0.1587
  167SAPE  C31018890   2.070   5.737   7.975 -0.3131  0.0133 -0.5120
  167SAPE  H10X18891   2.157   5.805   7.964 -1.2898  1.2099 -1.2252
  167SAPE  H10Y18892   2.093   5.631   7.997  0.3659  0.4091  0.7742
  167SAPE  C31118893   1.990   5.778   8.089 -0.1750 -0.4526 -1.3824
  167SAPE  H11X18894   1.925   5.689   8.101 -2.9467  1.6025  0.0056
  167SAPE  H11Y18895   1.934   5.869   8.058  1.4193  0.7625 -0.8577
  167SAPE  C31218896   2.087   5.830   8.203  0.5041  0.0171  1.1673
  167SAPE  H12X18897   2.028   5.873   8.287  0.9797  2.1543  0.4809
  167SAPE  H12Y18898   2.156   5.904   8.157 -0.1146  0.4990  0.9995
  167SAPE  C31318899   2.180   5.718   8.248  0.6138  0.1195  0.3949
  167SAPE  H13X18900   2.231   5.689   8.153 -1.4950  0.6466 -0.9683
  167SAPE  H13Y18901   2.116   5.636   8.286  0.4545 -0.6568 -1.4317
  167SAPE  C31418902   2.284   5.763   8.344  0.2716 -0.8642 -0.4857
  167SAPE  H14X18903   2.350   5.828   8.283 -0.1621 -0.9542 -1.0559
  167SAPE  H14Y18904   2.345   5.674   8.371  0.6877  0.0412  1.7886
  167SAPE  C31518905   2.246   5.838   8.476  0.1775  0.5450  0.2040
  167SAPE  H15X18906   2.192   5.761   8.535  0.0803 -1.1889 -1.9908
  167SAPE  H15Y18907   2.168   5.917   8.466 -0.7325 -0.5084 -1.5458
  167SAPE  C31618908   2.369   5.887   8.563 -0.7742 -0.2466  0.8183
  167SAPE  H16X18909   2.395   5.984   8.515  1.2152 -0.1447  2.0135
  167SAPE  H16Y18910   2.458   5.823   8.546 -0.4777  0.1874  0.7380
  167SAPE  C31718911   2.343   5.888   8.708  0.4306 -0.3643 -1.1298
  167SAPE  H17X18912   2.315   5.782   8.728 -0.5616 -0.0851 -0.9876
  167SAPE  H17Y18913   2.252   5.940   8.745  0.6487 -0.6559 -0.1539
  167SAPE  C31818914   2.454   5.930   8.802 -0.3636  0.1119 -0.2248
  167SAPE  H18X18915   2.444   5.919   8.912 -1.1666 -1.4228 -0.4393
  167SAPE  H18Y18916   2.489   6.034   8.782  3.0380 -0.7685  0.4351
  167SAPE  H18Z18917   2.536   5.859   8.779 -1.1331 -0.6960 -0.4714
  168SAPE     N18918   1.413   0.653   6.569  0.5491 -0.8736 -0.4367
  168SAPE   HN118919   1.404   0.558   6.528 -0.4810 -0.4352 -1.2767
  168SAPE   HN218920   1.338   0.714   6.531 -0.4211 -1.7797 -0.0227
  168SAPE   HN318921   1.500   0.689   6.525  0.1726  3.4141  1.7302
  168SAPE   C1218922   1.415   0.654   6.722 -0.8197 -0.0767 -0.3884
  168SAPE  H12A18923   1.434   0.755   6.764  0.6059 -1.1560  1.7735
  168SAPE  H12B18924   1.496   0.585   6.753 -3.1800 -2.2306  1.3831
  168SAPE   C1118925   1.285   0.607   6.781 -0.7744  0.2214  0.4827
  168SAPE  H11A18926   1.201   0.652   6.724  1.1802  1.4381 -1.6187
  168SAPE  H11B18927   1.264   0.646   6.883 -2.2296 -1.1621  0.7579
  168SAPE     P18928   1.215   0.384   6.669  0.2360 -0.3415 -0.1481
  168SAPE   O1318929   1.067   0.397   6.672 -0.3715  0.0187 -0.1519
  168SAPE   O1418930   1.281   0.413   6.541  0.1523  0.0046  0.1897
  168SAPE   O1218931   1.282   0.467   6.785  0.2980  0.3913  0.0901
  168SAPE   O1118932   1.237   0.233   6.707 -0.0359  0.2418 -0.2258
  168SAPE    C118933   1.326   0.192   6.808 -0.0001  0.2521  0.9692
  168SAPE    HA18934   1.322   0.263   6.893  0.4299  1.2067  0.2009
  168SAPE    HB18935   1.313   0.087   6.844 -1.0743 -0.3221 -0.9479
  168SAPE    C218936   1.480   0.188   6.754  0.8860 -0.0222  0.5662
  168SAPE    HS18937   1.502   0.292   6.719 -1.4313 -0.1762 -1.6983
  168SAPE   O2118938   1.486   0.100   6.643 -0.3173  0.5333  0.1916
  168SAPE   C2118939   1.590   0.119   6.565 -0.7543 -0.0416 -0.1210
  168SAPE   O2218940   1.670   0.210   6.568 -0.0246  0.1904  0.2483
  168SAPE   C2218941   1.603   0.007   6.461  0.2456  0.1540  0.0522
  168SAPE   H2R18942   1.522   0.039   6.392 -0.7961  0.6606  1.4492
  168SAPE   H2S18943   1.696   0.029   6.404 -1.1759  0.7339 -2.1841
  168SAPE    C318944   1.570   0.137   6.869 -0.5288  0.2234  0.1404
  168SAPE    HX18945   1.672   0.115   6.832  0.7468  2.7127  1.9589
  168SAPE    HY18946   1.524   0.038   6.892  0.3262 -0.3572 -0.5593
  168SAPE   O3118947   1.569   0.197   6.997 -0.1650  0.0012 -0.5617
  168SAPE   C3118948   1.663   0.284   7.024 -0.3149  0.3310 -0.7748
  168SAPE   O3218949   1.758   0.311   6.949 -0.0592  0.2105 -0.1346
  168SAPE   C3218950   1.638   0.354   7.166  0.6149  0.0048  0.3997
  168SAPE   H2X18951   1.625   0.282   7.250 -1.9417 -0.8628 -0.6250
  168SAPE   H2Y18952   1.544   0.412   7.152  0.1120 -1.4175 -3.2784
  168SAPE   C2318953   1.584  -0.139   6.505 -0.7912  0.2841  0.1076
  168SAPE   H3R18954   1.585  -0.198   6.410  2.0020  1.2277 -0.5500
  168SAPE   H3S18955   1.485  -0.167   6.547 -0.6606 -0.0851  0.1798
  168SAPE   C2418956   1.689  -0.192   6.606  0.0044 -0.2374 -0.5134
  168SAPE   H4R18957   1.691  -0.129   6.697  1.9105  2.2922 -2.1909
  168SAPE   H4S18958   1.790  -0.191   6.561  0.1988  1.2624 -0.0823
  168SAPE   C2518959   1.677  -0.335   6.654 -0.2817  0.2003  0.4733
  168SAPE   H5R18960   1.580  -0.380   6.630  0.3446 -0.1266 -1.7105
  168SAPE   C2618961   1.766  -0.413   6.717  0.4126  0.2164 -0.2343
  168SAPE   H6R18962   1.738  -0.511   6.759  0.4367  0.9091  1.4460
  168SAPE   C2718963   1.905  -0.363   6.766  0.2919  0.0829  0.2171
  168SAPE   H7R18964   1.913  -0.253   6.760  0.6133 -0.0076 -2.4099
  168SAPE   H7S18965   1.978  -0.374   6.683  1.7537  3.4293  0.9070
  168SAPE   C2818966   1.970  -0.428   6.885 -0.5081 -0.4493  0.6948
  168SAPE   H8R18967   1.965  -0.537   6.898 -0.5636 -0.7861 -1.6462
  168SAPE   C2918968   2.025  -0.348   6.978 -0.9153 -0.1502 -0.0542
  168SAPE   H9R18969   2.055  -0.389   7.075  0.7101  2.3376  0.5978
  168SAPE  C21018970   2.037  -0.195   6.967  0.4676 -0.1188 -0.1660
  168SAPE  H10R18971   2.070  -0.172   6.864  0.7595 -1.3881 -0.3767
  168SAPE  H10S18972   2.119  -0.162   7.034  2.2199 -2.1534 -1.1847
  168SAPE  C21118973   1.918  -0.109   6.994  0.6908  0.0345  0.0608
  168SAPE  H11R18974   1.843  -0.108   6.914 -1.2596  2.1993  1.7274
  168SAPE  C21218975   1.889  -0.043   7.108 -0.6545 -0.6121 -0.0404
  168SAPE  H12R18976   1.795   0.015   7.108 -0.6546 -0.4401 -3.3068
  168SAPE  C21318977   1.976  -0.038   7.237 -0.0442  0.1626 -0.3706
  168SAPE  H13R18978   2.071  -0.095   7.224  0.9208  1.9551 -1.6053
  168SAPE  H13S18979   1.911  -0.091   7.311 -0.6278  1.2327 -0.1027
  168SAPE  C21418980   2.016   0.104   7.274  0.4874  0.1209 -0.2890
  168SAPE  H14R18981   2.014   0.177   7.192 -1.3646  1.0893  0.5599
  168SAPE  C21518982   2.033   0.142   7.405 -0.3408  0.9838  0.1045
  168SAPE  H15R18983   2.062   0.247   7.422  1.9109  0.1758  1.9110
  168SAPE  C21618984   2.031   0.045   7.524  0.4102 -0.7752 -0.2993
  168SAPE  H16R18985   2.122   0.063   7.585  1.5090 -0.7129 -1.8946
  168SAPE  H16S18986   2.021  -0.060   7.490 -1.8866 -0.9037  0.6063
  168SAPE  C21718987   1.913   0.079   7.614  0.2418  0.2068 -0.2277
  168SAPE  H17R18988   1.909   0.004   7.696 -0.5465 -0.6301 -1.0021
  168SAPE  H17S18989   1.814   0.071   7.563 -0.9761 -0.4608  2.0824
  168SAPE  C21818990   1.927   0.219   7.688  1.3364 -0.1080 -0.6344
  168SAPE  H18R18991   1.937   0.296   7.609  2.1384 -0.4306 -0.8697
  168SAPE  H18S18992   2.024   0.216   7.742  2.4420  0.5931 -2.4777
  168SAPE  C21918993   1.823   0.240   7.796  0.2305 -0.5402 -0.1169
  168SAPE  H19R18994   1.845   0.336   7.847 -0.6548 -0.5450  0.3002
  168SAPE  H19S18995   1.810   0.162   7.874  1.3944  1.4770  2.2076
  168SAPE  C22018996   1.676   0.262   7.743  0.5849  0.0288 -0.5129
  168SAPE  H20R18997   1.609   0.298   7.824  0.6974 -0.5250 -0.1600
  168SAPE  H20S18998   1.640   0.167   7.698 -0.6723  0.3627 -0.2551
  168SAPE  H20T18999   1.663   0.341   7.667 -0.0546  0.6702  0.2401
  168SAPE   C3319000   1.755   0.452   7.208 -0.5813  0.4336  0.5124
  168SAPE   H3X19001   1.752   0.535   7.134 -0.1486  0.7879  0.8862
  168SAPE   H3Y19002   1.852   0.404   7.184 -1.6657 -1.4867 -0.1781
  168SAPE   C3419003   1.736   0.499   7.350  0.0647  0.4829  0.4115
  168SAPE   H4X19004   1.730   0.404   7.407  0.5362  0.4400  0.3937
  168SAPE   H4Y19005   1.637   0.547   7.368 -2.2435 -3.4626 -0.5614
  168SAPE   C3519006   1.851   0.586   7.398 -0.1547 -0.3363  0.0592
  168SAPE   H5X19007   1.847   0.689   7.357 -0.5861 -0.1218  0.6368
  168SAPE   H5Y19008   1.944   0.542   7.354  1.2615  1.4957  1.0824
  168SAPE   C3619009   1.866   0.593   7.550 -0.2286 -0.1520 -0.1482
  168SAPE   H6X19010   1.885   0.489   7.583 -2.0822 -1.0173 -1.6366
  168SAPE   H6Y19011   1.769   0.622   7.595 -0.3720  0.6944 -0.9678
  168SAPE   C3719012   1.969   0.695   7.604 -0.0472 -0.3722  0.3309
  168SAPE   H7X19013   1.947   0.801   7.577 -1.4381 -0.5417  0.7339
  168SAPE   H7Y19014   2.060   0.675   7.544 -1.0629 -0.8928 -1.0755
  168SAPE   C3819015   1.997   0.695   7.761 -0.5200  0.1838  0.0339
  168SAPE   H8X19016   2.046   0.598   7.785 -1.3124  0.1010  1.4713
  168SAPE   H8Y19017   1.900   0.681   7.813 -1.2547 -2.4252 -1.8503
  168SAPE   C3919018   2.091   0.810   7.805 -0.0386 -0.3030  0.4011
  168SAPE   H9X19019   2.031   0.899   7.774  0.2772 -0.5738 -1.0144
  168SAPE   H9Y19020   2.189   0.812   7.754  0.1904  0.6696  0.8416
  168SAPE  C31019021   2.113   0.803   7.958 -0.5155 -0.6679 -0.2950
  168SAPE  H10X19022   2.172   0.716   7.993  0.6297  0.4171  0.5543
  168SAPE  H10Y19023   2.011   0.801   8.004 -0.1234  1.7932  0.8386
  168SAPE  C31119024   2.187   0.924   8.010 -0.3787 -0.0838  0.4959
  168SAPE  H11X19025   2.153   1.016   7.959 -0.0780  0.9237  2.0507
  168SAPE  H11Y19026   2.296   0.914   7.994 -0.2622 -1.2958  1.8490
  168SAPE  C31219027   2.146   0.958   8.153  0.3229 -0.4724  0.3368
  168SAPE  H12X19028   2.035   0.962   8.156  0.3281  1.3195 -0.3991
  168SAPE  H12Y19029   2.167   1.063   8.180  0.3038 -0.1111 -0.9671
  168SAPE  C31319030   2.191   0.852   8.256 -0.4321 -0.1570 -0.0935
  168SAPE  H13X19031   2.294   0.821   8.227 -1.1534 -2.2842 -0.5791
  168SAPE  H13Y19032   2.139   0.754   8.254 -0.1569 -0.3675  1.6530
  168SAPE  C31419033   2.198   0.910   8.392 -0.0208 -0.0465 -0.2535
  168SAPE  H14X19034   2.100   0.947   8.429 -2.4965 -4.9556 -1.0119
  168SAPE  H14Y19035   2.249   1.008   8.379 -1.2215  0.4164 -1.7322
  168SAPE  C31519036   2.255   0.814   8.497  0.0625  0.9025  0.2607
  168SAPE  H15X19037   2.361   0.783   8.485 -0.0339  1.2964 -1.9805
  168SAPE  H15Y19038   2.203   0.717   8.482  0.8582  0.9516 -4.1649
  168SAPE  C31619039   2.238   0.871   8.640  0.7529  0.5706  0.2327
  168SAPE  H16X19040   2.133   0.900   8.660  0.8141  0.5493  0.6015
  168SAPE  H16Y19041   2.310   0.953   8.661  1.3559 -0.3471  1.9765
  168SAPE  C31719042   2.278   0.767   8.751  0.2047  0.2152  0.1741
  168SAPE  H17X19043   2.379   0.735   8.718 -0.5022 -2.6211  0.5758
  168SAPE  H17Y19044   2.212   0.679   8.741 -0.0508  0.3829  0.3564
  168SAPE  C31819045   2.274   0.807   8.891  0.8794 -0.1840 -0.2987
  168SAPE  H18X19046   2.300   0.734   8.971  0.0120  0.3290  0.4752
  168SAPE  H18Y19047   2.168   0.831   8.915  0.7256 -1.6695  0.6481
  168SAPE  H18Z19048   2.349   0.887   8.908  1.2587 -0.8098  1.1481
  169SAPE     N19049   1.443   1.253   6.523  0.0753  0.4221 -0.5842
  169SAPE   HN119050   1.409   1.232   6.619  0.6954  1.8429 -0.0299
  169SAPE   HN219051   1.408   1.346   6.490 -2.3366 -0.5423 -1.0222
  169SAPE   HN319052   1.402   1.179   6.463  1.7154 -0.5793 -0.5176
  169SAPE   C1219053   1.589   1.254   6.525 -0.2098  0.4727  0.1066
  169SAPE  H12A19054   1.629   1.339   6.584 -1.7304 -0.6760  3.0078
  169SAPE  H12B19055   1.629   1.240   6.422 -0.7109 -0.7682  0.0677
  169SAPE   C1119056   1.641   1.139   6.611 -0.3540 -0.3011  0.7098
  169SAPE  H11A19057   1.616   1.154   6.718  1.7898  0.6517  1.1428
  169SAPE  H11B19058   1.752   1.148   6.613 -0.3664  1.1647 -1.4719
  169SAPE     P19059   1.671   0.929   6.458 -0.1136 -0.1097 -0.1557
  169SAPE   O1319060   1.621   0.792   6.465 -0.5263 -0.1448  0.2336
  169SAPE   O1419061   1.659   1.003   6.329  0.0946  0.4569  0.1554
  169SAPE   O1219062   1.599   1.010   6.571  0.2051 -0.0464 -0.0852
  169SAPE   O1119063   1.815   0.935   6.506 -0.1731  0.3071 -0.4166
  169SAPE    C119064   1.894   0.829   6.565 -0.7854 -0.3160 -0.5193
  169SAPE    HA19065   1.904   0.739   6.500  0.6603 -1.8377  1.6551
  169SAPE    HB19066   1.996   0.869   6.584 -1.5407  0.9420  1.1723
  169SAPE    C219067   1.841   0.770   6.695  0.0671  0.2140  0.0893
  169SAPE    HS19068   1.766   0.694   6.665  0.1255  0.0654  0.3168
  169SAPE   O2119069   1.786   0.874   6.781  0.4014  0.3399 -0.4308
  169SAPE   C2119070   1.697   0.823   6.877  0.0350 -0.1920 -0.2188
  169SAPE   O2219071   1.667   0.704   6.883 -0.3891 -0.6381  0.2702
  169SAPE   C2219072   1.639   0.938   6.958  0.3064  0.2042 -1.0705
  169SAPE   H2R19073   1.716   1.019   6.958  0.2478  0.2647 -0.5998
  169SAPE   H2S19074   1.543   0.963   6.908 -0.7886 -0.6382  0.5100
  169SAPE    C319075   1.944   0.680   6.770 -0.6902 -0.9503 -0.3390
  169SAPE    HX19076   1.941   0.583   6.716  0.4664 -0.9389 -0.4316
  169SAPE    HY19077   1.897   0.651   6.867 -0.7147 -0.6523 -0.2622
  169SAPE   O3119078   2.078   0.724   6.788  0.6065 -0.2324  0.2845
  169SAPE   C3119079   2.094   0.807   6.887 -0.4677 -0.1785 -0.0866
  169SAPE   O3219080   2.010   0.841   6.972 -0.0413  0.2039  0.5761
  169SAPE   C3219081   2.240   0.869   6.879 -0.7164 -0.1961  0.2120
  169SAPE   H2X19082   2.231   0.933   6.788 -4.1148 -0.9391 -0.1392
  169SAPE   H2Y19083   2.311   0.785   6.865  1.3872  1.0115  2.8688
  169SAPE   C2319084   1.605   0.897   7.108  0.0710 -0.5247 -0.1697
  169SAPE   H3R19085   1.540   0.806   7.103  0.5877 -0.9264  0.2749
  169SAPE   H3S19086   1.549   0.984   7.147 -0.3114  0.6238 -3.0350
  169SAPE   C2419087   1.724   0.855   7.190  0.5936  0.5104  0.4809
  169SAPE   H4R19088   1.772   0.774   7.132 -1.2831 -0.1325 -0.2534
  169SAPE   H4S19089   1.690   0.828   7.292 -1.8484  1.6305  0.0433
  169SAPE   C2519090   1.815   0.973   7.197  0.3542  0.0097  0.5189
  169SAPE   H5R19091   1.885   0.981   7.112  0.5450  2.6749  0.8531
  169SAPE   C2619092   1.816   1.076   7.282 -0.3358 -0.6358 -1.2037
  169SAPE   H6R19093   1.891   1.154   7.260  0.2715 -0.7276  0.4366
  169SAPE   C2719094   1.727   1.092   7.397 -0.6951 -0.4295 -1.2361
  169SAPE   H7R19095   1.754   1.016   7.474 -0.4589  0.5589 -0.3188
  169SAPE   H7S19096   1.625   1.063   7.364 -1.6865  2.6905 -1.1970
  169SAPE   C2819097   1.708   1.230   7.452 -0.1302  0.5310  0.7147
  169SAPE   H8R19098   1.675   1.300   7.374 -5.0900  0.8124  2.6803
  169SAPE   C2919099   1.710   1.278   7.574 -0.0001 -0.1933 -0.3459
  169SAPE   H9R19100   1.698   1.386   7.587 -0.6251 -0.1563 -1.1274
  169SAPE  C21019101   1.747   1.193   7.694  0.2588  0.4328 -0.3207
  169SAPE  H10R19102   1.806   1.107   7.656  1.9256  2.7847 -3.5024
  169SAPE  H10S19103   1.655   1.150   7.739  1.2454 -1.8077 -0.2791
  169SAPE  C21119104   1.820   1.279   7.798 -0.2917  0.0350 -0.0829
  169SAPE  H11R19105   1.884   1.361   7.762 -0.6522  1.2660  1.9569
  169SAPE  C21219106   1.795   1.270   7.930  0.7679 -0.6159 -0.7574
  169SAPE  H12R19107   1.848   1.347   7.988  2.0094  0.2089 -2.8909
  169SAPE  C21319108   1.692   1.188   8.010 -0.0237  0.7537 -0.6407
  169SAPE  H13R19109   1.629   1.128   7.942  1.5259 -1.6638 -0.0661
  169SAPE  H13S19110   1.625   1.263   8.057 -0.4852 -0.6315  1.0108
  169SAPE  C21419111   1.751   1.083   8.105  0.4044  0.5172 -0.2457
  169SAPE  H14R19112   1.776   0.990   8.052  1.8954 -0.2903  1.7560
  169SAPE  C21519113   1.778   1.101   8.234  0.7259  0.0293  0.5380
  169SAPE  H15R19114   1.810   1.018   8.298  0.2423 -1.1785 -0.7183
  169SAPE  C21619115   1.749   1.224   8.320  0.1010 -0.3962 -0.0892
  169SAPE  H16R19116   1.645   1.226   8.357  0.1077 -0.7508 -0.0532
  169SAPE  H16S19117   1.765   1.315   8.258  2.9169 -2.2242 -2.3382
  169SAPE  C21719118   1.849   1.235   8.438 -0.0477  0.1349 -0.2523
  169SAPE  H17R19119   1.848   1.142   8.499 -0.4622  0.3927  0.1442
  169SAPE  H17S19120   1.810   1.322   8.495 -0.2673  0.5832 -1.0641
  169SAPE  C21819121   1.993   1.257   8.389 -0.1018 -0.0609  0.1841
  169SAPE  H18R19122   1.986   1.349   8.327  2.7155 -0.2844 -0.6139
  169SAPE  H18S19123   2.038   1.178   8.325  0.9487 -2.1858  3.3217
  169SAPE  C21919124   2.101   1.289   8.503  0.3468  0.2219  0.2742
  169SAPE  H19R19125   2.114   1.198   8.567 -0.1679  0.1422  0.2685
  169SAPE  H19S19126   2.051   1.372   8.558 -2.0165 -1.1151  0.2895
  169SAPE  C22019127   2.239   1.335   8.445  0.8733  0.5914  0.6617
  169SAPE  H20R19128   2.292   1.247   8.403  2.4624  0.9635  1.8059
  169SAPE  H20S19129   2.296   1.372   8.533  1.7131  0.2733  0.2659
  169SAPE  H20T19130   2.230   1.413   8.366  1.0927  0.2254  0.2702
  169SAPE   C3319131   2.276   0.949   7.004  0.4217  0.1336 -0.1110
  169SAPE   H3X19132   2.198   1.026   7.021 -0.0848 -0.5620  0.7986
  169SAPE   H3Y19133   2.371   1.004   6.989 -0.1373  1.1357 -0.0597
  169SAPE   C3419134   2.292   0.869   7.131  0.0364 -0.5369  0.0475
  169SAPE   H4X19135   2.359   0.782   7.111 -0.1611 -0.5730 -0.4965
  169SAPE   H4Y19136   2.194   0.824   7.159  0.7865 -1.9977  0.4309
  169SAPE   C3519137   2.341   0.957   7.244 -0.9012  0.1023  0.1620
  169SAPE   H5X19138   2.275   1.045   7.259 -0.7708  0.0432  1.1747
  169SAPE   H5Y19139   2.444   0.991   7.220  0.8414 -2.8244  2.6957
  169SAPE   C3619140   2.353   0.870   7.370  0.3827  0.1117 -0.9311
  169SAPE   H6X19141   2.445   0.810   7.352  0.1481  0.1413 -2.3750
  169SAPE   H6Y19142   2.277   0.790   7.367 -0.5258  0.8897  0.4368
  169SAPE   C3719143   2.374   0.951   7.494  0.0809  0.0177 -0.0492
  169SAPE   H7X19144   2.269   0.968   7.526  0.2190  0.7702  0.0128
  169SAPE   H7Y19145   2.425   1.046   7.468  0.1420 -0.3064 -1.1740
  169SAPE   C3819146   2.448   0.871   7.601  0.1283 -0.3086 -0.1220
  169SAPE   H8X19147   2.549   0.839   7.568 -0.1805 -1.6653  0.1995
  169SAPE   H8Y19148   2.405   0.784   7.655  0.6752  0.6349  1.9219
  169SAPE   C3919149   2.467   0.962   7.720  0.1891  0.4526  0.1872
  169SAPE   H9X19150   2.366   0.980   7.761  0.2455  1.1048  0.0545
  169SAPE   H9Y19151   2.502   1.062   7.684  1.1676 -0.4574 -1.5052
  169SAPE  C31019152   2.552   0.907   7.832 -0.7094 -0.4952  0.0123
  169SAPE  H10X19153   2.652   0.874   7.797 -1.4075 -1.8696 -0.7390
  169SAPE  H10Y19154   2.512   0.812   7.873 -1.5609 -1.1116 -2.1306
  169SAPE  C31119155   2.578   1.023   7.932  0.4286  0.0208  0.1982
  169SAPE  H11X19156   2.481   1.070   7.958  0.4303 -1.1583  2.6229
  169SAPE  H11Y19157   2.632   1.096   7.869  0.7731  0.0086  0.4736
  169SAPE  C31219158   2.648   0.990   8.066  0.3262 -0.0054 -0.2349
  169SAPE  H12X19159   2.689   1.085   8.107 -0.3314 -0.3567  1.3213
  169SAPE  H12Y19160   2.720   0.908   8.048 -0.9445 -1.0239 -0.8279
  169SAPE  C31319161   2.548   0.954   8.175  0.3338  0.4246 -0.3563
  169SAPE  H13X19162   2.502   0.853   8.166  1.5892 -0.4205  1.9631
  169SAPE  H13Y19163   2.474   1.036   8.180 -0.3045  0.0083  6.7167
  169SAPE  C31419164   2.608   0.949   8.318 -0.0774  0.1713  0.3342
  169SAPE  H14X19165   2.527   0.949   8.394 -0.3497  0.3012  0.0474
  169SAPE  H14Y19166   2.658   1.047   8.336  0.7935 -0.1987 -0.0044
  169SAPE  C31519167   2.689   0.818   8.346  1.4043 -0.0362 -0.5179
  169SAPE  H15X19168   2.771   0.809   8.271  0.5435  0.5843 -1.5755
  169SAPE  H15Y19169   2.623   0.733   8.317  1.1923  0.4091 -1.3964
  169SAPE  C31619170   2.751   0.810   8.481  0.1986  0.5636 -0.2749
  169SAPE  H16X19171   2.745   0.911   8.528  0.2981  1.2911 -1.7633
  169SAPE  H16Y19172   2.857   0.778   8.478  0.3065  0.5836  1.6349
  169SAPE  C31719173   2.671   0.724   8.582  0.6432  0.8473  0.6606
  169SAPE  H17X19174   2.719   0.625   8.569  2.5035  1.8843 -0.8222
  169SAPE  H17Y19175   2.563   0.723   8.555  0.5170  2.1844  1.0498
  169SAPE  C31819176   2.685   0.763   8.724 -0.2854  0.1407  0.3674
  169SAPE  H18X19177   2.664   0.679   8.794 -1.1331 -0.8750 -1.0531
  169SAPE  H18Y19178   2.625   0.849   8.760 -0.4354 -0.4466  1.5796
  169SAPE  H18Z19179   2.791   0.798   8.727 -0.5700  1.1966 -0.9415
  170SAPE     N19180   2.979   4.813   6.509 -0.3304  0.0938  0.4486
  170SAPE   HN119181   3.074   4.816   6.551 -0.2924 -0.4052  0.4037
  170SAPE   HN219182   2.950   4.906   6.473 -0.1684  0.0866  0.2984
  170SAPE   HN319183   2.909   4.779   6.579 -1.4770 -0.2940 -0.8384
  170SAPE   C1219184   2.977   4.720   6.393  0.6973  0.3646 -0.1326
  170SAPE  H12A19185   3.053   4.643   6.417  0.9662  0.1144 -1.6749
  170SAPE  H12B19186   2.999   4.790   6.309 -1.2460  0.2356 -0.8075
  170SAPE   C1119187   2.832   4.660   6.374  0.0349  0.6568  0.2723
  170SAPE  H11A19188   2.840   4.616   6.273 -0.3767  1.4537 -0.1237
  170SAPE  H11B19189   2.754   4.739   6.373 -0.1458  0.4880  0.7181
  170SAPE     P19190   2.853   4.412   6.455  0.0754  0.0832 -0.0861
  170SAPE   O1319191   2.756   4.316   6.521 -0.1599  0.2744  0.3276
  170SAPE   O1419192   2.877   4.389   6.311 -0.3386  0.2231 -0.0418
  170SAPE   O1219193   2.792   4.556   6.464  0.6666  0.5063 -0.0081
  170SAPE   O1119194   2.980   4.412   6.541  0.3237 -0.2103 -0.3381
  170SAPE    C119195   3.098   4.357   6.484  0.2823 -0.0657  0.1615
  170SAPE    HA19196   3.089   4.247   6.471  0.3673 -0.1307  0.6099
  170SAPE    HB19197   3.118   4.406   6.387  0.4789 -1.2622 -0.4178
  170SAPE    C219198   3.229   4.386   6.570 -0.2234 -0.2586 -0.0646
  170SAPE    HS19199   3.241   4.291   6.627 -0.8610  0.9290  2.1488
  170SAPE   O2119200   3.217   4.497   6.657  0.7466  0.4918 -0.0345
  170SAPE   C2119201   3.164   4.483   6.773 -0.3836  0.2595 -0.3990
  170SAPE   O2219202   3.130   4.380   6.827 -0.0976  0.0862  0.7953
  170SAPE   C2219203   3.131   4.624   6.835 -0.1243  0.2774  0.6036
  170SAPE   H2R19204   3.220   4.683   6.803 -1.1219  0.5936 -1.7768
  170SAPE   H2S19205   3.047   4.665   6.775  0.4751 -0.4099 -0.7457
  170SAPE    C319206   3.358   4.399   6.480  0.6382  0.4064  0.9005
  170SAPE    HX19207   3.340   4.491   6.421  2.6406  0.6019  0.5230
  170SAPE    HY19208   3.361   4.313   6.411 -0.9879  2.6374 -2.1887
  170SAPE   O3119209   3.485   4.417   6.552  0.1424  0.5543  0.0541
  170SAPE   C3119210   3.548   4.528   6.531  0.2322 -0.8441  0.0565
  170SAPE   O3219211   3.524   4.607   6.443  0.5702 -0.3377 -0.3259
  170SAPE   C3219212   3.656   4.551   6.642  0.3248 -0.3027  0.0161
  170SAPE   H2X19213   3.739   4.610   6.596  1.8929 -2.2261  0.2267
  170SAPE   H2Y19214   3.700   4.452   6.666 -0.2703 -0.2286  1.5344
  170SAPE   C2319215   3.116   4.621   6.988 -0.5182  0.1796 -0.6527
  170SAPE   H3R19216   3.190   4.562   7.045  0.2666  3.0057  1.5449
  170SAPE   H3S19217   3.017   4.578   7.016  0.9589 -0.9697  3.5492
  170SAPE   C2419218   3.130   4.754   7.058  0.3727  0.1383  0.1583
  170SAPE   H4R19219   3.230   4.795   7.034  0.9596 -1.5756 -0.4959
  170SAPE   H4S19220   3.148   4.742   7.167  2.0122 -2.4120 -0.2930
  170SAPE   C2519221   3.013   4.833   7.013 -0.7683 -0.8294  0.3916
  170SAPE   H5R19222   3.029   4.881   6.915 -0.9096 -1.0634  0.2527
  170SAPE   C2619223   2.891   4.823   7.062  0.7321  0.5818  0.2566
  170SAPE   H6R19224   2.813   4.873   7.003  2.5841  1.6597 -1.3850
  170SAPE   C2719225   2.859   4.729   7.176  0.7567 -0.3117 -0.5218
  170SAPE   H7R19226   2.946   4.715   7.244  1.5368 -2.3033 -1.8613
  170SAPE   H7S19227   2.848   4.627   7.136 -1.2192 -0.4197  0.1544
  170SAPE   C2819228   2.718   4.753   7.239 -0.2227  0.2371  0.4340
  170SAPE   H8R19229   2.637   4.785   7.173  0.9545  1.7247 -0.3611
  170SAPE   C2919230   2.684   4.727   7.367  1.1640 -0.5186 -0.3965
  170SAPE   H9R19231   2.590   4.766   7.409  1.8113  0.3544  0.2773
  170SAPE  C21019232   2.780   4.667   7.463 -0.3806 -0.7385  0.1228
  170SAPE  H10R19233   2.854   4.605   7.408 -0.8588  0.7333 -2.3074
  170SAPE  H10S19234   2.727   4.604   7.538  0.4866 -2.1790 -0.4314
  170SAPE  C21119235   2.860   4.782   7.525  0.2082  0.2361  0.2473
  170SAPE  H11R19236   2.905   4.855   7.456 -1.3740  1.0333  0.0176
  170SAPE  C21219237   2.890   4.802   7.660  0.6843  0.0967  0.5246
  170SAPE  H12R19238   2.950   4.889   7.688 -1.0797  1.5187  0.0380
  170SAPE  C21319239   2.848   4.716   7.772 -0.7618  0.6436  0.5582
  170SAPE  H13R19240   2.938   4.683   7.828 -1.2605 -3.6941 -0.8568
  170SAPE  H13S19241   2.809   4.618   7.738  1.9169 -0.3665  0.1561
  170SAPE  C21419242   2.742   4.779   7.855 -0.0723  0.0244  0.9253
  170SAPE  H14R19243   2.644   4.732   7.837  0.4494 -1.0297  0.7771
  170SAPE  C21519244   2.754   4.862   7.958 -0.2559  0.0339 -0.1078
  170SAPE  H15R19245   2.661   4.877   8.015 -0.1616 -3.0316  1.0527
  170SAPE  C21619246   2.886   4.926   8.002  0.2887 -1.0713  0.3564
  170SAPE  H16R19247   2.864   5.022   8.053  0.6238 -0.0990 -1.2828
  170SAPE  H16S19248   2.950   4.947   7.913 -0.5672 -1.8857 -0.4665
  170SAPE  C21719249   2.967   4.832   8.096  0.8435  0.5692  0.1700
  170SAPE  H17R19250   3.073   4.866   8.090  0.8564  0.3240 -1.5553
  170SAPE  H17S19251   2.967   4.725   8.066  3.1653  0.5011  0.2604
  170SAPE  C21819252   2.923   4.850   8.244 -0.1662  0.1066  0.6231
  170SAPE  H18R19253   2.821   4.809   8.256  0.2384 -0.9996  0.4898
  170SAPE  H18S19254   2.923   4.958   8.269  0.1079  0.6532 -1.4963
  170SAPE  C21919255   3.012   4.786   8.348  0.4548  0.8712  0.2157
  170SAPE  H19R19256   3.120   4.815   8.354  0.6855  0.2150 -0.5333
  170SAPE  H19S19257   3.011   4.678   8.324 -0.9783  0.5907  1.4195
  170SAPE  C22019258   2.953   4.810   8.483  0.1247 -0.3127  0.3486
  170SAPE  H20R19259   2.954   4.920   8.502  2.1231 -0.4577  1.3093
  170SAPE  H20S19260   3.016   4.759   8.560  0.0187 -2.7987 -1.1096
  170SAPE  H20T19261   2.848   4.773   8.492  0.0489 -0.1972 -0.0600
  170SAPE   C3319262   3.608   4.624   6.768  0.0376  0.2685 -0.1304
  170SAPE   H3X19263   3.554   4.719   6.750  0.0579  0.4197  0.5831
  170SAPE   H3Y19264   3.702   4.648   6.822  0.3511  0.5167 -0.7741
  170SAPE   C3419265   3.525   4.523   6.848 -0.0188  0.6907 -0.4678
  170SAPE   H4X19266   3.559   4.417   6.847 -2.5186 -0.1749 -1.5189
  170SAPE   H4Y19267   3.431   4.510   6.791 -1.3876  1.5918  1.4699
  170SAPE   C3519268   3.490   4.577   6.986 -0.3168 -0.8955 -0.5838
  170SAPE   H5X19269   3.415   4.506   7.030  1.2119 -2.3460 -0.2188
  170SAPE   H5Y19270   3.439   4.675   6.972  0.3985 -0.1855  1.4410
  170SAPE   C3619271   3.613   4.592   7.068 -1.0803 -0.3084  0.0451
  170SAPE   H6X19272   3.666   4.685   7.037 -0.2276 -0.6800  0.3746
  170SAPE   H6Y19273   3.674   4.501   7.051  0.5030  0.8378 -0.6253
  170SAPE   C3719274   3.599   4.609   7.224  0.1371  0.6732  0.0337
  170SAPE   H7X19275   3.534   4.522   7.250  1.0559  0.6184  2.3646
  170SAPE   H7Y19276   3.544   4.703   7.244  0.8703  1.2724 -0.7277
  170SAPE   C3819277   3.726   4.593   7.313  0.0205  0.1328  0.0639
  170SAPE   H8X19278   3.809   4.650   7.265  0.9692 -1.8420 -0.7410
  170SAPE   H8Y19279   3.760   4.488   7.308 -1.7260 -0.4671  0.3384
  170SAPE   C3919280   3.694   4.632   7.455  0.0942  0.6498 -0.0188
  170SAPE   H9X19281   3.613   4.565   7.490  0.7670  0.4434  1.2115
  170SAPE   H9Y19282   3.660   4.737   7.463 -0.1839  0.5449  0.1806
  170SAPE  C31019283   3.824   4.621   7.534  0.9908 -0.6065  0.3732
  170SAPE  H10X19284   3.901   4.687   7.488  1.5364 -1.0515  0.6482
  170SAPE  H10Y19285   3.863   4.518   7.522  3.2270  0.2755 -0.5969
  170SAPE  C31119286   3.819   4.661   7.680 -0.3230 -0.2059 -0.5266
  170SAPE  H11X19287   3.757   4.578   7.721  0.6669 -1.1106 -0.8243
  170SAPE  H11Y19288   3.756   4.753   7.683  2.0139  1.5346 -1.4200
  170SAPE  C31219289   3.950   4.673   7.753 -1.0426 -0.4300  0.5068
  170SAPE  H12X19290   4.012   4.753   7.708 -0.2472 -0.6365  1.2132
  170SAPE  H12Y19291   3.998   4.573   7.747  1.5015  0.7696 -0.1345
  170SAPE  C31319292   3.933   4.697   7.904 -0.3383 -0.9783  0.1984
  170SAPE  H13X19293   4.030   4.720   7.954 -1.1433  1.1260  0.9175
  170SAPE  H13Y19294   3.904   4.599   7.946  2.8658 -1.8337  0.6530
  170SAPE  C31419295   3.832   4.801   7.945  0.3764 -0.4579 -0.1424
  170SAPE  H14X19296   3.731   4.775   7.906  0.2236  2.5564 -2.0921
  170SAPE  H14Y19297   3.865   4.901   7.909  1.0323  0.2102  2.1168
  170SAPE  C31519298   3.817   4.827   8.104  0.0270  0.5710  0.0003
  170SAPE  H15X19299   3.912   4.876   8.136  0.4976  1.6292 -2.7281
  170SAPE  H15Y19300   3.811   4.728   8.152  1.1031  0.5664  0.1432
  170SAPE  C31619301   3.689   4.909   8.140  0.2353  0.1491 -0.0133
  170SAPE  H16X19302   3.607   4.860   8.083  0.8328 -0.0247 -0.7526
  170SAPE  H16Y19303   3.696   5.016   8.111  1.1697  0.0599 -0.1744
  170SAPE  C31719304   3.659   4.905   8.291  0.2233  0.5993  0.4027
  170SAPE  H17X19305   3.680   4.802   8.326 -2.6724 -0.0459  0.4716
  170SAPE  H17Y19306   3.552   4.933   8.299  0.3784  1.7764 -1.1052
  170SAPE  C31819307   3.740   4.997   8.385 -0.0563 -0.3025 -0.0536
  170SAPE  H18X19308   3.702   4.978   8.487 -1.3808 -1.3972 -0.7242
  170SAPE  H18Y19309   3.729   5.106   8.366  0.4141 -0.4082 -0.9786
  170SAPE  H18Z19310   3.849   4.977   8.379 -0.1745 -0.7573 -0.7476
  171SAPE     N19311   3.712   5.631   6.229 -0.1262 -0.7807  0.0169
  171SAPE   HN119312   3.741   5.729   6.208 -1.1562 -0.0907  1.6133
  171SAPE   HN219313   3.784   5.561   6.203 -0.3582 -0.5318 -1.3540
  171SAPE   HN319314   3.626   5.606   6.176  0.7721 -2.1393 -0.8622
  171SAPE   C1219315   3.693   5.636   6.377 -0.0647  0.0221  0.0256
  171SAPE  H12A19316   3.787   5.654   6.434  1.1085  0.7672 -2.0463
  171SAPE  H12B19317   3.665   5.530   6.397 -0.0260  0.2828  1.5880
  171SAPE   C1119318   3.575   5.735   6.419  0.0236 -0.4774 -0.6617
  171SAPE  H11A19319   3.623   5.834   6.402  0.0022 -0.0278  1.5600
  171SAPE  H11B19320   3.562   5.733   6.530 -0.3093  1.3406 -0.6355
  171SAPE     P19321   3.349   5.604   6.366  0.7695 -0.0815 -0.1543
  171SAPE   O1319322   3.217   5.645   6.311 -0.0889 -0.3186  0.7289
  171SAPE   O1419323   3.414   5.482   6.310 -0.0920 -0.2276 -0.2802
  171SAPE   O1219324   3.451   5.722   6.350 -0.2846 -0.4848  0.3229
  171SAPE   O1119325   3.341   5.593   6.520 -0.3024 -0.1818 -0.2163
  171SAPE    C119326   3.277   5.500   6.603 -0.1271  0.5680 -0.1205
  171SAPE    HA19327   3.183   5.542   6.645  0.4180 -0.2877  2.1519
  171SAPE    HB19328   3.257   5.399   6.561 -1.6662  0.2579  1.2432
  171SAPE    C219329   3.355   5.465   6.738  0.1867  0.4535  0.7048
  171SAPE    HS19330   3.304   5.385   6.796  1.9137 -1.6792 -0.5869
  171SAPE   O2119331   3.377   5.583   6.825 -0.1419 -1.0624  0.7385
  171SAPE   C2119332   3.268   5.620   6.890 -1.1212  0.2904 -0.0808
  171SAPE   O2219333   3.161   5.569   6.871  0.1286 -0.3078 -0.1478
  171SAPE   C2219334   3.291   5.744   6.970 -0.1247  0.8329  0.1355
  171SAPE   H2R19335   3.394   5.744   7.012  0.1656 -2.4182 -0.3223
  171SAPE   H2S19336   3.284   5.829   6.900 -0.9908  1.4648  0.9625
  171SAPE    C319337   3.498   5.403   6.702  0.0064  0.0168  0.2171
  171SAPE    HX19338   3.524   5.448   6.604 -0.9168  1.8451  0.7765
  171SAPE    HY19339   3.481   5.294   6.686  2.2931 -0.6791  1.9834
  171SAPE   O3119340   3.599   5.421   6.805  0.1287  0.3343 -0.1346
  171SAPE   C3119341   3.673   5.533   6.784 -0.4228  0.1714  0.3084
  171SAPE   O3219342   3.699   5.587   6.680  0.0687  0.0474  0.5316
  171SAPE   C3219343   3.705   5.597   6.919 -0.5393 -0.1253 -0.0911
  171SAPE   H2X19344   3.694   5.511   6.990 -1.6377 -0.2377 -0.3750
  171SAPE   H2Y19345   3.622   5.665   6.950 -0.2502  0.6804 -1.0397
  171SAPE   C2319346   3.180   5.765   7.074  0.0541 -0.3956  0.5453
  171SAPE   H3R19347   3.081   5.768   7.023  0.3728  1.4688 -0.0272
  171SAPE   H3S19348   3.195   5.866   7.117  1.2655  0.0911 -0.9218
  171SAPE   C2419349   3.171   5.658   7.189  0.2960 -0.1871 -0.0649
  171SAPE   H4R19350   3.252   5.696   7.255 -1.2306  1.1619  1.1216
  171SAPE   H4S19351   3.204   5.561   7.147  0.7207  0.0073 -0.1895
  171SAPE   C2519352   3.034   5.642   7.250  0.4978 -0.3282 -0.4211
  171SAPE   H5R19353   2.962   5.619   7.170  0.1400 -0.8653  0.0466
  171SAPE   C2619354   3.000   5.674   7.378 -0.5424  0.5398  0.3092
  171SAPE   H6R19355   2.898   5.674   7.419  0.2039  0.7712  2.3205
  171SAPE   C2719356   3.098   5.718   7.481 -0.5654 -0.6118 -0.1406
  171SAPE   H7R19357   3.156   5.803   7.440 -1.7431 -0.0252 -0.6542
  171SAPE   H7S19358   3.173   5.637   7.493 -0.3031 -0.1204  1.7346
  171SAPE   C2819359   3.047   5.756   7.615 -0.4180  0.6731  0.3089
  171SAPE   H8R19360   2.944   5.796   7.610  0.3566  2.6380 -1.9287
  171SAPE   C2919361   3.102   5.748   7.734 -0.5076  0.1355  0.2449
  171SAPE   H9R19362   3.048   5.775   7.826 -0.9479 -1.4906  0.4967
  171SAPE  C21019363   3.242   5.695   7.764  0.1128 -0.8194  0.3846
  171SAPE  H10R19364   3.270   5.625   7.682  1.0992 -0.6083  0.5328
  171SAPE  H10S19365   3.243   5.634   7.857  0.7839 -2.1639 -0.4697
  171SAPE  C21119366   3.350   5.802   7.771 -0.4164  0.4629 -0.8459
  171SAPE  H11R19367   3.316   5.902   7.739 -0.5467  0.6443 -0.1487
  171SAPE  C21219368   3.474   5.793   7.811 -0.5514 -0.3920 -0.5746
  171SAPE  H12R19369   3.538   5.883   7.814  1.0547 -1.5030  0.2865
  171SAPE  C21319370   3.547   5.662   7.865  0.1730  0.1188 -0.0915
  171SAPE  H13R19371   3.610   5.635   7.777 -1.0129 -2.9716 -0.1015
  171SAPE  H13S19372   3.472   5.582   7.877  0.2441  0.0900  0.1672
  171SAPE  C21419373   3.623   5.675   7.997 -0.2112  0.6319 -0.3490
  171SAPE  H14R19374   3.732   5.667   7.985 -0.1480 -3.8320  1.1184
  171SAPE  C21519375   3.569   5.690   8.118  0.5005  1.2141 -0.1036
  171SAPE  H15R19376   3.633   5.701   8.207 -0.1001 -0.5125  0.5823
  171SAPE  C21619377   3.415   5.699   8.127  0.5559  0.1926 -0.3478
  171SAPE  H16R19378   3.370   5.615   8.185 -1.7296  0.9185 -0.9379
  171SAPE  H16S19379   3.358   5.704   8.032 -2.4569  0.2240  1.3213
  171SAPE  C21719380   3.361   5.822   8.205  0.6424 -0.0073  0.2398
  171SAPE  H17R19381   3.403   5.917   8.167  0.3556  0.3227  0.7402
  171SAPE  H17S19382   3.411   5.824   8.305  2.3518 -1.9157 -0.5019
  171SAPE  C21819383   3.203   5.824   8.226  0.4240 -0.0840 -0.2141
  171SAPE  H18R19384   3.185   5.918   8.282 -0.3786  0.4880 -1.3881
  171SAPE  H18S19385   3.169   5.737   8.287  2.5581 -1.5459 -0.9936
  171SAPE  C21919386   3.122   5.833   8.097 -0.3300 -0.8075 -0.2967
  171SAPE  H19R19387   3.138   5.742   8.036  0.8354 -0.4504 -0.5549
  171SAPE  H19S19388   3.180   5.911   8.043  1.1478 -2.1266 -0.7018
  171SAPE  C22019389   2.975   5.857   8.121 -0.3500 -0.0821  0.8083
  171SAPE  H20R19390   2.962   5.950   8.181  0.4226 -0.8654  2.2332
  171SAPE  H20S19391   2.945   5.769   8.181 -0.7506 -1.0984 -0.8182
  171SAPE  H20T19392   2.924   5.862   8.022 -1.5278  1.4141  1.4566
  171SAPE   C3319393   3.842   5.664   6.929 -0.0019  0.2464  0.0365
  171SAPE   H3X19394   3.850   5.742   6.851  2.0771 -0.6987 -0.7768
  171SAPE   H3Y19395   3.908   5.582   6.893  0.8974  0.7470  0.5048
  171SAPE   C3419396   3.882   5.706   7.069 -0.5265  0.2890  0.8947
  171SAPE   H4X19397   3.813   5.778   7.118  0.0677  2.1566 -0.8452
  171SAPE   H4Y19398   3.973   5.769   7.069 -0.9025  0.8382  0.9072
  171SAPE   C3519399   3.906   5.589   7.171 -0.3972 -0.3189  1.0210
  171SAPE   H5X19400   4.000   5.540   7.139  0.3154  1.8600 -0.4781
  171SAPE   H5Y19401   3.816   5.525   7.172 -0.3127 -0.6185 -2.0921
  171SAPE   C3619402   3.917   5.649   7.308  0.0797  0.5789 -0.7993
  171SAPE   H6X19403   3.827   5.712   7.323 -0.8713 -0.7720 -0.5703
  171SAPE   H6Y19404   4.009   5.708   7.321  0.0069  0.8230 -1.3907
  171SAPE   C3719405   3.908   5.539   7.415  0.3516  0.2339 -0.8015
  171SAPE   H7X19406   3.989   5.466   7.393  0.8944  0.9007 -1.0446
  171SAPE   H7Y19407   3.813   5.482   7.402 -0.1886  0.8317  0.3564
  171SAPE   C3819408   3.907   5.588   7.562 -0.2315  0.7577 -0.4057
  171SAPE   H8X19409   3.922   5.495   7.621  0.5181  0.8412 -0.4522
  171SAPE   H8Y19410   3.806   5.624   7.592 -0.7881 -1.3331  0.4354
  171SAPE   C3919411   4.015   5.693   7.595 -0.4758  1.0925 -0.5946
  171SAPE   H9X19412   3.985   5.793   7.556  0.2300  1.1026 -1.1283
  171SAPE   H9Y19413   4.113   5.654   7.559 -0.1384  1.2074  0.1866
  171SAPE  C31019414   4.024   5.717   7.746  0.2801  0.0788 -0.0234
  171SAPE  H10X19415   3.924   5.715   7.794 -0.4212 -0.9802 -1.4693
  171SAPE  H10Y19416   4.072   5.816   7.763 -0.0452  0.1342  0.6195
  171SAPE  C31119417   4.105   5.610   7.827 -0.0045  0.7974  0.2234
  171SAPE  H11X19418   4.194   5.578   7.769  0.4595 -0.9878  1.8032
  171SAPE  H11Y19419   4.042   5.518   7.831  1.2386 -0.0523  0.8753
  171SAPE  C31219420   4.147   5.654   7.962  0.0118  0.6687 -0.4660
  171SAPE  H12X19421   4.216   5.740   7.949  2.6621 -1.5038 -1.5432
  171SAPE  H12Y19422   4.199   5.576   8.021 -2.0732 -0.2921  0.2026
  171SAPE  C31319423   4.030   5.704   8.054 -0.0885 -0.0652 -0.8144
  171SAPE  H13X19424   3.950   5.628   8.059  1.6398 -2.0132 -1.4692
  171SAPE  H13Y19425   3.986   5.801   8.023 -1.0174  0.3689  1.6540
  171SAPE  C31419426   4.083   5.720   8.198  0.6090 -0.5839 -0.2978
  171SAPE  H14X19427   4.014   5.784   8.256  0.4740 -2.2105  1.4377
  171SAPE  H14Y19428   4.179   5.774   8.189  0.7107 -0.8913 -1.1484
  171SAPE  C31519429   4.099   5.593   8.276  0.1086 -0.9663  0.3633
  171SAPE  H15X19430   4.208   5.575   8.277  0.8164  2.2607 -1.7525
  171SAPE  H15Y19431   4.051   5.512   8.217 -0.1647 -1.7713  1.6504
  171SAPE  C31619432   4.028   5.599   8.412 -0.3078  0.3740 -0.0868
  171SAPE  H16X19433   3.925   5.638   8.403 -0.9431 -0.6302  2.2984
  171SAPE  H16Y19434   4.077   5.670   8.483 -1.0931 -0.2311  1.0823
  171SAPE  C31719435   4.026   5.472   8.498 -0.2301  0.4617 -1.1423
  171SAPE  H17X19436   3.982   5.505   8.595  1.4414  2.3355 -0.9722
  171SAPE  H17Y19437   4.126   5.430   8.522 -1.1515 -1.0219  0.3155
  171SAPE  C31819438   3.936   5.357   8.437 -0.9647  0.8089 -0.6688
  171SAPE  H18X19439   3.965   5.311   8.340  0.9215 -1.7867  0.9726
  171SAPE  H18Y19440   3.831   5.393   8.430 -0.9423  0.6226 -2.7554
  171SAPE  H18Z19441   3.944   5.269   8.505  0.1117  1.8690  0.6273
  172SAPE     N19442   3.596   3.622   6.239  0.1169  0.1060  0.3052
  172SAPE   HN119443   3.694   3.602   6.266  0.0368  0.6326  1.0063
  172SAPE   HN219444   3.579   3.556   6.160  0.1865 -0.5199  0.8091
  172SAPE   HN319445   3.600   3.720   6.203  1.2585 -0.2132 -0.5254
  172SAPE   C1219446   3.517   3.610   6.369  0.1846 -0.6724 -0.0503
  172SAPE  H12A19447   3.590   3.635   6.449  2.2628 -0.7095 -1.8226
  172SAPE  H12B19448   3.491   3.503   6.385 -0.7043 -0.0767  3.0743
  172SAPE   C1119449   3.400   3.707   6.383 -0.3351 -0.2449  0.0215
  172SAPE  H11A19450   3.381   3.715   6.492  0.6342  1.2128  0.1175
  172SAPE  H11B19451   3.310   3.661   6.338  0.8117 -2.0270 -0.5416
  172SAPE     P19452   3.399   3.972   6.380 -0.4898  0.1647 -0.0274
  172SAPE   O1319453   3.457   4.082   6.295  0.2768  0.3555 -0.1535
  172SAPE   O1419454   3.255   3.972   6.399 -0.0965 -0.0099 -0.6439
  172SAPE   O1219455   3.431   3.833   6.313 -0.0658 -0.3136 -0.0177
  172SAPE   O1119456   3.477   3.974   6.525  0.2440 -0.6022  0.0346
  172SAPE    C119457   3.618   3.953   6.535 -1.2595 -0.0037 -0.3742
  172SAPE    HA19458   3.651   3.853   6.499 -0.0628  0.3332 -0.2341
  172SAPE    HB19459   3.664   4.033   6.474  1.2769 -0.6066  0.6468
  172SAPE    C219460   3.660   3.958   6.689 -0.1394  0.1209  0.2546
  172SAPE    HS19461   3.755   3.901   6.697 -0.3479 -0.1051  1.3203
  172SAPE   O2119462   3.569   3.884   6.767 -0.1386  0.3692  0.0171
  172SAPE   C2119463   3.549   3.761   6.751 -0.2884 -0.0812 -0.0048
  172SAPE   O2219464   3.609   3.692   6.673 -0.0909  0.9010 -0.3255
  172SAPE   C2219465   3.471   3.710   6.867  0.8839  0.3304  0.1210
  172SAPE   H2R19466   3.389   3.779   6.897  1.5538  0.1212  2.6872
  172SAPE   H2S19467   3.417   3.619   6.831 -0.0578  0.3301  1.4513
  172SAPE    C319468   3.675   4.098   6.748  0.3665  0.4957  0.5390
  172SAPE    HX19469   3.589   4.165   6.726  2.1355  2.3235 -1.1114
  172SAPE    HY19470   3.757   4.145   6.690  2.9603 -1.7929  2.1553
  172SAPE   O3119471   3.716   4.080   6.885  0.0094 -0.1433  0.2656
  172SAPE   C3119472   3.622   4.085   6.978  0.1213 -0.8718 -0.1154
  172SAPE   O3219473   3.505   4.114   6.951  0.3133  0.6905 -0.4290
  172SAPE   C3219474   3.676   4.042   7.111 -0.6471  0.1577 -0.4732
  172SAPE   H2X19475   3.787   4.040   7.107 -0.5642 -0.8588  1.2569
  172SAPE   H2Y19476   3.631   3.946   7.142  1.0849 -0.8904 -1.0656
  172SAPE   C2319477   3.559   3.676   6.976 -0.1199 -0.1963  0.2634
  172SAPE   H3R19478   3.636   3.750   7.008  1.3126 -1.3323 -0.4059
  172SAPE   H3S19479   3.615   3.587   6.939 -1.0147 -0.4397 -0.5567
  172SAPE   C2419480   3.476   3.643   7.107 -0.2782 -0.3621  0.5879
  172SAPE   H4R19481   3.400   3.577   7.062  0.0928  0.6112 -1.5800
  172SAPE   H4S19482   3.421   3.730   7.148 -1.1319 -0.7282  0.2300
  172SAPE   C2519483   3.563   3.570   7.209  0.9061 -0.3523  0.6503
  172SAPE   H5R19484   3.602   3.478   7.163 -0.1692  0.4542 -2.0330
  172SAPE   C2619485   3.594   3.594   7.337 -0.1101 -0.1487  0.7046
  172SAPE   H6R19486   3.649   3.513   7.387  1.6762 -1.3857 -2.9110
  172SAPE   C2719487   3.559   3.716   7.410  0.2603  0.2193  0.3218
  172SAPE   H7R19488   3.539   3.798   7.337 -0.1578  0.5093  0.7624
  172SAPE   H7S19489   3.653   3.752   7.457  0.3793  0.0275  0.2365
  172SAPE   C2819490   3.451   3.701   7.514  0.2848 -0.7493  0.1753
  172SAPE   H8R19491   3.346   3.692   7.483 -0.0577 -0.2026  1.1263
  172SAPE   C2919492   3.476   3.685   7.646 -0.1010 -0.5764 -0.1979
  172SAPE   H9R19493   3.381   3.668   7.700 -0.4790 -2.0813 -1.2418
  172SAPE  C21019494   3.609   3.673   7.717 -0.4542  0.2664 -0.2423
  172SAPE  H10R19495   3.698   3.668   7.650  1.2289  0.0557  1.8883
  172SAPE  H10S19496   3.622   3.573   7.764  0.9748  1.1480  1.3694
  172SAPE  C21119497   3.625   3.764   7.832 -0.3040 -0.7160 -0.4694
  172SAPE  H11R19498   3.637   3.866   7.792 -0.8924  1.4178  4.1978
  172SAPE  C21219499   3.641   3.728   7.963 -0.2621 -0.0179  0.0221
  172SAPE  H12R19500   3.650   3.811   8.035 -1.2532 -0.2097  0.3874
  172SAPE  C21319501   3.627   3.584   8.028  0.2035 -0.1626  0.4418
  172SAPE  H13R19502   3.624   3.502   7.954  0.8088 -0.0008  0.2345
  172SAPE  H13S19503   3.532   3.578   8.086  0.4910 -1.1972  0.8200
  172SAPE  C21419504   3.745   3.573   8.124 -0.1659  0.2797 -0.1289
  172SAPE  H14R19505   3.845   3.595   8.083  1.1855 -1.2951  2.0609
  172SAPE  C21519506   3.737   3.537   8.255 -0.4982 -0.1825  0.0048
  172SAPE  H15R19507   3.833   3.538   8.310 -0.5306  0.9568  0.0500
  172SAPE  C21619508   3.613   3.513   8.336 -0.2428  0.2431  0.8950
  172SAPE  H16R19509   3.571   3.414   8.309  1.4489  0.1832 -1.8534
  172SAPE  H16S19510   3.531   3.586   8.320  0.9175  2.0254  2.6366
  172SAPE  C21719511   3.668   3.502   8.483 -0.5475  0.0526  1.2413
  172SAPE  H17R19512   3.726   3.412   8.510  1.5104  1.6100  2.3452
  172SAPE  H17S19513   3.587   3.484   8.557 -0.2770  0.0403  1.5334
  172SAPE  C21819514   3.725   3.635   8.536 -0.6247 -0.4658  0.0775
  172SAPE  H18R19515   3.635   3.698   8.555  0.2339  1.3064 -1.3628
  172SAPE  H18S19516   3.788   3.689   8.462 -1.4515 -1.4337 -1.3787
  172SAPE  C21919517   3.815   3.640   8.665 -0.1753 -0.0628  0.9337
  172SAPE  H19R19518   3.782   3.571   8.745  1.1324  0.4576  1.9574
  172SAPE  H19S19519   3.818   3.746   8.699  2.0757  0.7564 -1.4561
  172SAPE  C22019520   3.963   3.602   8.638 -0.3874  1.1673 -0.5080
  172SAPE  H20R19521   4.029   3.678   8.591  2.7990 -1.4064 -0.5491
  172SAPE  H20S19522   3.960   3.511   8.574 -0.3552  0.0302  1.0478
  172SAPE  H20T19523   4.003   3.568   8.736 -2.3210  0.3500  0.0489
  172SAPE   C3319524   3.636   4.144   7.220 -0.5300 -0.5343 -0.2090
  172SAPE   H3X19525   3.527   4.164   7.224 -0.4740 -0.3000  3.3143
  172SAPE   H3Y19526   3.700   4.232   7.196  1.6463 -2.6944 -3.0441
  172SAPE   C3419527   3.680   4.097   7.357  0.7988  0.0330 -0.4556
  172SAPE   H4X19528   3.773   4.035   7.353  0.9946  0.2143  0.8310
  172SAPE   H4Y19529   3.588   4.050   7.398 -0.9842  3.7106  0.1641
  172SAPE   C3519530   3.700   4.205   7.467 -0.4473 -0.2434  0.4835
  172SAPE   H5X19531   3.623   4.285   7.458  1.3212  1.4554 -0.2018
  172SAPE   H5Y19532   3.797   4.251   7.440 -0.7860  0.0043 -0.3568
  172SAPE   C3619533   3.703   4.153   7.607 -0.4411  0.0090 -0.7063
  172SAPE   H6X19534   3.743   4.050   7.612  1.6919  0.6484 -2.6626
  172SAPE   H6Y19535   3.604   4.163   7.657 -0.1636  2.0224 -0.4607
  172SAPE   C3719536   3.769   4.249   7.708  0.5609  0.4448 -0.3575
  172SAPE   H7X19537   3.725   4.351   7.709 -0.9698 -0.1473 -2.1647
  172SAPE   H7Y19538   3.872   4.260   7.669  0.2279 -0.3235 -1.5059
  172SAPE   C3819539   3.759   4.185   7.856 -0.7670  0.4455  0.5874
  172SAPE   H8X19540   3.786   4.077   7.848 -1.4817  0.3765 -1.1515
  172SAPE   H8Y19541   3.654   4.178   7.892 -0.7101 -0.0254  0.6732
  172SAPE   C3919542   3.842   4.269   7.961 -0.6421 -0.2723 -0.2774
  172SAPE   H9X19543   3.783   4.356   7.997 -1.1922 -1.2138  1.2133
  172SAPE   H9Y19544   3.927   4.317   7.908 -0.5871  2.2886  1.9116
  172SAPE  C31019545   3.898   4.190   8.085  0.0896 -0.2283 -0.2714
  172SAPE  H10X19546   3.964   4.263   8.136 -1.4397  1.6798 -0.9169
  172SAPE  H10Y19547   3.951   4.103   8.042  1.0212 -0.5601  1.4617
  172SAPE  C31119548   3.791   4.134   8.177 -0.3425 -0.1019  0.0548
  172SAPE  H11X19549   3.738   4.044   8.139 -0.1439 -0.5018  0.6974
  172SAPE  H11Y19550   3.707   4.206   8.184 -0.4104 -0.2491  0.8587
  172SAPE  C31219551   3.839   4.108   8.323  0.4759 -0.1069 -0.1503
  172SAPE  H12X19552   3.876   4.204   8.366 -1.5207  0.9491 -0.6373
  172SAPE  H12Y19553   3.929   4.043   8.321  1.2849  0.7944  2.7304
  172SAPE  C31319554   3.723   4.054   8.401  0.0235  1.0888 -0.6166
  172SAPE  H13X19555   3.682   3.957   8.365  0.8812 -0.4833  2.2916
  172SAPE  H13Y19556   3.635   4.122   8.402 -2.0555 -1.3538  2.4028
  172SAPE  C31419557   3.763   4.033   8.548  0.2539  0.4226  0.1986
  172SAPE  H14X19558   3.826   4.117   8.585 -1.5234  0.6007  3.1971
  172SAPE  H14Y19559   3.826   3.942   8.560  2.5443  2.0434  1.2142
  172SAPE  C31519560   3.649   4.014   8.648  0.4361  0.3326  0.0097
  172SAPE  H15X19561   3.609   3.911   8.643  0.6208  0.3220 -1.7777
  172SAPE  H15Y19562   3.566   4.079   8.612 -0.5649 -0.7865  0.2446
  172SAPE  C31619563   3.685   4.035   8.795 -0.5141  0.0166  0.1314
  172SAPE  H16X19564   3.703   4.143   8.816 -1.5992  0.2828 -0.2430
  172SAPE  H16Y19565   3.781   3.979   8.802 -0.2250  0.5319  0.3831
  172SAPE  C31719566   3.591   3.965   8.896 -0.4371  0.1478 -0.7076
  172SAPE  H17X19567   3.593   3.854   8.886  0.0214 -0.3214  3.0563
  172SAPE  H17Y19568   3.485   3.995   8.883 -0.4728 -0.1412 -1.1217
  172SAPE  C31819569   3.619   4.005   9.038  0.3069  0.0998 -0.7378
  172SAPE  H18X19570   3.599   4.112   9.061 -1.7825 -0.1853 -0.9994
  172SAPE  H18Y19571   3.726   3.987   9.061  0.3389 -0.3226 -1.2085
  172SAPE  H18Z19572   3.550   3.952   9.107  0.2971  2.1860  0.9840
  173SOPE     N19573   3.519   3.471  10.813  0.3888  0.1760  0.0925
  173SOPE   HN119574   3.498   3.512  10.720 -0.0786 -0.1669  0.0450
  173SOPE   HN219575   3.429   3.431  10.846  0.4422 -0.0041  0.0215
  173SOPE   HN319576   3.546   3.549  10.876 -2.3904  1.0325  0.3739
  173SOPE   C1219577   3.635   3.379  10.808  0.0899  0.1108  0.5409
  173SOPE  H12A19578   3.708   3.424  10.738  1.1801 -2.6705 -0.2744
  173SOPE  H12B19579   3.599   3.285  10.759  0.5564 -1.3629  2.8834
  173SOPE   C1119580   3.688   3.351  10.945  0.6834 -0.0229  0.6260
  173SOPE  H11A19581   3.743   3.445  10.967  0.6917 -0.1161  0.9981
  173SOPE  H11B19582   3.760   3.266  10.941  1.9967  1.0960 -0.6365
  173SOPE     P19583   3.525   3.183  11.068  0.0136 -0.3434 -0.1445
  173SOPE   O1319584   3.384   3.196  11.094 -0.3829 -0.4771  0.1935
  173SOPE   O1419585   3.604   3.124  11.177 -0.0189  0.0279 -0.4077
  173SOPE   O1219586   3.579   3.327  11.029  0.0516 -0.9549  0.1468
  173SOPE   O1119587   3.528   3.096  10.940  0.2131  0.0541  0.2161
  173SOPE    C119588   3.638   3.018  10.893  0.0999  1.0479 -0.6090
  173SOPE    HA19589   3.707   2.986  10.974  0.6879 -0.2726 -1.5979
  173SOPE    HB19590   3.697   3.081  10.823 -0.1011 -0.2490 -1.9764
  173SOPE    C219591   3.583   2.896  10.823  0.2426  0.2482  0.4026
  173SOPE    HS19592   3.669   2.830  10.799 -0.5131 -0.2682 -1.0398
  173SOPE   O2119593   3.512   2.946  10.709  0.1188  0.5623  0.0881
  173SOPE   C2119594   3.578   2.931  10.595 -0.0742  0.0624  0.4296
  173SOPE   O2219595   3.687   2.889  10.581  0.3369  0.1639  0.7279
  173SOPE   C2219596   3.491   2.989  10.484 -0.3862  0.4158  0.1943
  173SOPE   H2R19597   3.460   3.090  10.517 -0.3850 -0.5542  3.5502
  173SOPE   H2S19598   3.406   2.920  10.464  2.2777 -2.8089 -0.9672
  173SOPE    C319599   3.495   2.821  10.923 -0.3597 -0.6790  0.2617
  173SOPE    HX19600   3.412   2.889  10.954  1.3636  1.5071  0.3413
  173SOPE    HY19601   3.552   2.800  11.016  0.4931 -3.2105 -0.7343
  173SOPE   O3119602   3.433   2.712  10.867  0.6020 -0.0159  0.0553
  173SOPE   C3119603   3.504   2.600  10.864 -0.4964 -0.1656 -0.2115
  173SOPE   O3219604   3.611   2.593  10.921 -0.3982  0.0435  0.7635
  173SOPE   C3219605   3.429   2.486  10.787 -0.7987  0.1958 -0.2878
  173SOPE   H2X19606   3.325   2.525  10.781  0.0147  2.2827 -2.7060
  173SOPE   H2Y19607   3.430   2.401  10.858  0.2633  0.3663 -0.0727
  173SOPE   C2319608   3.555   2.996  10.340 -0.3614  0.3407 -0.9961
  173SOPE   H3R19609   3.601   2.903  10.302  0.9625  1.1774 -1.5297
  173SOPE   H3S19610   3.635   3.072  10.357  0.0588 -0.1299 -0.8442
  173SOPE   C2419611   3.451   3.042  10.241 -0.4684 -0.2083  0.1014
  173SOPE   H4R19612   3.394   2.950  10.218 -0.1791  0.4008 -3.8024
  173SOPE   H4S19613   3.395   3.112  10.307 -0.7215  0.6236 -0.9700
  173SOPE   C2519614   3.500   3.109  10.108 -0.1745 -0.1630 -0.4299
  173SOPE   H5R19615   3.422   3.178  10.069  0.4069 -0.3454 -1.9903
  173SOPE   H5S19616   3.585   3.170  10.143 -0.2610 -0.9911  1.3050
  173SOPE   C2619617   3.555   3.013  10.009  0.0614 -0.6430  0.0301
  173SOPE   H6R19618   3.639   2.967  10.065  0.4741  2.8726  2.6000
  173SOPE   H6S19619   3.477   2.942   9.974  0.9160 -0.2294 -3.0477
  173SOPE   C2719620   3.598   3.086   9.872  0.0164 -0.0867 -0.3432
  173SOPE   H7R19621   3.516   3.157   9.849  1.0899  0.3409 -3.3274
  173SOPE   H7S19622   3.693   3.141   9.889 -0.1124  0.8465 -2.3048
  173SOPE   C2819623   3.609   2.991   9.749  0.2191  0.1737  0.3952
  173SOPE   H8R19624   3.666   2.897   9.764  0.5081  0.1553 -0.7118
  173SOPE   H8S19625   3.500   2.978   9.732 -0.5207  4.0408  1.1340
  173SOPE   C2919626   3.673   3.057   9.627  0.1926  0.6609  0.0448
  173SOPE   H9119627   3.659   3.164   9.649 -1.4540  0.3179  0.9038
  173SOPE  C21019628   3.750   3.006   9.528 -0.1925  0.3163 -0.4116
  173SOPE  H10119629   3.772   3.082   9.451  0.0877 -0.4263 -1.0748
  173SOPE  C21119630   3.791   2.862   9.518 -0.7055  0.4046  0.1248
  173SOPE  H11R19631   3.739   2.806   9.599 -0.9485 -0.6106 -0.7079
  173SOPE  H11S19632   3.899   2.838   9.527 -0.9584 -0.7109  0.4212
  173SOPE  C21219633   3.737   2.798   9.381 -0.0238 -0.4391 -0.2982
  173SOPE  H12R19634   3.627   2.813   9.382 -0.0362 -0.3382 -1.6487
  173SOPE  H12S19635   3.762   2.691   9.392 -0.0730 -0.4890 -0.6565
  173SOPE  C21319636   3.811   2.854   9.261  0.0785  0.3451  0.1781
  173SOPE  H13R19637   3.917   2.879   9.285  0.5733  0.0311 -1.4760
  173SOPE  H13S19638   3.756   2.947   9.235  0.6993  0.6944  0.0899
  173SOPE  C21419639   3.811   2.757   9.140  0.5379 -0.0398  0.1599
  173SOPE  H14R19640   3.706   2.725   9.122  0.2616  0.4889  0.7682
  173SOPE  H14S19641   3.879   2.676   9.171 -1.2604 -1.2462  1.1555
  173SOPE  C21519642   3.853   2.815   9.006 -0.1078  0.2365 -0.4587
  173SOPE  H15R19643   3.957   2.853   8.996  0.3304 -1.1444 -1.5637
  173SOPE  H15S19644   3.780   2.899   9.010 -3.4448 -2.4927  0.4938
  173SOPE  C21619645   3.823   2.721   8.889  0.4431 -0.2836  0.1399
  173SOPE  H16R19646   3.814   2.778   8.794  1.2851 -1.6283 -0.7749
  173SOPE  H16S19647   3.722   2.676   8.902  0.3445 -0.3953 -0.9147
  173SOPE  C21719648   3.905   2.593   8.864 -0.3797  0.2162  0.1498
  173SOPE  H17R19649   3.848   2.532   8.791  0.6363  1.3226 -1.6617
  173SOPE  H17S19650   3.928   2.540   8.959  3.6043  1.0638 -0.1536
  173SOPE  C21819651   4.044   2.619   8.805 -0.1299 -0.9141 -0.2358
  173SOPE  H18R19652   4.105   2.678   8.877 -0.6896 -1.1711  0.4519
  173SOPE  H18S19653   4.043   2.681   8.712  1.5684 -1.5107 -0.7075
  173SOPE  H18T19654   4.092   2.523   8.775  0.2815 -1.2901  1.5369
  173SOPE   C3319655   3.502   2.452  10.649 -0.0328 -0.3731  0.1119
  173SOPE   H3X19656   3.477   2.351  10.609  0.9437 -0.8369  0.6056
  173SOPE   H3Y19657   3.611   2.437  10.667  0.0569  0.1689  0.0224
  173SOPE   C3419658   3.480   2.566  10.544  0.0492  0.5831 -0.8949
  173SOPE   H4X19659   3.570   2.631  10.541 -0.5620  1.4224 -1.5274
  173SOPE   H4Y19660   3.393   2.625  10.578 -0.4979 -0.8996  0.4207
  173SOPE   C3519661   3.452   2.502  10.409  0.2457  0.0855 -0.0126
  173SOPE   H5X19662   3.353   2.452  10.408 -0.6233  1.7291  0.6703
  173SOPE   H5Y19663   3.530   2.423  10.399 -0.3554 -0.7733  1.7227
  173SOPE   C3619664   3.447   2.602  10.293 -0.2053 -0.2004 -0.2293
  173SOPE   H6X19665   3.530   2.676  10.297 -1.2745  0.9994  0.7598
  173SOPE   H6Y19666   3.356   2.659  10.321 -0.2115  1.4640 -3.1673
  173SOPE   C3719667   3.456   2.537  10.153  0.9482 -0.6958  0.4222
  173SOPE   H7X19668   3.365   2.477  10.133  0.2580  0.7775 -1.1348
  173SOPE   H7Y19669   3.548   2.476  10.138 -0.3746 -2.0936 -3.0085
  173SOPE   C3819670   3.448   2.646  10.042 -0.5317 -0.0467  0.2469
  173SOPE   H8X19671   3.533   2.718  10.036 -0.0630 -0.4302  1.8231
  173SOPE   H8Y19672   3.363   2.708  10.078  0.4630  1.0064  0.8338
  173SOPE   C3919673   3.423   2.570   9.914 -0.1164  0.0666  0.2318
  173SOPE   H9X19674   3.327   2.513   9.920  0.3748 -0.7331  0.5642
  173SOPE   H9Y19675   3.497   2.488   9.907 -2.1641 -1.7578 -2.0501
  173SOPE  C31019676   3.389   2.639   9.784 -0.3971  0.3853  0.0100
  173SOPE  H10X19677   3.472   2.705   9.751 -1.8474  1.7890 -0.9550
  173SOPE  H10Y19678   3.303   2.704   9.811 -0.5958 -1.1781  3.7053
  173SOPE  C31119679   3.373   2.543   9.670  0.0521  0.6019 -0.1376
  173SOPE  H11X19680   3.279   2.484   9.679  0.9227 -0.8457 -0.2796
  173SOPE  H11Y19681   3.459   2.473   9.667 -0.1685  0.3249 -0.0248
  173SOPE  C31219682   3.371   2.626   9.536 -0.7817 -0.0544  0.1608
  173SOPE  H12X19683   3.473   2.671   9.539 -1.4633  1.5034  1.2551
  173SOPE  H12Y19684   3.288   2.699   9.540 -0.7892 -0.0993  1.0318
  173SOPE  C31319685   3.354   2.537   9.406 -0.3524 -0.4438  0.1706
  173SOPE  H13X19686   3.247   2.507   9.392 -0.1175 -1.4817  0.5269
  173SOPE  H13Y19687   3.404   2.440   9.423 -0.3720 -0.3785  0.6145
  173SOPE  C31419688   3.409   2.597   9.277  0.5649  0.0407 -0.1390
  173SOPE  H14X19689   3.520   2.594   9.283  0.5516  0.3267  0.3132
  173SOPE  H14Y19690   3.390   2.706   9.267  2.7680  0.2872 -2.9973
  173SOPE  C31519691   3.352   2.533   9.144 -0.1480 -0.4139 -0.2737
  173SOPE  H15X19692   3.242   2.547   9.142 -0.2287 -0.7635  1.0067
  173SOPE  H15Y19693   3.368   2.424   9.155  0.5444 -0.2858  0.0332
  173SOPE  C31619694   3.400   2.587   9.004 -0.6582 -0.2788 -0.3408
  173SOPE  H16X19695   3.511   2.589   9.006 -0.6556  0.6699 -0.8823
  173SOPE  H16Y19696   3.348   2.684   8.989 -1.7870 -0.6385  1.0088
  173SOPE  C31719697   3.354   2.480   8.903 -0.8584  0.9382 -0.0375
  173SOPE  H17X19698   3.259   2.424   8.918 -0.8779 -0.5541 -4.3480
  173SOPE  H17Y19699   3.427   2.397   8.903  0.2219  1.8671  0.5304
  173SOPE  C31819700   3.358   2.523   8.756 -0.7027 -0.0499  0.2169
  173SOPE  H18X19701   3.382   2.445   8.680  0.9373  1.1586 -0.5535
  173SOPE  H18Y19702   3.436   2.601   8.747  1.1762 -1.7409  0.9792
  173SOPE  H18Z19703   3.260   2.566   8.726 -0.6359 -1.2956 -1.9954
  174SOPE     N19704   2.763   2.703  11.349  0.1872  0.0695 -0.1045
  174SOPE   HN119705   2.758   2.601  11.332 -4.2910  0.1599 -0.4932
  174SOPE   HN219706   2.832   2.727  11.423  3.4806  0.0699 -2.9175
  174SOPE   HN319707   2.666   2.715  11.384  1.2093  0.4123  2.8418
  174SOPE   C1219708   2.790   2.814  11.246 -0.0604 -0.7710 -0.3244
  174SOPE  H12A19709   2.751   2.914  11.276  0.8119  0.1901 -2.2356
  174SOPE  H12B19710   2.740   2.782  11.152  0.5012  1.4565 -1.4366
  174SOPE   C1119711   2.940   2.825  11.219 -0.3821 -0.2301  0.0098
  174SOPE  H11A19712   2.990   2.833  11.318 -2.8874  2.0555  1.2293
  174SOPE  H11B19713   2.954   2.924  11.170 -1.6145  0.8560  1.7327
  174SOPE     P19714   3.136   2.719  11.079  0.6502  0.1711  0.3096
  174SOPE   O1319715   3.190   2.579  11.089 -0.0364 -0.0366 -0.1985
  174SOPE   O1419716   3.217   2.831  11.139  0.2692 -0.1064  0.4016
  174SOPE   O1219717   2.989   2.724  11.134 -0.0412  0.5955 -0.1703
  174SOPE   O1119718   3.108   2.743  10.924 -0.7911  0.2723 -0.2544
  174SOPE    C119719   3.112   2.873  10.873 -0.5999 -0.1669  0.3211
  174SOPE    HA19720   3.218   2.890  10.845 -0.1178 -3.6773 -0.4820
  174SOPE    HB19721   3.079   2.945  10.950  0.1499 -1.1795  1.6210
  174SOPE    C219722   3.013   2.878  10.760 -0.6696  0.2949  0.5123
  174SOPE    HS19723   3.021   2.982  10.721 -0.8068  0.2368  0.3277
  174SOPE   O2119724   2.873   2.858  10.802 -0.5097  0.2163 -0.2225
  174SOPE   C2119725   2.807   2.954  10.871  0.6768  0.0558 -0.1624
  174SOPE   O2219726   2.860   3.049  10.924 -0.3058  0.0135 -0.0406
  174SOPE   C2219727   2.652   2.933  10.862 -0.1244  0.2652  0.6315
  174SOPE   H2R19728   2.597   3.027  10.881 -0.4019  0.4476 -0.9043
  174SOPE   H2S19729   2.623   2.868  10.947  0.6337  1.4578  1.8487
  174SOPE    C319730   3.055   2.783  10.643  0.0261 -0.2110 -0.1512
  174SOPE    HX19731   3.022   2.683  10.678  0.7056  0.0218  1.1986
  174SOPE    HY19732   3.166   2.785  10.639  0.1566  3.3595  1.3093
  174SOPE   O3119733   3.003   2.815  10.514 -0.1391 -0.2339  0.2687
  174SOPE   C3119734   3.046   2.926  10.455 -0.3289  0.6515  0.1905
  174SOPE   O3219735   3.143   2.993  10.486 -0.6533  0.2282  0.1052
  174SOPE   C3219736   2.959   2.957  10.333 -0.4122 -0.0682  0.6702
  174SOPE   H2X19737   2.885   3.038  10.353 -1.4300 -0.4933 -1.1868
  174SOPE   H2Y19738   2.899   2.865  10.312  0.5215 -0.4284 -0.5212
  174SOPE   C2319739   2.603   2.868  10.732  0.2327  0.1663 -0.0882
  174SOPE   H3R19740   2.492   2.866  10.744  0.2406 -0.1016 -0.0706
  174SOPE   H3S19741   2.627   2.760  10.727 -1.4864 -0.1757 -1.8256
  174SOPE   C2419742   2.636   2.957  10.606 -0.6607  0.0837  0.2839
  174SOPE   H4R19743   2.586   3.054  10.625  0.3902  1.2633 -2.4374
  174SOPE   H4S19744   2.745   2.976  10.595 -0.7759  0.0432 -1.0008
  174SOPE   C2519745   2.585   2.891  10.477  0.9383  0.1760  0.1347
  174SOPE   H5R19746   2.669   2.823  10.456  0.5315  0.1328 -1.5318
  174SOPE   H5S19747   2.501   2.824  10.507  0.3038  2.1511  3.3319
  174SOPE   C2619748   2.538   2.984  10.364 -0.5823 -0.3756  0.5911
  174SOPE   H6R19749   2.482   3.072  10.403 -1.4419 -1.7114  2.4563
  174SOPE   H6S19750   2.637   3.006  10.318 -1.4656 -0.0437 -1.2540
  174SOPE   C2719751   2.453   2.919  10.248  0.2909 -0.4236 -0.4519
  174SOPE   H7R19752   2.484   2.813  10.231  1.4234 -0.0538 -0.8168
  174SOPE   H7S19753   2.346   2.914  10.277  0.5176 -5.3743  0.5584
  174SOPE   C2819754   2.463   2.979  10.106 -0.7924 -0.8968 -0.2494
  174SOPE   H8R19755   2.374   2.954  10.043  0.1374  0.1516 -2.0734
  174SOPE   H8S19756   2.464   3.089  10.121  1.5088 -0.9899  0.6114
  174SOPE   C2919757   2.593   2.947  10.038  0.6948  0.2438 -0.7761
  174SOPE   H9119758   2.684   2.992  10.080  0.9502  0.8449 -1.9272
  174SOPE  C21019759   2.603   2.869   9.930  0.2116 -0.3554  0.6176
  174SOPE  H10119760   2.703   2.837   9.898  0.6447  1.0122  0.5169
  174SOPE  C21119761   2.497   2.804   9.840  0.1489 -0.2634 -0.0907
  174SOPE  H11R19762   2.407   2.782   9.901  1.0991 -0.2194  1.3758
  174SOPE  H11S19763   2.537   2.709   9.800 -0.1892  0.2322 -1.6855
  174SOPE  C21219764   2.458   2.896   9.720 -0.5109 -0.2699 -0.0491
  174SOPE  H12R19765   2.429   3.001   9.742  0.0927  0.4996 -2.5560
  174SOPE  H12S19766   2.371   2.855   9.665 -0.1768 -0.5890 -0.3408
  174SOPE  C21319767   2.578   2.910   9.623 -0.1636 -0.5956  0.4041
  174SOPE  H13R19768   2.616   2.806   9.615 -1.9576 -1.3251  0.8391
  174SOPE  H13S19769   2.645   2.990   9.660 -0.9151 -0.0691  0.6403
  174SOPE  C21419770   2.542   2.970   9.487 -0.3387  0.7503  0.8619
  174SOPE  H14R19771   2.535   3.080   9.488  0.8429  0.8415  1.9691
  174SOPE  H14S19772   2.441   2.933   9.461  0.9620 -1.0422 -2.2680
  174SOPE  C21519773   2.642   2.919   9.380 -0.1102  0.3299 -0.0118
  174SOPE  H15R19774   2.637   2.809   9.389  0.3812  0.3278  0.2635
  174SOPE  H15S19775   2.745   2.940   9.416  0.0481 -1.6728  0.8425
  174SOPE  C21619776   2.606   2.978   9.246  0.0334 -0.3665  0.2030
  174SOPE  H16R19777   2.683   2.932   9.181 -1.0222 -3.1692  0.7844
  174SOPE  H16S19778   2.608   3.088   9.230 -2.0068 -0.3164  0.0316
  174SOPE  C21719779   2.477   2.919   9.194 -0.1048  0.4895 -0.1034
  174SOPE  H17R19780   2.467   2.974   9.097  1.9798  0.6569 -0.2741
  174SOPE  H17S19781   2.391   2.944   9.260  0.6245 -2.2268  2.0293
  174SOPE  C21819782   2.498   2.764   9.168  0.4600  0.4401  0.0860
  174SOPE  H18R19783   2.500   2.701   9.259 -0.0642  0.2530 -0.0317
  174SOPE  H18S19784   2.591   2.741   9.112  0.9446  1.7398  0.3166
  174SOPE  H18T19785   2.416   2.729   9.102 -0.9455 -0.1178  2.0187
  174SOPE   C3319786   3.054   2.988  10.214  0.2862  0.3982 -0.1547
  174SOPE   H3X19787   3.116   2.895  10.211 -0.7963 -0.3613  0.2452
  174SOPE   H3Y19788   3.129   3.064  10.245  2.1448 -1.1477 -0.5876
  174SOPE   C3419789   2.993   3.010  10.074  0.4752  0.5259 -0.2491
  174SOPE   H4X19790   2.925   3.097  10.060  1.0040  0.8144 -1.1426
  174SOPE   H4Y19791   2.919   2.928  10.062  0.9978  0.0876 -0.5163
  174SOPE   C3519792   3.093   2.999   9.966 -0.3258 -0.3845  0.1999
  174SOPE   H5X19793   3.116   2.893   9.944 -1.1076 -0.1193 -2.1964
  174SOPE   H5Y19794   3.185   3.047  10.005 -0.5167  0.8479 -0.7848
  174SOPE   C3619795   3.066   3.089   9.841 -0.3452  0.0931 -0.3858
  174SOPE   H6X19796   3.027   3.185   9.880 -1.4104  0.4986 -2.3439
  174SOPE   H6Y19797   2.982   3.040   9.788  0.5859 -4.8944  2.1223
  174SOPE   C3719798   3.194   3.120   9.762 -0.3211 -0.4722  0.5974
  174SOPE   H7X19799   3.238   3.023   9.729  0.0678 -1.5116  3.8322
  174SOPE   H7Y19800   3.270   3.160   9.832  0.2853 -0.7748  0.1209
  174SOPE   C3819801   3.161   3.210   9.638  0.4736 -0.0459 -0.6346
  174SOPE   H8X19802   3.155   3.312   9.682 -0.3897 -0.2021 -0.3825
  174SOPE   H8Y19803   3.067   3.169   9.598  0.9385 -3.1277  1.0700
  174SOPE   C3919804   3.270   3.229   9.534  0.5564 -0.1091 -0.3209
  174SOPE   H9X19805   3.367   3.253   9.583 -0.9621  0.4964  2.6152
  174SOPE   H9Y19806   3.244   3.312   9.464  1.4475  0.6945  0.2878
  174SOPE  C31019807   3.306   3.096   9.460  0.2278  0.5582 -0.0592
  174SOPE  H10X19808   3.216   3.057   9.408 -1.8376  3.0479  1.3626
  174SOPE  H10Y19809   3.332   3.023   9.539  2.2805  1.1216 -0.1763
  174SOPE  C31119810   3.412   3.118   9.350 -0.4588 -0.8715  0.0912
  174SOPE  H11X19811   3.504   3.164   9.390 -0.9448 -0.8123  1.1727
  174SOPE  H11Y19812   3.365   3.201   9.292 -0.9585 -0.9603  0.3612
  174SOPE  C31219813   3.427   3.012   9.250 -1.2075  0.3658  0.9683
  174SOPE  H12X19814   3.329   2.965   9.227  0.3029 -2.0075 -1.1995
  174SOPE  H12Y19815   3.484   2.929   9.296  0.3331  0.5619 -0.4729
  174SOPE  C31319816   3.495   3.060   9.116  0.0976  0.4965 -0.7623
  174SOPE  H13X19817   3.597   3.093   9.142 -0.0985  0.4392  0.1135
  174SOPE  H13Y19818   3.444   3.152   9.081  1.3915  1.3659 -0.4269
  174SOPE  C31419819   3.495   2.965   9.002 -0.1131 -0.3265  0.1003
  174SOPE  H14X19820   3.500   2.859   9.035 -1.3892 -0.1277  0.9841
  174SOPE  H14Y19821   3.587   2.997   8.948 -0.4501  0.6826  0.1123
  174SOPE  C31519822   3.386   2.985   8.897 -0.2158 -0.4277  0.1584
  174SOPE  H15X19823   3.383   3.094   8.876 -0.6602 -0.8129 -2.0398
  174SOPE  H15Y19824   3.291   2.974   8.954 -0.9447 -0.9210 -1.1175
  174SOPE  C31619825   3.394   2.917   8.759 -0.2834  0.3263 -0.0884
  174SOPE  H16X19826   3.352   2.814   8.757 -2.0271  1.0017  0.2477
  174SOPE  H16Y19827   3.498   2.916   8.720 -0.1991  0.6019  0.1238
  174SOPE  C31719828   3.328   2.995   8.641 -0.5808 -0.2207 -0.8330
  174SOPE  H17X19829   3.396   3.080   8.617  2.7592 -2.4550  0.0320
  174SOPE  H17Y19830   3.235   3.047   8.675 -0.1686 -0.2103  0.3377
  174SOPE  C31819831   3.322   2.895   8.527  0.1709 -0.0380 -0.4151
  174SOPE  H18X19832   3.267   2.806   8.564 -0.2584  0.1906 -0.4850
  174SOPE  H18Y19833   3.424   2.875   8.488  0.6677 -2.8064  1.9699
  174SOPE  H18Z19834   3.255   2.954   8.460 -0.1904  1.4609  1.1696
  175SOPE     N19835   4.931   2.951  10.754  0.5639  0.0913  0.4489
  175SOPE   HN119836   4.900   3.039  10.709 -1.1460  0.3435  2.0182
  175SOPE   HN219837   4.878   2.938  10.843  0.4915 -0.3897  0.3370
  175SOPE   HN319838   5.032   2.958  10.780  0.8502  2.0562 -0.9631
  175SOPE   C1219839   4.920   2.841  10.655 -0.5260  0.9409 -0.2345
  175SOPE  H12A19840   4.961   2.747  10.698  1.8036  1.1563 -1.7860
  175SOPE  H12B19841   4.978   2.871  10.565  0.8557 -0.2372  0.2165
  175SOPE   C1119842   4.775   2.813  10.624 -0.3605 -0.1951 -0.6651
  175SOPE  H11A19843   4.749   2.730  10.554 -3.0874 -1.4627  1.6487
  175SOPE  H11B19844   4.736   2.902  10.572 -0.1657 -1.7612 -3.7425
  175SOPE     P19845   4.547   2.786  10.741  0.3580  0.2040 -0.3636
  175SOPE   O1319846   4.502   2.928  10.750 -0.5097 -0.3587 -0.2515
  175SOPE   O1419847   4.490   2.693  10.847 -0.0718  0.0118 -0.2625
  175SOPE   O1219848   4.708   2.772  10.742  0.0192 -0.2555 -0.7003
  175SOPE   O1119849   4.497   2.738  10.597  0.3592  0.5910  0.5186
  175SOPE    C119850   4.459   2.830  10.497  0.0708  0.1844 -0.3837
  175SOPE    HA19851   4.548   2.888  10.466 -1.0769  3.4326  1.8594
  175SOPE    HB19852   4.384   2.892  10.550  0.8717 -0.0193  1.0343
  175SOPE    C219853   4.393   2.768  10.373  0.7760 -0.3064  0.4275
  175SOPE    HS19854   4.293   2.732  10.404 -0.3557  1.9480 -0.3634
  175SOPE   O2119855   4.478   2.664  10.317  0.0222 -0.2222  0.4940
  175SOPE   C2119856   4.456   2.544  10.382 -0.0616 -0.6225  0.1777
  175SOPE   O2219857   4.348   2.516  10.428 -0.4317  0.4027  0.1769
  175SOPE   C2219858   4.580   2.460  10.399  0.3286 -0.9841  0.2236
  175SOPE   H2R19859   4.553   2.364  10.447 -2.1779 -2.6203 -3.8442
  175SOPE   H2S19860   4.645   2.508  10.475  0.7305 -1.7137  0.3427
  175SOPE    C319861   4.359   2.886  10.270  0.3520  0.4954 -0.5169
  175SOPE    HX19862   4.450   2.947  10.250 -0.5709  2.2582  0.4871
  175SOPE    HY19863   4.301   2.966  10.320 -3.0435 -1.6618 -0.7185
  175SOPE   O3119864   4.289   2.837  10.153  0.2908 -0.6192 -0.2301
  175SOPE   C3119865   4.367   2.824  10.044 -0.1827  0.5302  0.6374
  175SOPE   O3219866   4.482   2.866  10.034  0.1106 -0.3204  0.4007
  175SOPE   C3219867   4.297   2.741   9.934  0.1968  0.1369 -0.1709
  175SOPE   H2X19868   4.193   2.778   9.931 -0.5057 -1.7241 -0.1126
  175SOPE   H2Y19869   4.296   2.639   9.979 -0.5321 -0.0273 -0.5477
  175SOPE   C2319870   4.652   2.436  10.258 -0.4152 -0.9148 -0.6654
  175SOPE   H3R19871   4.752   2.388  10.260 -0.9070 -2.0980  3.3614
  175SOPE   H3S19872   4.671   2.537  10.215  0.4847  1.1004  3.9195
  175SOPE   C2419873   4.559   2.353  10.166  0.2589 -0.4293 -0.1432
  175SOPE   H4R19874   4.628   2.295  10.101  0.6676 -0.0978 -0.0073
  175SOPE   H4S19875   4.509   2.279  10.232  4.3859 -2.9417  0.5304
  175SOPE   C2519876   4.459   2.419  10.069  0.0263 -0.7619 -0.3942
  175SOPE   H5R19877   4.374   2.463  10.126  2.4459  0.8023  2.2349
  175SOPE   H5S19878   4.505   2.502  10.011  1.4960 -2.4403 -1.7019
  175SOPE   C2619879   4.391   2.320   9.970 -0.0469  0.0289 -0.7465
  175SOPE   H6R19880   4.360   2.235  10.035  1.8109  0.8615  1.3434
  175SOPE   H6S19881   4.303   2.362   9.916 -0.2165 -0.9069 -1.2201
  175SOPE   C2719882   4.478   2.274   9.850 -0.4822 -0.5020  0.0843
  175SOPE   H7R19883   4.586   2.267   9.875 -0.0206  4.7706  0.7025
  175SOPE   H7S19884   4.436   2.171   9.839 -1.0999 -0.2641  0.1736
  175SOPE   C2819885   4.466   2.359   9.723  0.5809  0.0534 -0.8080
  175SOPE   H8R19886   4.364   2.354   9.679  0.4020 -1.1069 -0.2720
  175SOPE   H8S19887   4.495   2.462   9.755  2.5340 -0.5871 -0.3602
  175SOPE   C2919888   4.558   2.330   9.615  0.0693 -0.2426  0.9622
  175SOPE   H9119889   4.659   2.367   9.639  0.5813 -0.3880 -0.8093
  175SOPE  C21019890   4.532   2.270   9.491 -0.0167  0.2019 -0.4371
  175SOPE  H10119891   4.624   2.246   9.435  1.5280  1.0491  1.5610
  175SOPE  C21119892   4.400   2.235   9.428  0.2418 -0.2117  0.9036
  175SOPE  H11R19893   4.337   2.325   9.421 -0.9658 -1.1799 -2.0986
  175SOPE  H11S19894   4.333   2.169   9.487 -0.0668  0.7667  1.6770
  175SOPE  C21219895   4.408   2.196   9.284  0.1544  0.2609  0.2391
  175SOPE  H12R19896   4.466   2.270   9.224 -0.6660  1.1334  0.5061
  175SOPE  H12S19897   4.303   2.183   9.250 -0.3004  0.0331  1.6474
  175SOPE  C21319898   4.481   2.065   9.258  0.4957  0.1105 -0.2084
  175SOPE  H13R19899   4.418   1.981   9.291  1.7116 -0.2743  1.2736
  175SOPE  H13S19900   4.574   2.068   9.320  1.4349  1.6282 -1.6018
  175SOPE  C21419901   4.513   2.052   9.106 -0.1155  0.8557  0.3686
  175SOPE  H14R19902   4.566   2.141   9.067 -0.0815  0.0513 -1.5052
  175SOPE  H14S19903   4.422   2.043   9.044  0.3998  1.1110 -0.4367
  175SOPE  C21519904   4.607   1.926   9.083  0.3150 -0.5427  0.0374
  175SOPE  H15R19905   4.559   1.842   9.139  1.1990  0.8633  3.1650
  175SOPE  H15S19906   4.708   1.961   9.113 -0.2468  1.3134 -0.0845
  175SOPE  C21619907   4.622   1.892   8.931 -0.2436  0.8019  0.1938
  175SOPE  H16R19908   4.697   1.963   8.892 -1.2109  1.6454 -0.1814
  175SOPE  H16S19909   4.522   1.917   8.890  1.2289  3.2331 -2.2291
  175SOPE  C21719910   4.668   1.747   8.893  0.2620  0.2338 -0.4355
  175SOPE  H17R19911   4.698   1.738   8.787 -1.9423 -0.1136 -1.0837
  175SOPE  H17S19912   4.582   1.684   8.922 -0.5023  1.2219 -0.5058
  175SOPE  C21819913   4.781   1.712   8.992 -0.1030  0.7003  0.0126
  175SOPE  H18R19914   4.740   1.671   9.087  1.4369 -3.1641 -0.7838
  175SOPE  H18S19915   4.851   1.796   9.012  0.4635  0.1597  0.3441
  175SOPE  H18T19916   4.848   1.633   8.951 -0.3947 -0.1410  1.1015
  175SOPE   C3319917   4.372   2.752   9.806  0.5523  0.3175  0.0515
  175SOPE   H3X19918   4.478   2.727   9.829  0.4617  0.3912  0.5467
  175SOPE   H3Y19919   4.383   2.850   9.755  3.0956 -0.0944 -0.3338
  175SOPE   C3419920   4.323   2.667   9.688  0.4410  0.0395  0.1178
  175SOPE   H4X19921   4.288   2.566   9.717 -2.6904  0.6520 -1.0443
  175SOPE   H4Y19922   4.410   2.659   9.619  1.2115 -0.1930  1.1034
  175SOPE   C3519923   4.206   2.739   9.605 -0.0146 -0.1158 -0.1850
  175SOPE   H5X19924   4.228   2.848   9.597  1.3680 -0.0060  3.3971
  175SOPE   H5Y19925   4.110   2.714   9.655  0.4292 -2.2314 -0.3254
  175SOPE   C3619926   4.206   2.686   9.460 -0.0859 -0.3691 -0.8779
  175SOPE   H6X19927   4.112   2.724   9.415  0.5464  1.2996 -0.8548
  175SOPE   H6Y19928   4.201   2.576   9.447  0.1134 -0.4155 -0.5775
  175SOPE   C3719929   4.323   2.734   9.365 -0.5004 -0.4661 -0.2289
  175SOPE   H7X19930   4.416   2.696   9.413 -2.0336 -0.6783  2.7612
  175SOPE   H7Y19931   4.335   2.844   9.356 -0.5046 -0.4969 -0.6131
  175SOPE   C3819932   4.308   2.675   9.224 -1.0143 -0.1771 -0.4058
  175SOPE   H8X19933   4.206   2.697   9.187  0.1109  0.6437 -3.3719
  175SOPE   H8Y19934   4.329   2.567   9.239  1.3280  0.1576 -0.7548
  175SOPE   C3919935   4.414   2.729   9.125 -0.4322  0.1668 -0.7801
  175SOPE   H9X19936   4.411   2.664   9.034  1.2673 -0.2245 -0.5945
  175SOPE   H9Y19937   4.509   2.721   9.183  0.3129  3.4561 -1.3318
  175SOPE  C31019938   4.384   2.875   9.092 -0.7608  0.1627  0.1495
  175SOPE  H10X19939   4.476   2.935   9.076 -0.4559 -0.0625  1.0120
  175SOPE  H10Y19940   4.328   2.923   9.175  0.1722  0.0985  0.8289
  175SOPE  C31119941   4.320   2.883   8.956  0.5639  0.2093 -0.1041
  175SOPE  H11X19942   4.210   2.868   8.964  0.4841  0.4574 -0.7660
  175SOPE  H11Y19943   4.355   2.803   8.887 -0.2459 -0.0213 -0.2602
  175SOPE  C31219944   4.330   3.025   8.890 -0.0947  0.0186 -0.0260
  175SOPE  H12X19945   4.431   3.068   8.900 -0.7369  1.2546  1.4600
  175SOPE  H12Y19946   4.264   3.096   8.943  1.0547  1.7605 -0.8285
  175SOPE  C31319947   4.296   3.045   8.738  0.1414  0.4849 -0.0172
  175SOPE  H13X19948   4.378   3.108   8.695  1.0087 -1.1893 -0.9169
  175SOPE  H13Y19949   4.202   3.104   8.739 -0.0784  0.1351  0.6945
  175SOPE  C31419950   4.273   2.921   8.656  0.6076 -0.8928  0.2110
  175SOPE  H14X19951   4.211   2.846   8.710  0.7235 -1.2552 -0.1441
  175SOPE  H14Y19952   4.373   2.874   8.655  0.7102 -0.7439 -1.7805
  175SOPE  C31519953   4.223   2.938   8.509  0.4249 -0.2670 -0.0261
  175SOPE  H15X19954   4.115   2.965   8.503  0.6952  0.4888 -2.2943
  175SOPE  H15Y19955   4.244   2.840   8.462 -0.7527 -0.8032  0.5261
  175SOPE  C31619956   4.319   3.036   8.442 -0.3409  0.1744  0.4453
  175SOPE  H16X19957   4.422   3.010   8.472  0.0066 -2.2395 -2.3987
  175SOPE  H16Y19958   4.297   3.143   8.464  0.7509  0.8597 -1.5323
  175SOPE  C31719959   4.330   3.014   8.289 -0.7887 -0.4058  0.0846
  175SOPE  H17X19960   4.339   2.910   8.252  1.3277 -0.0170 -0.6502
  175SOPE  H17Y19961   4.414   3.078   8.254 -1.8007  0.9462  0.0643
  175SOPE  C31819962   4.203   3.078   8.218 -0.3333  0.6891 -0.5969
  175SOPE  H18X19963   4.211   3.188   8.233 -0.4500  0.5530  0.6000
  175SOPE  H18Y19964   4.106   3.042   8.258  0.3030  1.1294  1.4866
  175SOPE  H18Z19965   4.205   3.065   8.108 -1.4953 -0.7265 -0.4865
  176SOPE     N19966   4.066   0.861  11.239  0.0783  0.0963  0.7137
  176SOPE   HN119967   4.103   0.902  11.327 -1.8156  1.4143  0.9582
  176SOPE   HN219968   4.001   0.923  11.187 -0.2080 -2.0116 -1.6433
  176SOPE   HN319969   4.030   0.767  11.265  0.0677 -0.4305 -1.0878
  176SOPE   C1219970   4.186   0.845  11.156  0.6876  0.4880 -0.0711
  176SOPE  H12A19971   4.157   0.755  11.096 -0.2266  0.6029  0.1838
  176SOPE  H12B19972   4.267   0.801  11.218 -0.9665  0.7569  2.3761
  176SOPE   C1119973   4.220   0.968  11.070  0.4372  0.2893  0.7654
  176SOPE  H11A19974   4.135   0.988  11.001 -0.5586 -0.7695  1.6284
  176SOPE  H11B19975   4.309   0.944  11.008 -0.9114  0.1218 -1.1877
  176SOPE     P19976   4.287   1.217  11.099  0.2884 -0.1696  0.1433
  176SOPE   O1319977   4.389   1.289  11.172  0.6085  0.2090  0.6173
  176SOPE   O1419978   4.158   1.289  11.071  0.1741  0.5543 -0.6194
  176SOPE   O1219979   4.261   1.069  11.160  0.1919  0.3356  0.4953
  176SOPE   O1119980   4.346   1.182  10.960  0.1337 -0.4447  0.1861
  176SOPE    C119981   4.350   1.265  10.844 -0.6668  0.1558 -0.0994
  176SOPE    HA19982   4.453   1.280  10.805 -0.7096  0.2845 -0.1673
  176SOPE    HB19983   4.312   1.368  10.866 -2.2682 -0.4290 -0.0071
  176SOPE    C219984   4.265   1.215  10.725 -0.1447  0.3385 -0.0183
  176SOPE    HS19985   4.288   1.272  10.632 -0.5551  1.8006  0.7490
  176SOPE   O2119986   4.129   1.223  10.758  0.5795  1.2323  0.2088
  176SOPE   C2119987   4.068   1.337  10.728 -0.8142  0.7441 -0.5805
  176SOPE   O2219988   4.132   1.438  10.701 -0.2681  0.3043  0.4075
  176SOPE   C2219989   3.921   1.323  10.728 -0.6509  0.1428  0.4605
  176SOPE   H2R19990   3.867   1.415  10.696 -1.0024 -0.2454 -0.0629
  176SOPE   H2S19991   3.892   1.301  10.833 -0.5250 -1.2193  0.2213
  176SOPE    C319992   4.311   1.068  10.693  0.2235 -0.1779  0.4009
  176SOPE    HX19993   4.272   1.009  10.779  0.2654  1.2055  1.3871
  176SOPE    HY19994   4.421   1.053  10.686  0.1801 -0.5463  0.4594
  176SOPE   O3119995   4.247   1.009  10.580  0.6219 -0.4204  0.1080
  176SOPE   C3119996   4.291   1.037  10.456 -0.1706 -0.1338 -0.0030
  176SOPE   O3219997   4.385   1.113  10.432  0.0837 -0.1222 -0.5403
  176SOPE   C3219998   4.203   0.972  10.350  0.2078  0.8865  0.0984
  176SOPE   H2X19999   4.098   0.979  10.386  1.0756  0.3822  3.0244
  176SOPE   H2Y20000   4.235   0.865  10.351 -3.4404 -0.3982  3.4698
  176SOPE   C2320001   3.861   1.203  10.655  0.1363  1.5189  0.3039
  176SOPE   H3R20002   3.756   1.211  10.693 -0.5104  2.2109 -1.5491
  176SOPE   H3S20003   3.905   1.107  10.688  0.9505  1.4360 -0.9862
  176SOPE   C2420004   3.845   1.212  10.503  0.0197  0.2265 -0.1436
  176SOPE   H4R20005   3.830   1.317  10.471 -1.4513  0.3830  0.9499
  176SOPE   H4S20006   3.945   1.175  10.472  0.5072 -1.5418  3.0845
  176SOPE   C2520007   3.737   1.125  10.442 -0.1289  0.2121 -0.3582
  176SOPE   H5R20008   3.775   1.020  10.449 -0.7082 -0.0516 -1.1221
  176SOPE   H5S20009   3.638   1.130  10.492  0.9445  3.1678  1.7379
  176SOPE   C2620010   3.709   1.171  10.300 -0.0139  0.1002 -0.2100
  176SOPE   H6R20011   3.675   1.275  10.320  1.3389  0.6307 -0.5596
  176SOPE   H6S20012   3.796   1.167  10.231 -0.4710  1.8385 -0.9459
  176SOPE   C2720013   3.611   1.089  10.224  0.3256 -0.7703  0.1036
  176SOPE   H7R20014   3.648   0.984  10.220  2.4165 -0.0992  1.0306
  176SOPE   H7S20015   3.515   1.099  10.278  1.5655  0.9790  2.1111
  176SOPE   C2820016   3.585   1.144  10.085  0.1064  0.1903  0.3291
  176SOPE   H8R20017   3.548   1.248  10.097 -1.2288 -0.3197  0.8477
  176SOPE   H8S20018   3.677   1.125  10.026 -0.1714 -1.8320  0.4899
  176SOPE   C2920019   3.470   1.056  10.022 -0.4947 -0.4861 -1.1293
  176SOPE   H9120020   3.407   1.004  10.096  1.5405 -0.3074  0.8303
  176SOPE  C21020021   3.425   1.067   9.897 -0.3568  0.1724 -0.1657
  176SOPE  H10120022   3.339   1.003   9.871 -1.0316 -0.9181  3.9931
  176SOPE  C21120023   3.487   1.151   9.789  0.1179 -0.0981  0.8145
  176SOPE  H11R20024   3.592   1.180   9.812  0.2353 -1.3653  1.9929
  176SOPE  H11S20025   3.434   1.248   9.771  2.7146  0.9964 -1.6402
  176SOPE  C21220026   3.501   1.073   9.659  0.4377 -0.2081 -0.1785
  176SOPE  H12R20027   3.399   1.035   9.633  0.7953 -0.9684 -0.5127
  176SOPE  H12S20028   3.571   0.987   9.666 -0.7265 -1.2657 -1.0172
  176SOPE  C21320029   3.548   1.167   9.538  0.3219 -0.5423  0.3100
  176SOPE  H13R20030   3.653   1.193   9.562  1.1374 -0.9911 -2.4060
  176SOPE  H13S20031   3.483   1.257   9.532  1.7243  0.6852  2.1412
  176SOPE  C21420032   3.553   1.100   9.403 -0.2987 -0.3273  0.4686
  176SOPE  H14R20033   3.457   1.062   9.362  0.2029  0.7108 -1.8180
  176SOPE  H14S20034   3.617   1.009   9.404  2.6897  1.5496 -2.5529
  176SOPE  C21520035   3.596   1.195   9.290  0.5448 -0.4865 -0.7977
  176SOPE  H15R20036   3.700   1.225   9.313  0.8387 -3.2896  2.2335
  176SOPE  H15S20037   3.524   1.280   9.285 -1.9016 -2.4972 -2.3703
  176SOPE  C21620038   3.586   1.133   9.146 -0.3629  0.3054  0.2737
  176SOPE  H16R20039   3.640   1.037   9.146 -0.0486  0.4786  0.8819
  176SOPE  H16S20040   3.640   1.205   9.080  0.7503  0.6469  1.5207
  176SOPE  C21720041   3.449   1.127   9.086  0.2819 -0.2432 -0.4601
  176SOPE  H17R20042   3.407   1.229   9.096 -2.3272 -1.3252  0.6897
  176SOPE  H17S20043   3.382   1.053   9.135 -0.1706 -0.3099 -1.1647
  176SOPE  C21820044   3.455   1.093   8.930  0.0015 -0.2218 -0.5577
  176SOPE  H18R20045   3.535   1.152   8.879  0.3922 -0.9176 -0.7707
  176SOPE  H18S20046   3.361   1.132   8.887  0.9610  2.4507 -0.4314
  176SOPE  H18T20047   3.464   0.984   8.907 -1.0763  0.0088 -2.2228
  176SOPE   C3320048   4.221   1.016  10.208 -0.3712  0.7533 -0.4616
  176SOPE   H3X20049   4.323   0.984  10.176 -0.4558 -1.8936  1.5751
  176SOPE   H3Y20050   4.229   1.126  10.201  1.9351  0.5760 -1.9138
  176SOPE   C3420051   4.120   0.948  10.118 -0.0902 -0.0502 -0.6703
  176SOPE   H4X20052   4.022   1.000  10.129 -1.1914 -2.1112 -0.1444
  176SOPE   H4Y20053   4.105   0.842  10.147  0.7817 -0.1827 -0.6867
  176SOPE   C3520054   4.147   0.959   9.970 -0.3321  0.7847  0.3071
  176SOPE   H5X20055   4.226   0.882   9.954  2.7790  3.5797  1.0721
  176SOPE   H5Y20056   4.190   1.060   9.949 -0.4012  0.6415 -0.5604
  176SOPE   C3620057   4.018   0.934   9.891  1.0853 -0.0899  0.3025
  176SOPE   H6X20058   3.944   1.012   9.920  0.5103 -0.6437  0.3445
  176SOPE   H6Y20059   3.970   0.842   9.932  0.9255 -0.6165 -1.0327
  176SOPE   C3720060   4.021   0.936   9.739  0.3425  0.2112 -0.1625
  176SOPE   H7X20061   4.081   0.850   9.703  0.0449 -0.9151  1.8932
  176SOPE   H7Y20062   4.087   1.017   9.701 -0.6433  2.3224  2.3328
  176SOPE   C3820063   3.881   0.938   9.692 -0.3740 -0.4828  0.3387
  176SOPE   H8X20064   3.839   1.040   9.708 -1.5440 -1.0384  0.9611
  176SOPE   H8Y20065   3.820   0.875   9.760 -2.0730  1.5724  0.8592
  176SOPE   C3920066   3.855   0.912   9.547  0.7386  0.7465  0.1744
  176SOPE   H9X20067   3.746   0.909   9.526  0.3221 -2.2581  2.2580
  176SOPE   H9Y20068   3.904   0.820   9.510 -0.4582  0.2351 -0.1930
  176SOPE  C31020069   3.902   1.016   9.447 -0.4781 -0.8321 -0.1641
  176SOPE  H10X20070   4.009   1.037   9.467 -0.7692 -1.3036  2.0838
  176SOPE  H10Y20071   3.839   1.106   9.467  0.9874  0.1744  0.0629
  176SOPE  C31120072   3.892   0.990   9.301 -0.1023  1.0081 -0.0230
  176SOPE  H11X20073   3.787   0.969   9.272  0.4652  0.8414 -2.1666
  176SOPE  H11Y20074   3.951   0.896   9.291 -1.6973 -0.1444  0.8755
  176SOPE  C31220075   3.940   1.094   9.200  0.1549  0.1768 -0.3481
  176SOPE  H12X20076   4.036   1.140   9.231 -1.5784  2.7122  1.7695
  176SOPE  H12Y20077   3.862   1.172   9.188 -0.2872  0.0211  1.2713
  176SOPE  C31320078   3.953   1.030   9.064 -0.1303 -0.0491 -0.8788
  176SOPE  H13X20079   3.860   0.972   9.047 -0.8873  1.2279 -1.1567
  176SOPE  H13Y20080   4.029   0.949   9.074  0.0809  0.1878 -0.5160
  176SOPE  C31420081   3.993   1.124   8.951  0.1341 -0.1075  0.3500
  176SOPE  H14X20082   4.089   1.174   8.978  1.2014 -2.1628  0.5278
  176SOPE  H14Y20083   3.912   1.200   8.944  1.0435  1.0275  1.6645
  176SOPE  C31520084   4.005   1.068   8.810  0.4093  0.1066  0.0387
  176SOPE  H15X20085   3.903   1.038   8.775  0.6211  1.0378 -1.4571
  176SOPE  H15Y20086   4.063   0.974   8.796  1.0848  0.6769 -1.1074
  176SOPE  C31620087   4.064   1.168   8.711  0.5974  0.3152  0.2676
  176SOPE  H16X20088   4.026   1.271   8.729 -1.1441 -0.2469  0.0005
  176SOPE  H16Y20089   4.030   1.147   8.607  0.8952 -0.3955  0.3040
  176SOPE  C31720090   4.220   1.179   8.716 -0.0502  0.2893  0.7680
  176SOPE  H17X20091   4.245   1.150   8.821 -0.0538  2.0512  1.2914
  176SOPE  H17Y20092   4.241   1.287   8.698  0.6331  0.2749  1.3823
  176SOPE  C31820093   4.296   1.092   8.616 -0.1184 -0.1306 -0.3135
  176SOPE  H18X20094   4.307   1.148   8.520  0.5811  0.4322  0.0918
  176SOPE  H18Y20095   4.236   0.998   8.614 -0.6248  0.1869 -0.2919
  176SOPE  H18Z20096   4.402   1.073   8.643  0.6312 -0.6860 -3.2898
  177SOPE     N20097   3.941   6.647  11.060 -0.3965  0.2708  0.0967
  177SOPE   HN120098   3.874   6.676  11.133 -2.1013 -1.8396 -0.5035
  177SOPE   HN220099   4.040   6.677  11.072  0.2322 -1.8496  0.5660
  177SOPE   HN320100   3.908   6.694  10.973 -1.4098 -2.5225 -1.1497
  177SOPE   C1220101   3.959   6.500  11.029  0.0333  0.1493 -0.5585
  177SOPE  H12A20102   4.029   6.491  10.943 -1.9194 -3.4309 -1.9789
  177SOPE  H12B20103   3.865   6.463  10.984 -1.0347  1.1203  0.7914
  177SOPE   C1120104   4.001   6.419  11.149  0.5367 -0.4427  0.2318
  177SOPE  H11A20105   3.997   6.308  11.134  0.0500 -0.5811  1.3350
  177SOPE  H11B20106   3.931   6.440  11.233  1.8034  0.9152  0.9929
  177SOPE     P20107   4.269   6.402  11.145 -0.1552  0.4054 -0.2356
  177SOPE   O1320108   4.284   6.290  11.242 -0.8973 -0.2622  0.0076
  177SOPE   O1420109   4.378   6.503  11.153 -0.1117 -0.3435  0.0426
  177SOPE   O1220110   4.131   6.465  11.189 -0.1435 -0.4079 -0.0608
  177SOPE   O1120111   4.249   6.353  10.998  0.1567 -0.4215  0.5001
  177SOPE    C120112   4.219   6.216  10.961 -0.0818 -0.2749 -0.0995
  177SOPE    HA20113   4.137   6.218  10.885  0.0560 -1.8837 -0.3157
  177SOPE    HB20114   4.178   6.164  11.050  1.4785 -2.8436 -0.7783
  177SOPE    C220115   4.341   6.136  10.903  0.0887 -0.2600 -0.3396
  177SOPE    HS20116   4.418   6.134  10.983 -0.1061  0.2495 -0.1396
  177SOPE   O2120117   4.388   6.211  10.785 -0.0076 -0.0659 -0.1034
  177SOPE   C2120118   4.504   6.166  10.751 -0.8531  0.0626 -0.4481
  177SOPE   O2220119   4.576   6.084  10.810  0.6781  0.2739  0.4941
  177SOPE   C2220120   4.554   6.253  10.631  0.5499  0.4248  0.1610
  177SOPE   H2R20121   4.649   6.297  10.669  0.3468 -0.3391  1.6046
  177SOPE   H2S20122   4.480   6.335  10.623  0.8876  0.8424  1.1916
  177SOPE    C320123   4.297   5.991  10.856  0.0597  0.0848  0.5062
  177SOPE    HX20124   4.296   5.938  10.954 -0.2522 -0.6819  0.1033
  177SOPE    HY20125   4.379   5.941  10.800  0.2227  0.2289  0.6174
  177SOPE   O3120126   4.166   5.991  10.790 -0.0692  0.2705 -0.4959
  177SOPE   C3120127   4.159   5.922  10.681  0.4125  0.3030 -0.3739
  177SOPE   O3220128   4.248   5.854  10.633  0.2989  0.3979  0.0748
  177SOPE   C3220129   4.025   5.936  10.611  0.0875 -0.3659  0.1757
  177SOPE   H2X20130   3.948   5.962  10.686  1.5001 -1.1157  1.9604
  177SOPE   H2Y20131   4.001   5.834  10.574 -2.9160  1.1790 -2.6117
  177SOPE   C2320132   4.575   6.174  10.500  0.6641 -0.3424  0.6494
  177SOPE   H3R20133   4.640   6.085  10.515 -0.7679 -1.3592  1.0222
  177SOPE   H3S20134   4.611   6.241  10.418  1.0022 -0.8325  0.3920
  177SOPE   C2420135   4.444   6.126  10.439 -0.5662 -0.8776 -0.0310
  177SOPE   H4R20136   4.401   6.053  10.510  1.5062 -1.3065  0.8572
  177SOPE   H4S20137   4.372   6.211  10.442  1.4242  0.8766  1.6449
  177SOPE   C2520138   4.458   6.066  10.297  0.1483 -0.2351 -0.3153
  177SOPE   H5R20139   4.476   6.147  10.224 -0.8398  1.6486  1.4463
  177SOPE   H5S20140   4.535   5.985  10.299 -0.3603 -0.7372  2.6939
  177SOPE   C2620141   4.328   5.995  10.256 -0.0151 -0.5008 -0.9006
  177SOPE   H6R20142   4.305   5.915  10.330 -0.4201 -0.8473 -1.3833
  177SOPE   H6S20143   4.241   6.061  10.274 -0.6490 -1.5303 -0.0844
  177SOPE   C2720144   4.323   5.960  10.104  0.2211  0.7143 -1.0217
  177SOPE   H7R20145   4.345   6.042  10.032  1.6396 -1.5672 -3.4212
  177SOPE   H7S20146   4.408   5.890  10.085  1.2201  0.9002  2.2171
  177SOPE   C2820147   4.187   5.900  10.052  0.0217  0.7330 -0.7583
  177SOPE   H8R20148   4.170   5.799  10.095 -0.5162  0.7777 -0.8613
  177SOPE   H8S20149   4.104   5.960  10.093 -0.1623  0.4796 -0.7576
  177SOPE   C2920150   4.168   5.876   9.906 -0.0993 -0.9121  0.0416
  177SOPE   H9120151   4.170   5.772   9.869  1.3357 -0.6758 -0.6022
  177SOPE  C21020152   4.150   5.967   9.809  0.4719  0.0170  0.3972
  177SOPE  H10120153   4.134   5.921   9.711 -0.0264  0.0247  0.4713
  177SOPE  C21120154   4.145   6.116   9.821 -0.5774 -0.2232 -0.0604
  177SOPE  H11R20155   4.181   6.160   9.916  0.8932 -1.1342 -0.1636
  177SOPE  H11S20156   4.042   6.157   9.806 -0.0260  1.4921  0.5650
  177SOPE  C21220157   4.223   6.191   9.708 -0.1310 -0.5569 -0.4014
  177SOPE  H12R20158   4.330   6.159   9.704 -0.2808 -1.3997  1.3213
  177SOPE  H12S20159   4.215   6.300   9.727 -0.3287 -0.8686  1.5454
  177SOPE  C21320160   4.156   6.172   9.573  0.0287 -0.1533  0.3563
  177SOPE  H13R20161   4.046   6.190   9.573 -0.1360 -0.9887 -1.2171
  177SOPE  H13S20162   4.155   6.064   9.547 -1.7238 -0.4475  1.4465
  177SOPE  C21420163   4.230   6.255   9.461  0.3383 -1.0321 -0.4151
  177SOPE  H14R20164   4.338   6.245   9.484 -0.0061 -4.1549  0.3476
  177SOPE  H14S20165   4.192   6.355   9.489  0.5564 -1.3931  1.2756
  177SOPE  C21520166   4.193   6.217   9.318  0.0803  0.7341 -0.4800
  177SOPE  H15R20167   4.084   6.229   9.297  0.2485  2.6146 -0.4408
  177SOPE  H15S20168   4.225   6.112   9.300  0.4767 -0.0605  3.6629
  177SOPE  C21620169   4.258   6.313   9.219 -0.3371  0.3854 -0.5986
  177SOPE  H16R20170   4.365   6.287   9.201 -1.0344 -0.8239 -3.5747
  177SOPE  H16S20171   4.255   6.413   9.268  1.9116 -0.0903  0.6790
  177SOPE  C21720172   4.182   6.320   9.091  0.6148 -0.4540  0.2439
  177SOPE  H17R20173   4.212   6.409   9.032 -1.3335 -1.0573 -1.7832
  177SOPE  H17S20174   4.073   6.331   9.110  0.9584  1.8375  1.2786
  177SOPE  C21820175   4.194   6.189   8.997  0.2949  0.1158  0.3061
  177SOPE  H18R20176   4.161   6.091   9.036  0.8483 -0.3173 -0.2856
  177SOPE  H18S20177   4.301   6.181   8.968  0.2167  1.9426 -0.6674
  177SOPE  H18T20178   4.140   6.211   8.903 -1.3898 -1.8874  0.7504
  177SOPE   C3320179   4.016   6.033  10.492 -0.0679  0.0095  0.1988
  177SOPE   H3X20180   3.924   6.003  10.437  1.2955 -0.8468 -1.7379
  177SOPE   H3Y20181   4.096   6.010  10.418  0.3264  0.7962  0.3701
  177SOPE   C3420182   4.017   6.181  10.526  0.8058  0.5385 -0.4663
  177SOPE   H4X20183   4.121   6.214  10.550  0.0212  2.2353  0.7761
  177SOPE   H4Y20184   3.958   6.180  10.620  0.7532  1.6387 -0.4821
  177SOPE   C3520185   3.947   6.277  10.428 -0.3122  0.4082  0.7227
  177SOPE   H5X20186   3.945   6.382  10.465 -0.5509  1.4143 -1.9421
  177SOPE   H5Y20187   3.842   6.245  10.407 -0.1548  1.9951 -3.2517
  177SOPE   C3620188   4.025   6.280  10.295  0.6291  0.2405 -0.0326
  177SOPE   H6X20189   4.043   6.176  10.261 -1.1372 -1.2109  2.9816
  177SOPE   H6Y20190   4.124   6.328  10.306  0.1279  1.5320 -0.8972
  177SOPE   C3720191   3.947   6.367  10.193  0.3146 -0.3860  0.2149
  177SOPE   H7X20192   3.938   6.461  10.250 -0.6895 -1.0159  1.1249
  177SOPE   H7Y20193   3.841   6.334  10.183  0.0791  0.3932  0.1098
  177SOPE   C3820194   4.019   6.378  10.058  0.1427  0.2366 -0.0828
  177SOPE   H8X20195   4.008   6.278  10.012  0.0482 -0.8505  2.1813
  177SOPE   H8Y20196   4.126   6.401  10.073 -0.1720  0.8817  1.3498
  177SOPE   C3920197   3.966   6.490   9.968 -0.1740 -0.3823 -0.5674
  177SOPE   H9X20198   3.977   6.591  10.012 -0.2571  0.1107 -1.6359
  177SOPE   H9Y20199   3.856   6.475   9.964 -0.0915 -0.9883 -0.6673
  177SOPE  C31020200   4.022   6.483   9.827  0.3993 -0.1299 -0.5474
  177SOPE  H10X20201   4.001   6.388   9.774  0.5493 -2.1749  2.7882
  177SOPE  H10Y20202   4.132   6.502   9.834  0.7576 -1.9981 -0.5405
  177SOPE  C31120203   3.946   6.589   9.743 -0.3362  0.0817 -0.2953
  177SOPE  H11X20204   3.963   6.690   9.786  2.3498 -0.6677  0.6358
  177SOPE  H11Y20205   3.838   6.568   9.752 -0.7009  2.2475  1.0338
  177SOPE  C31220206   3.997   6.581   9.602  0.3817  0.0086  0.4759
  177SOPE  H12X20207   3.980   6.483   9.551  0.1752 -0.3350  1.1936
  177SOPE  H12Y20208   4.106   6.594   9.611  0.5633  0.0927 -1.3183
  177SOPE  C31320209   3.927   6.687   9.517  0.4310  0.3018 -0.2402
  177SOPE  H13X20210   3.947   6.785   9.565  1.2253 -0.8268  1.8197
  177SOPE  H13Y20211   3.817   6.675   9.507  0.2741  0.1680  1.4674
  177SOPE  C31420212   4.003   6.690   9.378  0.0776 -0.2640 -0.4138
  177SOPE  H14X20213   4.008   6.581   9.357 -1.0435 -0.5849  0.8445
  177SOPE  H14Y20214   4.104   6.729   9.406 -0.0824 -0.3237  0.2558
  177SOPE  C31520215   3.938   6.765   9.262  0.1671 -0.4566 -0.3966
  177SOPE  H15X20216   3.901   6.870   9.272 -0.5429 -0.7822  0.5050
  177SOPE  H15Y20217   3.855   6.697   9.233 -0.4362  0.2825 -0.4441
  177SOPE  C31620218   4.036   6.751   9.140 -0.1819 -0.5632 -0.0845
  177SOPE  H16X20219   3.973   6.761   9.048 -1.2288  1.3251  0.7731
  177SOPE  H16Y20220   4.084   6.652   9.143  0.3168 -0.3629 -0.9848
  177SOPE  C31720221   4.148   6.856   9.133  0.4025  0.5526 -0.7011
  177SOPE  H17X20222   4.206   6.869   9.227  2.0642 -3.3203 -1.0210
  177SOPE  H17Y20223   4.094   6.953   9.140  2.1748  1.4703  2.2194
  177SOPE  C31820224   4.234   6.857   9.009  0.6183  0.5002  0.6254
  177SOPE  H18X20225   4.188   6.800   8.925  0.3915  0.3025  0.8813
  177SOPE  H18Y20226   4.337   6.819   9.029  1.5226  2.4182 -0.1351
  177SOPE  H18Z20227   4.243   6.960   8.968  0.0797  0.4619  0.4010
  178SOPE     N20228   1.363   5.979  10.904 -0.5281 -0.2674  0.1186
  178SOPE   HN120229   1.395   6.043  10.828  1.5652 -0.0828  1.0801
  178SOPE   HN220230   1.363   6.036  10.990  2.7414  0.9776 -0.5479
  178SOPE   HN320231   1.435   5.904  10.914 -0.2632 -0.6799 -3.3441
  178SOPE   C1220232   1.228   5.918  10.890 -0.0174  0.4233  0.3575
  178SOPE  H12A20233   1.234   5.846  10.806  0.2302  1.1678 -0.2678
  178SOPE  H12B20234   1.149   5.995  10.889 -0.5720 -0.1294 -1.3292
  178SOPE   C1120235   1.209   5.830  11.013 -0.0135  0.4651 -0.6239
  178SOPE  H11A20236   1.101   5.803  11.018  0.3663 -1.0537 -0.0972
  178SOPE  H11B20237   1.230   5.887  11.106 -1.2551  0.9732 -0.6297
  178SOPE     P20238   1.251   5.580  10.990 -0.4699  0.2820 -0.5145
  178SOPE   O1320239   1.183   5.538  11.117 -0.4650  0.2696 -0.2810
  178SOPE   O1420240   1.361   5.490  10.942  0.1335  0.1004 -0.2004
  178SOPE   O1220241   1.303   5.724  11.018  0.3624  0.0131 -0.0284
  178SOPE   O1120242   1.144   5.593  10.882 -0.4641  0.4820 -0.0003
  178SOPE    C120243   1.011   5.544  10.899  0.7636  0.3144 -0.0519
  178SOPE    HA20244   0.966   5.606  10.981 -0.1760 -1.8223  1.1222
  178SOPE    HB20245   1.010   5.439  10.933  0.1607  0.1749 -0.4781
  178SOPE    C220246   0.926   5.549  10.773 -0.3487 -0.1089  0.5818
  178SOPE    HS20247   0.823   5.514  10.793 -0.5649  0.8611  1.2501
  178SOPE   O2120248   0.990   5.473  10.669 -0.0265 -0.6861 -0.1939
  178SOPE   C2120249   0.961   5.351  10.663 -0.3335  1.2960  0.2110
  178SOPE   O2220250   0.900   5.289  10.749  0.2882  0.8583 -0.7069
  178SOPE   C2220251   1.052   5.273  10.553  1.0276 -0.2750 -0.1920
  178SOPE   H2R20252   1.102   5.199  10.619 -2.6752 -0.6021  2.6298
  178SOPE   H2S20253   1.122   5.342  10.502  1.5301  1.8184  3.0107
  178SOPE    C320254   0.909   5.698  10.731  0.0590 -0.3859 -0.0656
  178SOPE    HX20255   1.015   5.732  10.728  0.5718 -1.4453  2.9817
  178SOPE    HY20256   0.863   5.753  10.815 -0.0568 -2.0368  0.9921
  178SOPE   O3120257   0.839   5.708  10.607 -0.1225  0.3347 -0.2437
  178SOPE   C3120258   0.874   5.810  10.530  0.0333 -0.2269  0.0081
  178SOPE   O3220259   0.972   5.882  10.552 -0.0251 -0.5651  0.0783
  178SOPE   C3220260   0.779   5.798  10.406 -0.3389 -0.3668 -0.2957
  178SOPE   H2X20261   0.689   5.863  10.417 -1.0114 -1.3438  0.1093
  178SOPE   H2Y20262   0.748   5.692  10.409 -0.7365 -0.2443  0.1754
  178SOPE   C2320263   0.960   5.193  10.453 -0.1843 -0.3766 -0.0906
  178SOPE   H3R20264   0.905   5.271  10.396 -0.7999  0.2061  1.2618
  178SOPE   H3S20265   0.890   5.141  10.522  4.2475 -3.4944  2.6258
  178SOPE   C2420266   1.029   5.082  10.381 -0.4770  0.5147 -0.1303
  178SOPE   H4R20267   1.097   5.027  10.450 -0.6643  0.2312 -0.1700
  178SOPE   H4S20268   0.950   5.006  10.365  0.0888  0.0255 -0.6936
  178SOPE   C2520269   1.098   5.105  10.249 -0.0330 -0.1862 -0.0410
  178SOPE   H5R20270   1.051   5.182  10.184 -0.5649 -0.3333  0.1635
  178SOPE   H5S20271   1.201   5.137  10.274 -1.1481  2.8901  1.0352
  178SOPE   C2620272   1.112   4.983  10.150 -0.2410 -0.1306  0.4938
  178SOPE   H6R20273   1.164   4.896  10.197  1.0102 -0.1942 -0.9151
  178SOPE   H6S20274   1.013   4.942  10.122  0.3146 -0.7568 -0.6436
  178SOPE   C2720275   1.198   5.006  10.026  0.2510  0.1491  0.1453
  178SOPE   H7R20276   1.296   5.052  10.054  0.7068  0.2605 -1.5465
  178SOPE   H7S20277   1.219   4.908   9.978  2.3691  0.9045 -0.5791
  178SOPE   C2820278   1.136   5.105   9.919  0.2766 -0.3923 -0.2230
  178SOPE   H8R20279   1.062   5.046   9.860  1.6769 -0.7042 -1.7623
  178SOPE   H8S20280   1.088   5.195   9.964 -0.7384  0.4426 -2.7641
  178SOPE   C2920281   1.236   5.147   9.816 -0.4194  0.5085 -0.9119
  178SOPE   H9120282   1.321   5.194   9.867  0.4382 -1.0494 -0.8579
  178SOPE  C21020283   1.258   5.122   9.686  0.7657 -0.4165  0.1690
  178SOPE  H10120284   1.346   5.165   9.636  1.2888 -1.4321  0.1906
  178SOPE  C21120285   1.177   5.031   9.592 -0.5544  0.1220 -0.0833
  178SOPE  H11R20286   1.122   5.102   9.528 -2.6365 -0.3416  1.1099
  178SOPE  H11S20287   1.096   4.980   9.648  0.9907 -2.5129 -0.0510
  178SOPE  C21220288   1.274   4.937   9.530  0.0620 -0.0246 -0.2482
  178SOPE  H12R20289   1.327   4.888   9.614  0.2295 -1.5974 -1.2178
  178SOPE  H12S20290   1.349   4.994   9.472 -0.1040 -0.3905 -0.8293
  178SOPE  C21320291   1.208   4.835   9.438 -0.3552  0.1106  0.2590
  178SOPE  H13R20292   1.187   4.889   9.344 -0.1826  0.4842  0.4297
  178SOPE  H13S20293   1.112   4.812   9.489  0.8174 -0.2621  2.4292
  178SOPE  C21420294   1.300   4.722   9.396  0.1753  0.4464  0.5113
  178SOPE  H14R20295   1.379   4.768   9.333 -0.5153 -0.2152 -0.8909
  178SOPE  H14S20296   1.251   4.649   9.328  1.7794  0.2541 -0.4889
  178SOPE  C21520297   1.361   4.645   9.514 -0.8691 -0.6450  0.5801
  178SOPE  H15R20298   1.428   4.713   9.571  1.1024 -0.7469 -1.4384
  178SOPE  H15S20299   1.430   4.570   9.469 -1.3340  0.1960 -1.6717
  178SOPE  C21620300   1.260   4.580   9.603 -0.2527 -0.3088  0.3944
  178SOPE  H16R20301   1.202   4.509   9.541 -0.3393  0.0381  0.0748
  178SOPE  H16S20302   1.183   4.655   9.630  0.2382  1.6082 -3.0413
  178SOPE  C21720303   1.319   4.503   9.720 -1.2630  0.3806  0.2989
  178SOPE  H17R20304   1.421   4.467   9.696 -1.2547 -0.0161  0.9195
  178SOPE  H17S20305   1.256   4.413   9.739 -1.1492  0.6377  2.0486
  178SOPE  C21820306   1.301   4.593   9.842 -0.0110 -0.5708 -0.2216
  178SOPE  H18R20307   1.339   4.539   9.932  2.2109 -0.1183 -0.8281
  178SOPE  H18S20308   1.193   4.617   9.851  0.7774  3.2326  1.4745
  178SOPE  H18T20309   1.350   4.692   9.825 -2.2482  0.6597  0.0501
  178SOPE   C3320310   0.860   5.832  10.283 -0.1573  0.2515 -0.5136
  178SOPE   H3X20311   0.948   5.764  10.284 -0.9665 -0.9499 -2.6717
  178SOPE   H3Y20312   0.896   5.936  10.285 -0.5038  0.3668  1.2669
  178SOPE   C3420313   0.793   5.813  10.147 -0.2808  0.2848  0.1202
  178SOPE   H4X20314   0.726   5.899  10.131 -1.1310 -0.0155  1.7981
  178SOPE   H4Y20315   0.730   5.722  10.151  0.2446 -0.0815  0.2375
  178SOPE   C3520316   0.898   5.804  10.030  0.8950  0.4137  0.4584
  178SOPE   H5X20317   0.949   5.705  10.026  2.2977  1.0246  2.0546
  178SOPE   H5Y20318   0.973   5.878  10.066  0.4929  1.0088  0.0925
  178SOPE   C3620319   0.842   5.827   9.891 -0.4292  0.0303  0.3247
  178SOPE   H6X20320   0.783   5.920   9.903 -1.4456 -0.3402 -1.4151
  178SOPE   H6Y20321   0.771   5.750   9.853  0.6468  0.3567 -2.6623
  178SOPE   C3720322   0.943   5.835   9.777 -0.4728 -0.7002  0.4037
  178SOPE   H7X20323   0.992   5.740   9.748  1.0407  0.5253 -1.2430
  178SOPE   H7Y20324   1.021   5.909   9.803 -0.0487 -0.9856 -0.0553
  178SOPE   C3820325   0.881   5.888   9.644  0.3077  0.5683 -0.8757
  178SOPE   H8X20326   0.808   5.970   9.661 -0.1093  0.1468 -0.6147
  178SOPE   H8Y20327   0.810   5.811   9.608 -1.4537  1.7394 -0.0167
  178SOPE   C3920328   0.979   5.932   9.530  0.2161  0.1909 -0.4450
  178SOPE   H9X20329   1.059   5.854   9.522 -0.7949 -0.7751 -1.6708
  178SOPE   H9Y20330   1.027   6.023   9.571 -0.4928  0.5414 -0.3903
  178SOPE  C31020331   0.917   5.940   9.387  0.1563 -0.2083  0.1854
  178SOPE  H10X20332   0.863   6.037   9.379  0.7110  0.2889  1.9410
  178SOPE  H10Y20333   0.850   5.853   9.375 -0.1829  0.1750 -0.7973
  178SOPE  C31120334   1.011   5.946   9.269 -0.4994 -0.2640 -0.9335
  178SOPE  H11X20335   0.947   5.940   9.178 -0.6816  0.6083 -0.8659
  178SOPE  H11Y20336   1.070   5.853   9.257 -0.6733 -0.4489 -0.4111
  178SOPE  C31220337   1.103   6.072   9.267 -0.9388 -0.7262 -0.2544
  178SOPE  H12X20338   1.186   6.058   9.340  0.6222 -0.9444 -1.9888
  178SOPE  H12Y20339   1.047   6.155   9.314  1.7006  1.3351 -0.5384
  178SOPE  C31320340   1.171   6.097   9.134  1.0443  0.0559 -0.5418
  178SOPE  H13X20341   1.224   6.003   9.106  1.3174 -0.4639  1.5353
  178SOPE  H13Y20342   1.242   6.182   9.132 -0.7441  1.5911 -1.6141
  178SOPE  C31420343   1.068   6.128   9.022  0.1284 -0.6352 -0.1627
  178SOPE  H14X20344   0.987   6.200   9.047  0.7233 -0.7203  2.1628
  178SOPE  H14Y20345   1.016   6.032   9.003  1.4033 -1.2816 -0.5035
  178SOPE  C31520346   1.131   6.161   8.883 -0.2882  0.0283 -0.7687
  178SOPE  H15X20347   1.212   6.086   8.872 -1.6566 -1.5630 -0.4168
  178SOPE  H15Y20348   1.180   6.259   8.903 -2.4234  0.4743  3.2655
  178SOPE  C31620349   1.034   6.149   8.764  0.4274 -0.1043 -0.0503
  178SOPE  H16X20350   0.937   6.199   8.782 -0.8416 -2.8316  1.2060
  178SOPE  H16Y20351   1.008   6.041   8.765 -1.6725  0.3571  1.3263
  178SOPE  C31720352   1.085   6.194   8.630  0.9191 -0.0271  0.3819
  178SOPE  H17X20353   1.167   6.132   8.588  1.2562  1.0220 -0.5501
  178SOPE  H17Y20354   1.133   6.294   8.635  1.1867 -0.1107 -0.4178
  178SOPE  C31820355   0.967   6.206   8.526  0.1691 -0.2827 -0.2939
  178SOPE  H18X20356   0.932   6.105   8.497  0.4297 -0.7263  0.8865
  178SOPE  H18Y20357   1.007   6.265   8.440 -1.4040  0.2490 -0.6876
  178SOPE  H18Z20358   0.882   6.257   8.576 -0.4549 -1.8162  0.2854
  179SOPE     N20359   6.745   0.284   6.535 -0.5719 -0.1919  0.0458
  179SOPE   HN120360   6.683   0.321   6.461  1.4191 -2.4016 -2.9734
  179SOPE   HN220361   6.800   0.208   6.490 -0.8344 -0.2490 -0.1747
  179SOPE   HN320362   6.681   0.248   6.608 -0.2340 -1.2216 -0.1584
  179SOPE   C1220363   6.853   0.368   6.591 -0.4353  0.0295  0.5265
  179SOPE  H12A20364   6.915   0.417   6.513 -0.8204  2.3467  1.5602
  179SOPE  H12B20365   6.931   0.316   6.650 -0.9235 -1.2004  0.1087
  179SOPE   C1120366   6.794   0.488   6.659  0.3124  0.1528  0.1806
  179SOPE  H11A20367   6.877   0.543   6.708  0.3317 -0.1961  0.5392
  179SOPE  H11B20368   6.731   0.455   6.744  2.3998 -1.6432  1.1135
  179SOPE     P20369   6.738   0.724   6.545 -0.1617 -0.2318  0.0222
  179SOPE   O1320370   6.619   0.783   6.469 -0.8728 -0.2771 -0.2114
  179SOPE   O1420371   6.868   0.753   6.479  0.0622  0.6660  0.1947
  179SOPE   O1220372   6.710   0.573   6.578 -0.0989 -0.1950  0.6393
  179SOPE   O1120373   6.735   0.795   6.682 -0.4822 -0.6645  0.1460
  179SOPE    C120374   6.652   0.760   6.796  0.7501  0.0494 -0.2202
  179SOPE    HA20375   6.716   0.752   6.886 -0.7862 -1.2433  0.8069
  179SOPE    HB20376   6.618   0.655   6.793 -0.2439  0.3472  0.3473
  179SOPE    C220377   6.521   0.847   6.816 -0.3806  0.6824  0.1671
  179SOPE    HS20378   6.486   0.888   6.719 -0.7299 -1.9150 -0.8857
  179SOPE   O2120379   6.551   0.954   6.906 -0.5103  0.8144 -0.0900
  179SOPE   C2120380   6.638   1.042   6.875 -0.7298 -0.3638  0.0392
  179SOPE   O2220381   6.698   1.055   6.765 -0.1983  0.6840 -0.3608
  179SOPE   C2220382   6.652   1.141   6.993 -0.3658  0.5262  0.0293
  179SOPE   H2R20383   6.580   1.108   7.071  0.1322  1.0391  0.7213
  179SOPE   H2S20384   6.623   1.242   6.957 -0.3218  0.3349 -0.5564
  179SOPE    C320385   6.408   0.759   6.887 -0.2642  0.6685  1.2772
  179SOPE    HX20386   6.382   0.680   6.813  0.8079  2.1564 -0.8031
  179SOPE    HY20387   6.312   0.814   6.888  0.2285  1.6412 -0.6509
  179SOPE   O3120388   6.459   0.715   7.012 -0.0020 -0.2780  0.1720
  179SOPE   C3120389   6.414   0.770   7.118  0.2373 -0.5454 -0.3520
  179SOPE   O3220390   6.307   0.831   7.125 -0.2463 -0.5941 -0.0458
  179SOPE   C3220391   6.508   0.730   7.230  0.6681 -0.8924  0.4830
  179SOPE   H2X20392   6.562   0.825   7.252 -1.8861  0.6680  0.4379
  179SOPE   H2Y20393   6.583   0.664   7.182  1.2616  0.6933 -0.8492
  179SOPE   C2320394   6.790   1.123   7.040  0.8787 -0.3030  0.5067
  179SOPE   H3R20395   6.832   1.218   7.078  1.8874  0.0149 -1.3032
  179SOPE   H3S20396   6.870   1.104   6.966 -1.3270 -0.0515 -2.1337
  179SOPE   C2420397   6.800   1.008   7.144  0.5720  0.6917  0.4762
  179SOPE   H4R20398   6.771   1.036   7.247 -0.4697  0.7679  0.1727
  179SOPE   H4S20399   6.725   0.934   7.109  0.5837  0.0562  1.7614
  179SOPE   C2520400   6.940   0.940   7.152 -0.3439 -0.3594 -0.6020
  179SOPE   H5R20401   6.968   0.901   7.052 -1.6243 -2.0967 -0.3266
  179SOPE   H5S20402   7.016   1.019   7.170  1.6067 -1.7946 -2.0786
  179SOPE   C2620403   6.953   0.822   7.247  0.1518 -0.8966 -0.1825
  179SOPE   H6R20404   6.877   0.743   7.227  0.9769 -1.9099  0.5515
  179SOPE   H6S20405   7.056   0.781   7.245  0.6163  0.2407 -0.2605
  179SOPE   C2720406   6.914   0.862   7.388 -0.0895  0.3633 -0.3338
  179SOPE   H7R20407   6.810   0.901   7.388 -0.2005  0.0757 -0.1806
  179SOPE   H7S20408   6.908   0.777   7.460  3.1600  0.8561  0.6743
  179SOPE   C2820409   7.011   0.960   7.449  0.0683 -0.0702  0.5321
  179SOPE   H8R20410   7.116   0.924   7.444  0.0316  0.0012 -1.3679
  179SOPE   H8S20411   7.028   1.046   7.381  2.7357 -0.6655  0.3251
  179SOPE   C2920412   6.969   1.016   7.588  0.4582 -0.3950 -0.1592
  179SOPE   H9120413   6.882   1.083   7.589 -0.8316 -2.0049  0.6128
  179SOPE  C21020414   7.029   0.980   7.705 -0.3098 -0.7617 -0.5827
  179SOPE  H10120415   7.004   1.033   7.798 -0.1750 -1.0236 -0.3953
  179SOPE  C21120416   7.146   0.891   7.713  0.6379 -0.1248  0.3136
  179SOPE  H11R20417   7.174   0.857   7.611 -0.6716  0.7589 -0.3798
  179SOPE  H11S20418   7.115   0.806   7.778  0.4772 -0.5991 -0.3633
  179SOPE  C21220419   7.269   0.953   7.771  0.2929  0.6855 -0.0590
  179SOPE  H12R20420   7.296   1.034   7.700 -1.1702  0.9070 -0.3838
  179SOPE  H12S20421   7.355   0.882   7.764  0.0071  0.2387  0.8023
  179SOPE  C21320422   7.264   1.020   7.914 -0.7671  0.2772 -0.1071
  179SOPE  H13R20423   7.183   1.095   7.897  0.0841  0.9957 -1.1821
  179SOPE  H13S20424   7.360   1.069   7.938  0.2510 -2.0894  0.9539
  179SOPE  C21420425   7.218   0.926   8.023 -0.2095  0.2611 -0.8872
  179SOPE  H14R20426   7.240   0.819   8.003  1.1042  0.5265 -0.9498
  179SOPE  H14S20427   7.107   0.929   8.022 -0.2348  1.7447  0.6558
  179SOPE  C21520428   7.282   0.958   8.162  0.8309  0.0499  1.1786
  179SOPE  H15R20429   7.393   0.960   8.159  0.8577 -1.0935  0.3127
  179SOPE  H15S20430   7.246   0.874   8.225 -0.8515 -1.3831 -1.4786
  179SOPE  C21620431   7.231   1.090   8.224  0.1284 -1.0229  0.1696
  179SOPE  H16R20432   7.127   1.086   8.182  0.0917 -1.0956  0.2685
  179SOPE  H16S20433   7.282   1.174   8.171  0.2411 -1.1921  0.0080
  179SOPE  C21720434   7.231   1.099   8.372 -0.5570 -0.1021 -0.4469
  179SOPE  H17R20435   7.330   1.143   8.398 -1.1886  0.3480  1.3609
  179SOPE  H17S20436   7.210   0.999   8.417 -0.0922  0.1753  0.4252
  179SOPE  C21820437   7.137   1.192   8.420  0.8915 -0.0763 -0.4373
  179SOPE  H18R20438   7.164   1.299   8.407  0.0063  0.0353 -1.4283
  179SOPE  H18S20439   7.112   1.170   8.526  0.2963 -1.4979 -0.8510
  179SOPE  H18T20440   7.040   1.190   8.366 -0.8934  0.4613  2.4951
  179SOPE   C3320441   6.442   0.674   7.349  0.3178 -0.4700  0.0820
  179SOPE   H3X20442   6.390   0.586   7.306 -0.7555  0.2597 -0.1655
  179SOPE   H3Y20443   6.371   0.744   7.399  0.7947 -0.2011  0.3938
  179SOPE   C3420444   6.541   0.617   7.457 -0.0749  0.1573 -0.1028
  179SOPE   H4X20445   6.618   0.547   7.417  0.3615 -0.1663  1.2342
  179SOPE   H4Y20446   6.478   0.560   7.529  0.2455 -0.3893 -0.2477
  179SOPE   C3520447   6.604   0.727   7.548 -0.1352 -0.4680 -0.8364
  179SOPE   H5X20448   6.533   0.799   7.597 -0.1635 -0.8509 -0.3102
  179SOPE   H5Y20449   6.663   0.799   7.488 -0.1310  1.6770  1.5740
  179SOPE   C3620450   6.692   0.661   7.656  1.2531 -0.7532  0.3098
  179SOPE   H6X20451   6.787   0.620   7.616  0.6582 -3.1239  1.1595
  179SOPE   H6Y20452   6.639   0.572   7.697 -0.0558  0.2458  0.8526
  179SOPE   C3720453   6.725   0.755   7.767 -0.5218  0.2166 -0.1198
  179SOPE   H7X20454   6.637   0.809   7.809  0.5261  1.4877  0.5279
  179SOPE   H7Y20455   6.784   0.839   7.725 -2.2009  0.2747 -2.5364
  179SOPE   C3820456   6.805   0.689   7.887  0.5123 -0.4131  0.2975
  179SOPE   H8X20457   6.899   0.648   7.844  0.5366  0.8601 -0.9394
  179SOPE   H8Y20458   6.744   0.601   7.918 -0.0896 -0.8211 -1.8638
  179SOPE   C3920459   6.820   0.778   8.004 -0.5407  0.1527  0.6386
  179SOPE   H9X20460   6.729   0.826   8.045  0.5729  2.2860  0.7508
  179SOPE   H9Y20461   6.892   0.853   7.966 -0.2312  0.2813  1.4495
  179SOPE  C31020462   6.902   0.709   8.111 -0.1239  0.1570  0.3284
  179SOPE  H10X20463   7.006   0.687   8.077 -0.5386 -1.9154  0.2637
  179SOPE  H10Y20464   6.858   0.613   8.145 -2.8707  1.7901  1.6694
  179SOPE  C31120465   6.931   0.785   8.237  0.3685  0.0374 -0.7839
  179SOPE  H11X20466   6.975   0.885   8.214  2.7864 -0.8354 -0.2364
  179SOPE  H11Y20467   6.988   0.720   8.307 -2.0500  1.0194  2.3224
  179SOPE  C31220468   6.804   0.808   8.325  0.2647  0.3002 -0.0779
  179SOPE  H12X20469   6.752   0.711   8.338  2.6862 -1.1908 -0.7897
  179SOPE  H12Y20470   6.730   0.878   8.283 -2.0884 -0.4389  2.5531
  179SOPE  C31320471   6.848   0.865   8.459  0.1602  0.2608 -0.6332
  179SOPE  H13X20472   6.874   0.973   8.469 -1.0839  0.4558  0.9449
  179SOPE  H13Y20473   6.934   0.809   8.500  0.4640  0.8594 -0.4385
  179SOPE  C31420474   6.729   0.860   8.558  0.3418 -0.6045 -0.1609
  179SOPE  H14X20475   6.654   0.787   8.521 -0.5005  0.9418 -1.6507
  179SOPE  H14Y20476   6.680   0.958   8.540  0.2356 -0.8968 -1.6158
  179SOPE  C31520477   6.757   0.840   8.704 -0.3405  0.1163  0.2136
  179SOPE  H15X20478   6.803   0.937   8.736  1.2985  0.0881 -1.8301
  179SOPE  H15Y20479   6.834   0.760   8.708 -0.9978 -0.5016  0.6199
  179SOPE  C31620480   6.633   0.825   8.783  1.1191  0.2052  0.2266
  179SOPE  H16X20481   6.621   0.717   8.760  0.2938  0.0569  1.2614
  179SOPE  H16Y20482   6.543   0.876   8.743  1.5847  0.5681 -0.3813
  179SOPE  C31720483   6.647   0.862   8.931  0.0148 -0.2232 -0.2288
  179SOPE  H17X20484   6.681   0.967   8.949 -2.6059  0.4166  1.5932
  179SOPE  H17Y20485   6.737   0.807   8.966  0.7179  1.1512  0.2271
  179SOPE  C31820486   6.517   0.831   9.009 -0.2161  0.5437 -0.0993
  179SOPE  H18X20487   6.480   0.734   8.971  3.6071 -1.6929  1.3871
  179SOPE  H18Y20488   6.443   0.913   8.993 -2.2074 -1.2770 -0.6979
  179SOPE  H18Z20489   6.537   0.825   9.118 -0.3856  3.0064  0.1275
  180SOPE     N20490   5.168   5.969   6.676  0.5642 -0.0532  0.2737
  180SOPE   HN120491   5.067   5.966   6.702  0.9591 -1.0518  1.8146
  180SOPE   HN220492   5.218   6.055   6.705  0.1603  0.7892 -1.3960
  180SOPE   HN320493   5.175   5.973   6.572 -1.4564 -0.2871  0.0721
  180SOPE   C1220494   5.237   5.841   6.716  1.1037 -0.2628 -0.1420
  180SOPE  H12A20495   5.209   5.768   6.638 -0.1031 -0.2840  0.2814
  180SOPE  H12B20496   5.188   5.806   6.810  0.8961 -0.9110 -0.4854
  180SOPE   C1120497   5.390   5.853   6.719 -0.3277  0.0382 -0.3655
  180SOPE  H11A20498   5.406   5.759   6.776 -2.0293  0.0446  0.1879
  180SOPE  H11B20499   5.426   5.947   6.764  1.7646 -0.7922 -0.2199
  180SOPE     P20500   5.591   5.897   6.549 -0.6174  0.0827  0.1550
  180SOPE   O1320501   5.573   6.036   6.501  0.4973  0.2555 -0.0504
  180SOPE   O1420502   5.667   5.799   6.456  1.0390 -0.2031 -0.4208
  180SOPE   O1220503   5.450   5.834   6.591  0.2472 -0.0831  0.1099
  180SOPE   O1120504   5.663   5.890   6.689 -0.9130 -0.1048  0.2808
  180SOPE    C120505   5.787   5.961   6.731 -0.4311 -0.5551  0.3385
  180SOPE    HA20506   5.786   6.068   6.699 -2.6991 -0.7968 -0.5657
  180SOPE    HB20507   5.875   5.906   6.693 -0.6938  0.1114 -1.3320
  180SOPE    C220508   5.786   5.963   6.885  0.2982 -0.2046 -0.2443
  180SOPE    HS20509   5.871   6.032   6.905 -0.0106  0.1807 -0.2734
  180SOPE   O2120510   5.798   5.829   6.938  0.2453 -0.3420 -0.7936
  180SOPE   C2120511   5.902   5.806   7.017  0.2972  0.3808  0.2028
  180SOPE   O2220512   5.977   5.890   7.061  0.8931  0.3586 -0.3417
  180SOPE   C2220513   5.902   5.657   7.051 -0.7208 -0.2212 -0.3175
  180SOPE   H2R20514   5.918   5.603   6.955  1.6852 -0.4383  0.1515
  180SOPE   H2S20515   5.800   5.633   7.088  0.3981 -0.6750  2.7183
  180SOPE    C320516   5.664   6.036   6.937  0.1385 -0.8229  0.1470
  180SOPE    HX20517   5.574   5.982   6.900  1.2769 -1.6887 -1.4700
  180SOPE    HY20518   5.652   6.140   6.899 -2.6898 -0.2664  2.1824
  180SOPE   O3120519   5.658   6.043   7.080 -0.2777 -0.0201 -0.6956
  180SOPE   C3120520   5.741   6.121   7.139 -0.0064  0.0064 -0.2819
  180SOPE   O3220521   5.814   6.203   7.091 -0.4998  0.2891 -0.9480
  180SOPE   C3220522   5.744   6.060   7.280  0.2356 -0.3254 -0.2291
  180SOPE   H2X20523   5.807   5.968   7.268 -0.9144 -0.9102 -2.3845
  180SOPE   H2Y20524   5.638   6.038   7.304 -0.0020  0.0505 -0.9064
  180SOPE   C2320525   6.009   5.606   7.154 -0.1034 -0.6062 -0.1018
  180SOPE   H3R20526   6.098   5.666   7.126 -1.0014  1.2161  0.7440
  180SOPE   H3S20527   6.042   5.500   7.147  0.9739 -0.1939 -2.6058
  180SOPE   C2420528   5.962   5.649   7.297 -0.0026  0.4176 -0.8968
  180SOPE   H4R20529   5.924   5.753   7.293  1.0993  0.8000 -1.9971
  180SOPE   H4S20530   5.877   5.586   7.330 -0.8860  0.0124 -3.7100
  180SOPE   C2520531   6.071   5.640   7.399  0.1086  0.1818  0.1865
  180SOPE   H5R20532   6.102   5.540   7.437 -3.1350 -0.6294  1.0430
  180SOPE   H5S20533   6.157   5.688   7.348  0.9222 -0.2706  1.0845
  180SOPE   C2620534   6.041   5.731   7.522  0.2116  0.4233  0.2971
  180SOPE   H6R20535   6.040   5.834   7.481 -0.7673  0.0643 -0.6272
  180SOPE   H6S20536   5.942   5.702   7.563  0.8037  0.0214  1.5050
  180SOPE   C2720537   6.157   5.731   7.622  0.0417 -0.3660 -0.6662
  180SOPE   H7R20538   6.185   5.637   7.674  1.0067  0.3855  0.1838
  180SOPE   H7S20539   6.246   5.756   7.560  0.8253 -0.7974  0.2724
  180SOPE   C2820540   6.149   5.852   7.724 -0.0108 -0.2408 -0.2305
  180SOPE   H8R20541   6.250   5.880   7.760 -1.2217  1.3568  2.1568
  180SOPE   H8S20542   6.105   5.935   7.665 -0.8218 -1.6088 -1.6226
  180SOPE   C2920543   6.062   5.816   7.838 -0.5069 -0.0582 -0.8516
  180SOPE   H9120544   5.957   5.789   7.822 -1.3631  0.8773  2.4029
  180SOPE  C21020545   6.092   5.814   7.973 -0.6203  0.3132 -0.1944
  180SOPE  H10120546   6.022   5.777   8.050  0.9559  0.7404  1.5291
  180SOPE  C21120547   6.226   5.847   8.025 -0.4997 -0.8342  0.7881
  180SOPE  H11R20548   6.253   5.930   7.957  0.8012 -0.7407  1.3808
  180SOPE  H11S20549   6.291   5.759   8.004  1.8357  0.3065  2.7230
  180SOPE  C21220550   6.251   5.891   8.170  0.4286 -0.6415  0.1512
  180SOPE  H12R20551   6.360   5.907   8.179  0.7302 -2.0449 -0.7072
  180SOPE  H12S20552   6.230   5.804   8.236 -0.0606 -1.1111 -0.6122
  180SOPE  C21320553   6.175   6.013   8.220  0.0853  0.1516  0.2630
  180SOPE  H13R20554   6.071   5.985   8.246 -0.1258  2.3162  2.1196
  180SOPE  H13S20555   6.161   6.102   8.155 -1.3886  2.0456  2.9432
  180SOPE  C21420556   6.221   6.080   8.341  0.7507  0.1585 -0.1127
  180SOPE  H14R20557   6.143   6.154   8.371 -0.1132 -1.7615  2.7516
  180SOPE  H14S20558   6.317   6.135   8.328  1.1875 -0.3779  0.7659
  180SOPE  C21520559   6.235   5.988   8.463  1.4158  0.2475  0.4920
  180SOPE  H15R20560   6.315   5.917   8.433  2.8912  2.0027  0.1547
  180SOPE  H15S20561   6.147   5.922   8.479  2.2907 -1.3300 -0.9031
  180SOPE  C21620562   6.278   6.062   8.589 -0.5620 -0.4345 -0.5218
  180SOPE  H16R20563   6.272   6.012   8.688  2.0612  2.3739  1.2205
  180SOPE  H16S20564   6.232   6.163   8.595 -0.1790 -0.2117 -1.2346
  180SOPE  C21720565   6.425   6.088   8.580 -0.7676 -0.4324 -0.5043
  180SOPE  H17R20566   6.458   6.128   8.482  2.1500  3.6077  1.7939
  180SOPE  H17S20567   6.481   5.993   8.589 -1.7452 -1.0039 -0.3741
  180SOPE  C21820568   6.481   6.182   8.691  0.1927 -1.1234  0.0091
  180SOPE  H18R20569   6.471   6.136   8.792  0.1994 -1.7561 -0.2752
  180SOPE  H18S20570   6.433   6.282   8.688  2.5862  0.0604 -1.9131
  180SOPE  H18T20571   6.592   6.189   8.687  0.3151  1.5672  3.4311
  180SOPE   C3320572   5.808   6.148   7.392 -0.0622  0.2024  0.3040
  180SOPE   H3X20573   5.775   6.250   7.362  1.3341  0.7246  0.4688
  180SOPE   H3Y20574   5.916   6.140   7.365 -0.4690 -0.0921 -1.4049
  180SOPE   C3420575   5.771   6.104   7.531 -0.4323  0.2341 -0.5608
  180SOPE   H4X20576   5.818   6.005   7.547 -1.6103 -0.2741 -0.1814
  180SOPE   H4Y20577   5.662   6.103   7.549 -0.7647 -1.5333 -2.3554
  180SOPE   C3520578   5.827   6.205   7.632  0.2976 -0.8336  0.8542
  180SOPE   H5X20579   5.780   6.305   7.626 -1.3532 -1.5946  0.5922
  180SOPE   H5Y20580   5.935   6.219   7.613  0.2062 -0.0531  0.8891
  180SOPE   C3620581   5.817   6.153   7.777  0.5297 -0.5136 -0.7008
  180SOPE   H6X20582   5.877   6.065   7.807  0.0909  0.4636  3.8341
  180SOPE   H6Y20583   5.711   6.128   7.801  0.6949 -2.3956 -1.7524
  180SOPE   C3720584   5.867   6.259   7.876  0.2291  0.0683  0.3399
  180SOPE   H7X20585   5.793   6.340   7.860 -0.4803 -0.3593  1.4335
  180SOPE   H7Y20586   5.973   6.287   7.857  1.0400 -1.8750  1.6733
  180SOPE   C3820587   5.868   6.210   8.021  0.5374 -0.0983 -0.4700
  180SOPE   H8X20588   5.958   6.145   8.028 -0.0307 -0.7934  0.8342
  180SOPE   H8Y20589   5.780   6.156   8.062  0.0960  0.2740 -0.9068
  180SOPE   C3920590   5.869   6.325   8.120 -0.3281  0.0933 -0.3597
  180SOPE   H9X20591   5.772   6.379   8.121  0.0517  0.8098  1.4758
  180SOPE   H9Y20592   5.941   6.403   8.089 -0.0691  0.5633  1.3224
  180SOPE  C31020593   5.910   6.284   8.264  0.1703 -0.4986 -0.0743
  180SOPE  H10X20594   6.020   6.270   8.267  0.7312  3.0833  2.0061
  180SOPE  H10Y20595   5.858   6.188   8.289 -0.0483 -0.8388 -1.7133
  180SOPE  C31120596   5.876   6.396   8.367  0.0818  0.2253 -0.7649
  180SOPE  H11X20597   5.767   6.397   8.391 -0.2211 -1.5141 -1.8988
  180SOPE  H11Y20598   5.907   6.497   8.334  0.8982  0.0495 -0.5597
  180SOPE  C31220599   5.937   6.359   8.504 -0.4370  0.0265  1.1043
  180SOPE  H12X20600   6.045   6.343   8.483 -0.3031  1.6275  0.3588
  180SOPE  H12Y20601   5.900   6.259   8.533 -0.8384  0.2463  1.3599
  180SOPE  C31320602   5.929   6.457   8.617 -0.2244 -0.0641 -0.6319
  180SOPE  H13X20603   5.951   6.400   8.710 -0.8147  0.4389 -0.1824
  180SOPE  H13Y20604   5.830   6.505   8.631  0.6127  1.8229 -0.9502
  180SOPE  C31420605   6.022   6.578   8.604  0.1591  0.0086  0.4900
  180SOPE  H14X20606   5.963   6.635   8.529  0.7891 -0.0224 -0.0339
  180SOPE  H14Y20607   6.123   6.538   8.581 -0.3519 -0.4700 -0.9750
  180SOPE  C31520608   6.037   6.642   8.742  0.5628  0.9829  0.8437
  180SOPE  H15X20609   6.075   6.567   8.814 -1.1870 -0.4353  0.3662
  180SOPE  H15Y20610   5.932   6.673   8.765 -0.3143 -0.5113 -0.8592
  180SOPE  C31620611   6.120   6.768   8.754  0.7967  0.1624  0.7322
  180SOPE  H16X20612   6.120   6.812   8.652  1.1726 -0.7699  0.3211
  180SOPE  H16Y20613   6.225   6.748   8.784  1.3205  2.2311  0.4475
  180SOPE  C31720614   6.058   6.881   8.843  0.2867  0.5561  0.3447
  180SOPE  H17X20615   6.136   6.960   8.846  1.8755 -0.6881 -3.0034
  180SOPE  H17Y20616   6.040   6.838   8.944 -3.4146 -0.2320 -0.4772
  180SOPE  C31820617   5.920   6.946   8.787 -0.5984  0.5662  0.1659
  180SOPE  H18X20618   5.935   6.978   8.682  2.5730  2.1513  0.9648
  180SOPE  H18Y20619   5.882   7.037   8.839  1.3878  0.9219  1.0905
  180SOPE  H18Z20620   5.839   6.871   8.798  0.7909 -1.2808 -1.4051
  181SOPE     N20621   6.155   4.223   5.779  0.5030  0.0823 -0.2046
  181SOPE   HN120622   6.149   4.327   5.789 -1.2335  0.0134 -0.3640
  181SOPE   HN220623   6.183   4.204   5.680  0.8000  1.4375 -0.4005
  181SOPE   HN320624   6.064   4.183   5.807 -0.1858  0.3916 -1.8880
  181SOPE   C1220625   6.268   4.166   5.868  0.8311 -1.3252 -0.2027
  181SOPE  H12A20626   6.367   4.181   5.822  0.4371  0.4107 -0.5754
  181SOPE  H12B20627   6.245   4.058   5.878 -0.2736 -1.0567  0.4539
  181SOPE   C1120628   6.288   4.247   6.001 -0.0825 -0.6975  0.2387
  181SOPE  H11A20629   6.353   4.183   6.065 -0.2810 -0.8507  0.2904
  181SOPE  H11B20630   6.193   4.259   6.056  1.1323  1.7518  1.9906
  181SOPE     P20631   6.347   4.491   6.088  0.1751 -0.0337  0.1241
  181SOPE   O1320632   6.278   4.611   6.025 -0.1570 -0.1095  0.3033
  181SOPE   O1420633   6.491   4.505   6.137  0.4617  0.0174 -0.8019
  181SOPE   O1220634   6.345   4.373   5.980  0.1845  0.1740  0.7996
  181SOPE   O1120635   6.259   4.427   6.199  0.0604 -0.5225  0.6435
  181SOPE    C120636   6.168   4.501   6.275  0.2713  0.1696 -0.4008
  181SOPE    HA20637   6.091   4.438   6.324  1.8207 -0.8823  0.7691
  181SOPE    HB20638   6.103   4.574   6.221 -0.8308 -0.8967 -0.5628
  181SOPE    C220639   6.232   4.576   6.393 -0.4834  0.6139 -0.2794
  181SOPE    HS20640   6.325   4.628   6.360  1.2087 -1.7409  0.5023
  181SOPE   O2120641   6.283   4.466   6.483 -0.1021  0.5733 -0.6385
  181SOPE   C2120642   6.383   4.513   6.559 -0.0699  0.0206 -0.6137
  181SOPE   O2220643   6.438   4.622   6.550  0.8491  0.3874 -0.6021
  181SOPE   C2220644   6.408   4.407   6.660 -0.3015  0.4070  0.3782
  181SOPE   H2R20645   6.491   4.339   6.628 -0.0862  0.3494  1.0396
  181SOPE   H2S20646   6.331   4.328   6.665 -0.2597  0.4136  1.3169
  181SOPE    C320647   6.131   4.665   6.468  0.7139 -0.6549 -0.1487
  181SOPE    HX20648   6.085   4.744   6.405  0.3044  2.0791  3.3146
  181SOPE    HY20649   6.179   4.723   6.550 -0.6997 -0.5193  0.6055
  181SOPE   O3120650   6.010   4.590   6.523  0.0929 -0.0437  0.3283
  181SOPE   C3120651   6.026   4.547   6.645  0.1439  0.4845 -0.5734
  181SOPE   O3220652   6.114   4.574   6.729  0.0378  0.0232  0.2397
  181SOPE   C3220653   5.915   4.460   6.682  0.2529  0.6784 -0.2214
  181SOPE   H2X20654   5.918   4.379   6.606 -0.2655  2.3461 -2.0988
  181SOPE   H2Y20655   5.820   4.514   6.663 -0.5151 -0.7632 -0.5777
  181SOPE   C2320656   6.443   4.462   6.797  0.2227  0.4654  0.1583
  181SOPE   H3R20657   6.348   4.488   6.848 -0.5276  2.8556 -2.2218
  181SOPE   H3S20658   6.509   4.552   6.792  0.6860  0.1750  0.8197
  181SOPE   C2420659   6.526   4.370   6.887 -0.0407  0.0838  0.9157
  181SOPE   H4R20660   6.469   4.275   6.896  1.4774 -1.2966 -2.3273
  181SOPE   H4S20661   6.620   4.337   6.839 -1.2880  0.0919 -1.7367
  181SOPE   C2520662   6.542   4.429   7.028 -0.1833  0.3313  0.4139
  181SOPE   H5R20663   6.586   4.531   7.022  0.7980 -0.1726 -1.8970
  181SOPE   H5S20664   6.438   4.441   7.067 -0.8918 -1.2324 -0.9171
  181SOPE   C2620665   6.644   4.355   7.115  0.2575 -0.1339 -0.4776
  181SOPE   H6R20666   6.620   4.246   7.113  0.7704 -0.2547 -2.6913
  181SOPE   H6S20667   6.740   4.358   7.059  1.7384  2.8374  1.9367
  181SOPE   C2720668   6.674   4.422   7.251  0.6323 -0.0098  0.2643
  181SOPE   H7R20669   6.712   4.337   7.311 -0.1516 -1.0902 -0.7249
  181SOPE   H7S20670   6.758   4.494   7.239  1.4826 -1.2897 -1.8634
  181SOPE   C2820671   6.555   4.498   7.322  0.4326 -0.3618  0.0060
  181SOPE   H8R20672   6.500   4.566   7.254  0.8450  0.6272  0.6543
  181SOPE   H8S20673   6.481   4.418   7.345 -0.4838 -0.7492 -3.6305
  181SOPE   C2920674   6.599   4.568   7.445 -0.4211  0.4864 -0.4285
  181SOPE   H9120675   6.648   4.665   7.432  0.6792  0.5371  3.0109
  181SOPE  C21020676   6.603   4.513   7.573 -0.6937 -0.1750 -0.4410
  181SOPE  H10120677   6.636   4.580   7.654  0.0329 -2.1389  0.9407
  181SOPE  C21120678   6.574   4.373   7.605  0.5244 -0.6785 -0.3729
  181SOPE  H11R20679   6.567   4.303   7.520  0.4211 -1.4298  0.2469
  181SOPE  H11S20680   6.476   4.356   7.655  0.6714 -0.2329  0.0790
  181SOPE  C21220681   6.695   4.323   7.686  0.0141 -0.0944 -0.0059
  181SOPE  H12R20682   6.789   4.330   7.627  0.1213  2.0722  0.3483
  181SOPE  H12S20683   6.675   4.217   7.712 -0.2598  0.6887  3.4967
  181SOPE  C21320684   6.720   4.387   7.825  0.0909  0.0071  0.6778
  181SOPE  H13R20685   6.769   4.486   7.820  1.5137 -0.7484 -1.6446
  181SOPE  H13S20686   6.786   4.319   7.883  0.4121  1.5894  2.2543
  181SOPE  C21420687   6.593   4.419   7.907  0.6055 -0.7093  0.6186
  181SOPE  H14R20688   6.528   4.331   7.925  0.7752 -0.6650  1.4982
  181SOPE  H14S20689   6.529   4.491   7.853  1.8389 -1.6399 -2.2509
  181SOPE  C21520690   6.614   4.475   8.046 -0.5075  0.2426  0.3588
  181SOPE  H15R20691   6.518   4.522   8.074 -1.4109  0.1401 -2.3284
  181SOPE  H15S20692   6.695   4.551   8.036  2.4853 -2.8223 -0.7669
  181SOPE  C21620693   6.661   4.359   8.142  0.4117 -0.0839 -0.3747
  181SOPE  H16R20694   6.747   4.307   8.096  0.0662  1.4628 -2.9826
  181SOPE  H16S20695   6.573   4.292   8.151 -2.4940  3.1150 -2.1374
  181SOPE  C21720696   6.687   4.406   8.285  0.9015  0.3618 -0.4956
  181SOPE  H17R20697   6.589   4.446   8.319  1.1985  1.0177 -0.3954
  181SOPE  H17S20698   6.756   4.493   8.276  0.3396  0.7341 -1.4494
  181SOPE  C21820699   6.745   4.297   8.376  0.0682 -0.4477  0.3334
  181SOPE  H18R20700   6.855   4.288   8.365  0.4404  2.9504  0.1969
  181SOPE  H18S20701   6.697   4.200   8.350 -0.2667 -0.5997  1.4703
  181SOPE  H18T20702   6.716   4.324   8.480 -0.3632  0.4820 -0.0202
  181SOPE   C3320703   5.919   4.413   6.825 -0.5594 -0.9147 -0.5594
  181SOPE   H3X20704   5.906   4.501   6.890 -0.6390 -0.1002 -1.6562
  181SOPE   H3Y20705   6.026   4.392   6.847  0.0763 -1.1090 -3.4016
  181SOPE   C3420706   5.818   4.312   6.866  0.0582  0.9483 -0.0803
  181SOPE   H4X20707   5.848   4.216   6.818 -0.0363 -0.1383  1.9151
  181SOPE   H4Y20708   5.718   4.326   6.820 -0.4093 -1.1653  0.1713
  181SOPE   C3520709   5.804   4.275   7.013 -1.0477 -0.5340 -0.6439
  181SOPE   H5X20710   5.808   4.364   7.079  0.1291 -1.2606  0.3219
  181SOPE   H5Y20711   5.895   4.217   7.038 -1.0943 -1.6597 -2.7928
  181SOPE   C3620712   5.680   4.182   7.043  0.1589  0.0900  0.0864
  181SOPE   H6X20713   5.680   4.104   6.964  0.7841  0.6154 -0.4543
  181SOPE   H6Y20714   5.595   4.251   7.029  0.3267  0.6220  1.4780
  181SOPE   C3720715   5.674   4.110   7.182  0.5116 -0.3177 -0.3806
  181SOPE   H7X20716   5.700   4.180   7.264 -1.7597 -1.4165  1.3829
  181SOPE   H7Y20717   5.761   4.041   7.184  0.2424 -0.7267  3.1976
  181SOPE   C3820718   5.543   4.035   7.219 -0.7614  0.0230  0.5878
  181SOPE   H8X20719   5.509   3.955   7.151  0.4980 -1.1496  1.2919
  181SOPE   H8Y20720   5.462   4.111   7.212  0.5372  1.3666 -0.4132
  181SOPE   C3920721   5.545   3.971   7.365 -0.0065 -0.1520 -0.0363
  181SOPE   H9X20722   5.643   3.921   7.379 -0.2587 -0.4615  0.6251
  181SOPE   H9Y20723   5.465   3.896   7.383 -0.2002  0.4865  2.0295
  181SOPE  C31020724   5.518   4.072   7.480 -0.4783 -0.1209 -0.0788
  181SOPE  H10X20725   5.413   4.107   7.489 -0.1122  0.7104  1.3052
  181SOPE  H10Y20726   5.567   4.171   7.473 -1.1910  0.4850  2.3127
  181SOPE  C31120727   5.562   4.028   7.622 -0.4747  0.2283  0.1620
  181SOPE  H11X20728   5.670   4.046   7.641 -0.6555  1.6577 -0.0395
  181SOPE  H11Y20729   5.559   3.918   7.606 -1.0682  0.6206 -3.2217
  181SOPE  C31220730   5.467   4.079   7.731 -0.0476  0.4194  1.0708
  181SOPE  H12X20731   5.366   4.034   7.719  0.0835  0.0949  1.1757
  181SOPE  H12Y20732   5.459   4.189   7.734  1.0662  0.5970 -1.0151
  181SOPE  C31320733   5.516   4.049   7.873 -0.1062  0.3759  0.5516
  181SOPE  H13X20734   5.600   4.120   7.885  1.1812 -0.8169 -0.8948
  181SOPE  H13Y20735   5.553   3.945   7.887 -0.8791  0.2570  1.7847
  181SOPE  C31420736   5.417   4.075   7.993  0.3818 -0.1147  1.2142
  181SOPE  H14X20737   5.336   3.999   7.981 -0.9003  1.3146  0.5472
  181SOPE  H14Y20738   5.366   4.172   7.977 -1.0945 -0.7718  1.7232
  181SOPE  C31520739   5.483   4.065   8.128  0.7721  0.6931 -0.5664
  181SOPE  H15X20740   5.577   4.125   8.127  0.7446  0.7389 -0.4473
  181SOPE  H15Y20741   5.509   3.958   8.143 -0.1263  0.2052 -2.2818
  181SOPE  C31620742   5.392   4.109   8.246  0.3575  0.4916  1.0595
  181SOPE  H16X20743   5.322   4.029   8.279  1.6770 -1.7406 -1.1113
  181SOPE  H16Y20744   5.341   4.203   8.214 -0.3566 -0.6649 -1.5346
  181SOPE  C31720745   5.481   4.154   8.364  0.0846  0.0582 -0.1534
  181SOPE  H17X20746   5.489   4.264   8.379  0.7918  0.1314 -0.9437
  181SOPE  H17Y20747   5.585   4.117   8.351  1.0813  2.2731  1.1200
  181SOPE  C31820748   5.436   4.101   8.498  0.4583 -0.2499 -0.4946
  181SOPE  H18X20749   5.338   4.140   8.531  0.3003 -1.0930  0.0732
  181SOPE  H18Y20750   5.498   4.145   8.578 -0.8093  0.4516  0.1269
  181SOPE  H18Z20751   5.437   3.990   8.495 -0.5728 -0.2730 -0.1166
  182SOPE     N20752   4.492   6.017   6.500  0.3455  0.3178  0.0981
  182SOPE   HN120753   4.447   6.008   6.593  0.5671 -4.2148  0.0021
  182SOPE   HN220754   4.588   6.054   6.514  1.1105 -0.4163 -2.5490
  182SOPE   HN320755   4.446   6.093   6.446 -0.8102  1.4859  2.5609
  182SOPE   C1220756   4.495   5.876   6.441  0.3243 -0.1729 -0.3426
  182SOPE  H12A20757   4.551   5.870   6.345 -0.6849 -0.2812 -0.9389
  182SOPE  H12B20758   4.399   5.821   6.431 -0.2466  0.2974  1.9061
  182SOPE   C1120759   4.580   5.793   6.544  0.3728 -0.5354  0.7451
  182SOPE  H11A20760   4.606   5.699   6.491 -1.5332 -1.6314  1.6394
  182SOPE  H11B20761   4.508   5.773   6.627  0.6583  1.8173  1.6368
  182SOPE     P20762   4.832   5.820   6.612 -0.2794 -0.1614  0.0054
  182SOPE   O1320763   4.894   5.819   6.477  0.3988  0.1224  0.0104
  182SOPE   O1420764   4.835   5.697   6.686 -0.0261  0.5800  0.3093
  182SOPE   O1220765   4.686   5.877   6.586  0.1497  0.2674 -0.1863
  182SOPE   O1120766   4.916   5.924   6.701 -0.6528  0.5894 -0.4680
  182SOPE    C120767   4.862   6.020   6.787  0.7597 -0.3355  0.4707
  182SOPE    HA20768   4.751   6.018   6.776  0.7307 -1.2764  0.8384
  182SOPE    HB20769   4.883   6.124   6.754 -2.5270  0.4152  0.3127
  182SOPE    C220770   4.894   6.008   6.935 -0.6092  0.3917 -0.5238
  182SOPE    HS20771   4.841   6.092   6.985 -1.0064 -0.3990  0.4183
  182SOPE   O2120772   5.032   5.994   6.952 -0.1714 -0.5837 -0.1876
  182SOPE   C2120773   5.076   6.058   7.060 -0.1619  1.2509 -0.0366
  182SOPE   O2220774   5.010   6.132   7.132  0.3035  0.0471  0.3749
  182SOPE   C2220775   5.228   6.028   7.070  0.4679  0.0574 -0.6840
  182SOPE   H2R20776   5.267   6.041   6.967 -1.3432 -0.0665 -1.4204
  182SOPE   H2S20777   5.231   5.922   7.104  1.9862  0.0284 -0.8286
  182SOPE    C320778   4.818   5.886   7.004 -0.8864  0.2932  0.4137
  182SOPE    HX20779   4.856   5.799   6.946 -1.2005  0.1409  0.4337
  182SOPE    HY20780   4.710   5.894   6.979 -1.0947  3.0258  1.8514
  182SOPE   O3120781   4.841   5.871   7.145 -0.2341  0.5532  0.2931
  182SOPE   C3120782   4.783   5.959   7.226  0.0153 -0.8708 -0.1315
  182SOPE   O3220783   4.691   6.037   7.193  0.1340 -0.0879 -0.0903
  182SOPE   C3220784   4.850   5.949   7.366  0.4188 -0.1004  0.9001
  182SOPE   H2X20785   4.960   5.951   7.352  0.3528 -1.9346 -0.3695
  182SOPE   H2Y20786   4.818   5.848   7.399 -1.2643  0.2662  0.4605
  182SOPE   C2320787   5.304   6.121   7.165 -0.8152 -0.8488  0.2694
  182SOPE   H3R20788   5.268   6.221   7.134 -1.0835 -0.4378  1.7868
  182SOPE   H3S20789   5.414   6.109   7.152 -0.9310 -0.8017 -0.8626
  182SOPE   C2420790   5.267   6.091   7.309  0.5797  0.0579 -0.7215
  182SOPE   H4R20791   5.162   6.118   7.330 -0.5774 -3.3143 -1.4919
  182SOPE   H4S20792   5.280   5.981   7.320  0.5640  0.0338 -0.9465
  182SOPE   C2520793   5.356   6.157   7.417  0.2909 -0.7732 -0.0045
  182SOPE   H5R20794   5.463   6.136   7.393  0.3433 -0.0670 -0.4143
  182SOPE   H5S20795   5.352   6.267   7.405 -0.9387 -0.3366  3.4320
  182SOPE   C2620796   5.312   6.098   7.554  0.0735  0.8060  0.2984
  182SOPE   H6R20797   5.202   6.087   7.561  0.3059 -2.8402  0.1185
  182SOPE   H6S20798   5.356   5.997   7.549 -1.0504  0.1920  1.8928
  182SOPE   C2720799   5.375   6.178   7.663  0.0863 -0.0028  0.3544
  182SOPE   H7R20800   5.483   6.181   7.635  0.5026 -0.8804  1.7390
  182SOPE   H7S20801   5.338   6.283   7.660  0.9271  0.2893 -0.6171
  182SOPE   C2820802   5.362   6.121   7.808 -0.0207 -0.4896  0.3215
  182SOPE   H8R20803   5.254   6.113   7.834 -0.4341  0.8610 -0.8395
  182SOPE   H8S20804   5.393   6.014   7.805 -0.7493 -0.6970 -2.3407
  182SOPE   C2920805   5.436   6.192   7.917  0.7572  0.6334  0.7515
  182SOPE   H9120806   5.436   6.300   7.896 -2.0322  0.7651  0.9311
  182SOPE  C21020807   5.492   6.148   8.029  1.2862  0.4938  0.0944
  182SOPE  H10120808   5.558   6.217   8.085  2.5738 -0.2595 -0.4708
  182SOPE  C21120809   5.502   6.003   8.072 -0.4219 -0.0400  0.2047
  182SOPE  H11R20810   5.583   5.950   8.016 -0.2928 -1.9375  2.0639
  182SOPE  H11S20811   5.415   5.939   8.048  1.1635 -2.2783  0.0170
  182SOPE  C21220812   5.520   5.986   8.223  0.1969 -0.2388  0.4821
  182SOPE  H12R20813   5.607   6.045   8.260  0.2095  0.6737 -0.9104
  182SOPE  H12S20814   5.544   5.879   8.241 -0.6218 -0.1861  2.0557
  182SOPE  C21320815   5.396   6.035   8.299  0.0433  0.2461 -0.3076
  182SOPE  H13R20816   5.317   5.966   8.264  1.4548 -0.5326 -2.0943
  182SOPE  H13S20817   5.366   6.138   8.273  1.9071  0.9169  0.0416
  182SOPE  C21420818   5.414   6.006   8.448  0.0628  0.3061  0.0641
  182SOPE  H14R20819   5.436   5.898   8.458  2.1844  0.8712  2.7319
  182SOPE  H14S20820   5.314   6.021   8.494  0.2521  1.1701  0.2146
  182SOPE  C21520821   5.505   6.099   8.528 -0.6589 -0.1926  0.3398
  182SOPE  H15R20822   5.595   6.094   8.463  0.4426 -1.1613  1.8671
  182SOPE  H15S20823   5.525   6.075   8.635  1.8512  0.9016  0.1944
  182SOPE  C21620824   5.440   6.243   8.545 -0.8012 -0.6038 -0.0015
  182SOPE  H16R20825   5.351   6.244   8.610 -1.5094 -0.5701 -0.9556
  182SOPE  H16S20826   5.407   6.292   8.451 -0.4349  0.0007  0.1781
  182SOPE  C21720827   5.545   6.336   8.598  0.0660  0.0183 -0.7398
  182SOPE  H17R20828   5.639   6.329   8.538  0.5425  0.7879 -0.0967
  182SOPE  H17S20829   5.577   6.296   8.696  1.3633  0.3238 -1.0153
  182SOPE  C21820830   5.493   6.482   8.620  0.4616  0.0146  0.1965
  182SOPE  H18R20831   5.466   6.520   8.519 -0.7838 -0.3115  0.3878
  182SOPE  H18S20832   5.575   6.547   8.656 -1.5973  1.8538  1.8594
  182SOPE  H18T20833   5.407   6.488   8.691 -0.6175 -1.1959 -0.9407
  182SOPE   C3320834   4.810   6.052   7.472  0.2481  0.1971  0.3805
  182SOPE   H3X20835   4.702   6.078   7.469 -0.0452 -0.9855  0.2796
  182SOPE   H3Y20836   4.866   6.147   7.460  1.2824 -0.2754  1.2660
  182SOPE   C3420837   4.860   6.012   7.607  1.3120 -0.1717 -0.3704
  182SOPE   H4X20838   4.971   6.009   7.614  1.2150 -1.4804  1.1124
  182SOPE   H4Y20839   4.830   5.910   7.639  1.3766  1.1273  4.6761
  182SOPE   C3520840   4.787   6.107   7.712 -0.2655  0.8479 -0.3319
  182SOPE   H5X20841   4.680   6.080   7.708  0.2002 -1.3738  0.6874
  182SOPE   H5Y20842   4.807   6.213   7.685  0.3236  0.7655 -0.2322
  182SOPE   C3620843   4.839   6.090   7.855 -0.5038  1.2204  0.1039
  182SOPE   H6X20844   4.948   6.103   7.837 -0.8843  0.4712 -3.4113
  182SOPE   H6Y20845   4.828   5.988   7.898  2.3249  0.8430  0.1099
  182SOPE   C3720846   4.779   6.187   7.954 -0.5118  0.7653  0.1127
  182SOPE   H7X20847   4.676   6.157   7.980  0.0382 -0.1051  1.3693
  182SOPE   H7Y20848   4.775   6.287   7.904  0.7477  0.2951 -0.9918
  182SOPE   C3820849   4.864   6.195   8.077 -0.0848  0.2185  0.0667
  182SOPE   H8X20850   4.827   6.273   8.146  0.7301  0.4348  0.2718
  182SOPE   H8Y20851   4.970   6.217   8.050 -0.3474  2.3854  0.6016
  182SOPE   C3920852   4.880   6.065   8.160  0.2307 -0.5521 -0.2434
  182SOPE   H9X20853   4.929   5.992   8.091  0.8141 -1.7728  1.3846
  182SOPE   H9Y20854   4.779   6.022   8.180 -0.4549  0.6559 -0.9874
  182SOPE  C31020855   4.963   6.078   8.297  0.4361  0.2565 -0.1120
  182SOPE  H10X20856   5.054   6.138   8.277  0.8359 -0.1196  0.5413
  182SOPE  H10Y20857   4.994   5.978   8.334  0.5243  0.7953  1.3467
  182SOPE  C31120858   4.878   6.141   8.412  0.0628  0.0863  0.2149
  182SOPE  H11X20859   4.785   6.088   8.442  0.3343  0.5661  1.9741
  182SOPE  H11Y20860   4.840   6.239   8.374 -1.4245 -1.1157 -1.6275
  182SOPE  C31220861   4.969   6.162   8.535  0.0852  0.3763 -1.2664
  182SOPE  H12X20862   4.931   6.237   8.608 -1.7650 -2.6993  1.1795
  182SOPE  H12Y20863   5.065   6.203   8.499  0.3213 -1.2766 -2.6691
  182SOPE  C31320864   4.997   6.032   8.608  0.6345  1.4161 -0.0096
  182SOPE  H13X20865   5.043   5.965   8.533  0.3099 -1.3224  2.0861
  182SOPE  H13Y20866   4.905   5.977   8.637  1.0456  1.5246  1.5950
  182SOPE  C31420867   5.095   6.053   8.722 -0.2010 -0.3108  0.1673
  182SOPE  H14X20868   5.175   6.119   8.684  0.5431 -2.3158 -1.9683
  182SOPE  H14Y20869   5.137   5.954   8.751  1.7117  0.2985 -0.3676
  182SOPE  C31520870   5.028   6.107   8.852  0.6858 -0.1289 -0.8743
  182SOPE  H15X20871   4.986   6.022   8.910 -0.7509 -1.4253 -3.6068
  182SOPE  H15Y20872   4.939   6.168   8.827  1.2720  0.4940 -1.5107
  182SOPE  C31620873   5.119   6.175   8.958 -0.3550 -0.6443  0.0761
  182SOPE  H16X20874   5.206   6.112   8.987 -0.5182 -0.7439  0.3561
  182SOPE  H16Y20875   5.057   6.194   9.048 -2.6843 -2.0778 -1.1449
  182SOPE  C31720876   5.166   6.314   8.899 -0.0925 -0.2811 -0.9577
  182SOPE  H17X20877   5.079   6.379   8.879 -0.0269 -0.7408 -2.9506
  182SOPE  H17Y20878   5.203   6.297   8.796 -0.0785 -0.7194 -0.8807
  182SOPE  C31820879   5.271   6.380   8.993 -0.4106 -0.3601  0.1034
  182SOPE  H18X20880   5.252   6.363   9.100  1.6415 -0.0352  0.5739
  182SOPE  H18Y20881   5.277   6.489   8.976 -3.1725 -0.3819 -1.5502
  182SOPE  H18Z20882   5.367   6.325   8.976  1.0041  2.3641 -1.3469
  183SOPE     N20883   2.170   3.630   6.666 -0.9786  0.0073  0.2622
  183SOPE   HN120884   2.246   3.672   6.608  0.8209 -2.6431  0.5074
  183SOPE   HN220885   2.144   3.688   6.748 -0.4118 -1.9410  1.9086
  183SOPE   HN320886   2.215   3.543   6.701 -2.0032 -0.6449  0.0273
  183SOPE   C1220887   2.060   3.616   6.574  0.4599  0.7320  0.1461
  183SOPE  H12A20888   2.024   3.712   6.532 -0.1442 -0.8229 -3.1366
  183SOPE  H12B20889   1.987   3.549   6.626  3.0584 -0.2821  2.7669
  183SOPE   C1120890   2.099   3.530   6.456 -0.4999  0.0537 -0.0022
  183SOPE  H11A20891   2.161   3.591   6.387 -0.6496 -0.6650 -0.8042
  183SOPE  H11B20892   2.009   3.506   6.395 -1.5816  2.4336  0.5317
  183SOPE     P20893   2.136   3.270   6.476 -0.1667 -0.1192  0.4059
  183SOPE   O1320894   2.148   3.212   6.339  0.2999  0.0630  0.1155
  183SOPE   O1420895   2.006   3.266   6.541 -0.1462  0.2880 -0.3570
  183SOPE   O1220896   2.182   3.416   6.477 -0.4158 -0.3726 -0.1036
  183SOPE   O1120897   2.238   3.195   6.566 -0.1511  0.3416 -0.2049
  183SOPE    C120898   2.187   3.121   6.683  0.2384  0.0510 -0.6620
  183SOPE    HA20899   2.264   3.041   6.698  1.7546  1.5386 -0.2254
  183SOPE    HB20900   2.096   3.063   6.656  0.6676 -1.2609  0.5361
  183SOPE    C220901   2.175   3.197   6.821  0.0112  0.1792 -0.0024
  183SOPE    HS20902   2.112   3.287   6.808  1.1228  0.8616 -0.8003
  183SOPE   O2120903   2.308   3.224   6.877  0.2291 -0.2381  0.4911
  183SOPE   C2120904   2.369   3.335   6.833  0.2499 -0.0994  0.3545
  183SOPE   O2220905   2.307   3.423   6.775  0.4009  0.1620  1.2148
  183SOPE   C2220906   2.512   3.339   6.878  0.4971 -0.5332 -0.1914
  183SOPE   H2R20907   2.570   3.292   6.796  0.1568 -3.2920  1.0291
  183SOPE   H2S20908   2.525   3.286   6.975  4.2012  1.3172  0.4962
  183SOPE    C320909   2.103   3.111   6.928 -0.3919  0.8675  0.0892
  183SOPE    HX20910   2.162   3.016   6.934 -3.7737 -1.4907 -0.9815
  183SOPE    HY20911   2.010   3.075   6.879 -0.5330 -1.3180  1.7982
  183SOPE   O3120912   2.072   3.167   7.055  0.5947  0.7180  0.3318
  183SOPE   C3120913   2.173   3.165   7.143  0.5565  0.1221  0.1140
  183SOPE   O3220914   2.281   3.117   7.127 -0.1595  0.4633  0.2920
  183SOPE   C3220915   2.133   3.252   7.264 -0.8575  0.1645  0.1725
  183SOPE   H2X20916   2.027   3.284   7.249 -1.4301 -0.5750  2.3226
  183SOPE   H2Y20917   2.197   3.343   7.261 -0.6062 -0.0294 -0.8615
  183SOPE   C2320918   2.554   3.490   6.906  0.3320 -0.1423  0.5208
  183SOPE   H3R20919   2.508   3.563   6.836  1.8448 -0.1421 -0.5230
  183SOPE   H3S20920   2.663   3.475   6.890  0.5397 -0.8144  2.3944
  183SOPE   C2420921   2.531   3.524   7.052  0.8830 -0.1160  1.3687
  183SOPE   H4R20922   2.567   3.628   7.071  0.1045  0.2584  0.8452
  183SOPE   H4S20923   2.421   3.522   7.068  0.6676 -0.2666 -0.0226
  183SOPE   C2520924   2.592   3.431   7.152  0.6062 -0.2996  0.0542
  183SOPE   H5R20925   2.523   3.350   7.185  0.5888  0.0092  0.7946
  183SOPE   H5S20926   2.679   3.374   7.113  0.9500  1.6430 -2.2163
  183SOPE   C2620927   2.631   3.505   7.271 -0.4666  0.1763 -0.6176
  183SOPE   H6R20928   2.693   3.589   7.231  0.9027  0.5165  1.9843
  183SOPE   H6S20929   2.545   3.539   7.333 -0.8893 -2.2640  0.2291
  183SOPE   C2720930   2.720   3.416   7.378  0.2989 -0.5060  0.6254
  183SOPE   H7R20931   2.663   3.322   7.383 -0.6888 -0.0609 -1.3015
  183SOPE   H7S20932   2.807   3.385   7.317  0.8156  0.8036  0.6412
  183SOPE   C2820933   2.757   3.471   7.514 -0.5331  0.3700 -0.1833
  183SOPE   H8R20934   2.835   3.407   7.559 -0.0632  1.8179  1.1788
  183SOPE   H8S20935   2.811   3.568   7.503  1.4484 -0.7917 -1.2865
  183SOPE   C2920936   2.621   3.472   7.592 -0.8560  0.3191 -0.5231
  183SOPE   H9120937   2.555   3.387   7.567  0.9799 -0.9852 -1.1163
  183SOPE  C21020938   2.587   3.544   7.706 -0.0050  0.3451  1.0148
  183SOPE  H10120939   2.489   3.528   7.752 -0.4074  1.5180  0.5932
  183SOPE  C21120940   2.673   3.646   7.768 -0.4730 -0.6299 -0.0840
  183SOPE  H11R20941   2.695   3.728   7.696  0.9647  0.0102  1.0242
  183SOPE  H11S20942   2.769   3.597   7.796 -0.2551 -0.4879 -0.5708
  183SOPE  C21220943   2.601   3.699   7.889  0.4753  0.2497  0.4268
  183SOPE  H12R20944   2.570   3.619   7.959 -4.2953 -2.5995 -4.2353
  183SOPE  H12S20945   2.501   3.739   7.863 -0.8185 -1.8074  2.0037
  183SOPE  C21320946   2.672   3.810   7.968  0.0577 -0.4710  0.0764
  183SOPE  H13R20947   2.601   3.841   8.047 -0.7862  1.4559 -1.3623
  183SOPE  H13S20948   2.692   3.900   7.905  1.3856 -0.0823  1.0148
  183SOPE  C21420949   2.806   3.760   8.017  0.5906  0.0817  0.3100
  183SOPE  H14R20950   2.870   3.732   7.931  0.6352 -0.7219  0.6006
  183SOPE  H14S20951   2.794   3.663   8.069  3.3272  0.0004  0.9355
  183SOPE  C21520952   2.871   3.870   8.101  0.0325 -0.4419 -0.3221
  183SOPE  H15R20953   2.803   3.907   8.180 -0.9238 -1.1656 -0.7829
  183SOPE  H15S20954   2.881   3.969   8.051  0.4377  0.4524  1.4610
  183SOPE  C21620955   3.011   3.835   8.149  0.0681 -0.3207 -0.1747
  183SOPE  H16R20956   3.057   3.921   8.202 -1.0194 -0.0298  0.3315
  183SOPE  H16S20957   3.073   3.815   8.060  0.6078 -0.3489  0.2064
  183SOPE  C21720958   3.023   3.727   8.250 -0.0401  0.1379 -0.8094
  183SOPE  H17R20959   2.972   3.634   8.218  1.2134 -1.0218  0.4372
  183SOPE  H17S20960   2.975   3.757   8.347  0.0998 -0.8828 -0.4167
  183SOPE  C21820961   3.163   3.688   8.283 -0.6024 -0.1079 -0.5987
  183SOPE  H18R20962   3.172   3.598   8.347  0.8944  0.0073 -0.6274
  183SOPE  H18S20963   3.217   3.771   8.332  0.2179 -0.9127 -0.1118
  183SOPE  H18T20964   3.202   3.671   8.180 -0.8574  0.4280 -0.7855
  183SOPE   C3320965   2.157   3.188   7.397  0.4209  0.2012 -0.1908
  183SOPE   H3X20966   2.254   3.136   7.383  0.5159  1.0806 -3.8312
  183SOPE   H3Y20967   2.076   3.118   7.426  0.5095  0.2837  0.2463
  183SOPE   C3420968   2.158   3.280   7.524  0.1552 -0.1963  0.2196
  183SOPE   H4X20969   2.051   3.308   7.538  0.6261  1.6642  0.4451
  183SOPE   H4Y20970   2.203   3.381   7.515 -0.6073 -0.0156 -2.1929
  183SOPE   C3520971   2.226   3.213   7.646 -0.0203  0.3526 -0.9702
  183SOPE   H5X20972   2.337   3.209   7.643 -0.0314 -1.6620 -0.1683
  183SOPE   H5Y20973   2.193   3.108   7.660 -1.5403  0.9830  0.5826
  183SOPE   C3620974   2.200   3.278   7.779 -0.2077 -0.0366  0.1322
  183SOPE   H6X20975   2.093   3.269   7.808  0.2008  0.7591  2.0274
  183SOPE   H6Y20976   2.230   3.385   7.771  0.1119 -0.1109  0.3458
  183SOPE   C3720977   2.276   3.217   7.901 -0.1797 -0.6163  0.5955
  183SOPE   H7X20978   2.383   3.228   7.873 -1.2959  0.3731 -4.1474
  183SOPE   H7Y20979   2.260   3.108   7.888 -0.2397 -0.3164 -2.9039
  183SOPE   C3820980   2.235   3.282   8.032 -0.1283 -0.3412  0.4140
  183SOPE   H8X20981   2.255   3.202   8.107 -1.5462 -0.7657  0.3694
  183SOPE   H8Y20982   2.130   3.318   8.037  0.8058  2.7960 -0.4032
  183SOPE   C3920983   2.323   3.408   8.058 -0.0481 -0.3012  0.0913
  183SOPE   H9X20984   2.319   3.481   7.975 -0.3651  0.4595  0.7702
  183SOPE   H9Y20985   2.431   3.381   8.059  0.1561  0.3930 -1.5115
  183SOPE  C31020986   2.279   3.503   8.175 -0.0240  0.4180 -0.8323
  183SOPE  H10X20987   2.277   3.445   8.269 -0.2877  2.2090  0.3348
  183SOPE  H10Y20988   2.180   3.552   8.161  0.6636  1.7817 -1.0607
  183SOPE  C31120989   2.384   3.619   8.205  0.4338 -0.4667  0.0303
  183SOPE  H11X20990   2.380   3.669   8.107 -3.4585 -1.3408 -0.4243
  183SOPE  H11Y20991   2.485   3.576   8.223 -0.5417 -2.5575  0.8563
  183SOPE  C31220992   2.349   3.723   8.311 -0.3177 -0.3236  0.8991
  183SOPE  H12X20993   2.308   3.674   8.402  0.3493 -0.6676  1.0181
  183SOPE  H12Y20994   2.268   3.783   8.264  2.2392  1.7915 -1.1091
  183SOPE  C31320995   2.446   3.837   8.340 -0.3589 -0.0022 -0.1862
  183SOPE  H13X20996   2.391   3.933   8.346 -1.1060 -0.4922  1.5952
  183SOPE  H13Y20997   2.511   3.853   8.252  0.1893 -1.5231 -0.0787
  183SOPE  C31420998   2.519   3.820   8.475  0.5635 -0.0855 -0.1794
  183SOPE  H14X20999   2.563   3.718   8.473  0.8461 -0.0945  2.4265
  183SOPE  H14Y21000   2.456   3.834   8.566 -0.1631 -1.1384 -0.5011
  183SOPE  C31521001   2.630   3.915   8.490 -0.2092 -0.9108 -0.2159
  183SOPE  H15X21002   2.592   4.017   8.514  1.5634 -0.0873 -0.7191
  183SOPE  H15Y21003   2.683   3.921   8.393  1.0525 -0.8817  0.4480
  183SOPE  C31621004   2.732   3.879   8.604 -0.4082 -0.3871 -1.0121
  183SOPE  H16X21005   2.696   3.887   8.709  0.6692  0.0336 -0.6619
  183SOPE  H16Y21006   2.816   3.949   8.588  1.2657 -2.0557  0.1039
  183SOPE  C31721007   2.796   3.741   8.610  0.6862 -0.2743  0.3266
  183SOPE  H17X21008   2.815   3.720   8.503 -1.2837  1.1263 -0.3614
  183SOPE  H17Y21009   2.722   3.664   8.641  1.3683 -1.4615 -0.9119
  183SOPE  C31821010   2.910   3.724   8.711 -0.2670 -0.6047  0.0610
  183SOPE  H18X21011   2.989   3.790   8.670  0.2858 -1.3922 -0.1607
  183SOPE  H18Y21012   2.951   3.620   8.710 -0.1757 -0.5625 -1.3772
  183SOPE  H18Z21013   2.866   3.760   8.807 -0.4325 -0.9781  0.1263
  184SOPE     N21014   1.590   5.097   6.454 -0.0092 -0.3729  0.0986
  184SOPE   HN121015   1.561   5.041   6.537 -0.4098  1.2172  1.0943
  184SOPE   HN221016   1.690   5.075   6.435  0.7824 -0.4277  3.6520
  184SOPE   HN321017   1.591   5.197   6.485 -0.6938 -0.7725  1.5144
  184SOPE   C1221018   1.507   5.077   6.324  0.6260 -0.0122 -0.4310
  184SOPE  H12A21019   1.547   4.988   6.272 -0.9579 -0.4453 -0.9585
  184SOPE  H12B21020   1.514   5.173   6.268 -0.9173 -0.7714 -2.0144
  184SOPE   C1121021   1.360   5.059   6.360  0.0560  0.0336 -0.0548
  184SOPE  H11A21022   1.294   5.065   6.271  0.6203  0.8235 -0.4341
  184SOPE  H11B21023   1.327   5.139   6.429  1.6629 -0.4067  1.3241
  184SOPE     P21024   1.295   4.807   6.374  0.1038 -0.3335  0.1822
  184SOPE   O1321025   1.408   4.759   6.294 -0.3016 -0.2725  0.3427
  184SOPE   O1421026   1.161   4.810   6.313  0.2222 -0.3701  0.6532
  184SOPE   O1221027   1.330   4.944   6.443  0.2588  0.1672 -0.0318
  184SOPE   O1121028   1.296   4.717   6.495  0.7087 -0.6451 -0.3597
  184SOPE    C121029   1.395   4.731   6.604  0.8346  0.4574 -0.0456
  184SOPE    HA21030   1.464   4.818   6.595  0.6168  0.6571  0.1895
  184SOPE    HB21031   1.450   4.635   6.615  0.9412  0.5380  0.1119
  184SOPE    C221032   1.324   4.760   6.743  0.2367  0.6241  0.0309
  184SOPE    HS21033   1.408   4.780   6.813  0.4508 -0.2031  0.0253
  184SOPE   O2121034   1.247   4.645   6.785  0.0125  0.5859  0.8591
  184SOPE   C2121035   1.320   4.557   6.848  0.0104  0.3852  0.2023
  184SOPE   O2221036   1.437   4.571   6.882  0.3104 -0.0504  0.2548
  184SOPE   C2221037   1.236   4.435   6.870  0.1900 -0.1105  0.8446
  184SOPE   H2R21038   1.290   4.356   6.814 -1.4342 -0.3743 -0.4331
  184SOPE   H2S21039   1.134   4.427   6.826  0.9957  0.1121 -1.1583
  184SOPE    C321040   1.238   4.887   6.756 -0.6452  0.1432  0.7934
  184SOPE    HX21041   1.149   4.864   6.693  0.4363  0.4313 -0.8985
  184SOPE    HY21042   1.291   4.974   6.712  0.4272 -2.1721 -3.0669
  184SOPE   O3121043   1.193   4.907   6.885 -0.3650  0.5382  0.4188
  184SOPE   C3121044   1.268   4.962   6.977 -0.4103  0.0481  0.0119
  184SOPE   O3221045   1.380   5.009   6.956 -0.3874 -0.4000 -0.7691
  184SOPE   C3221046   1.190   4.967   7.105 -0.7007  0.9011 -0.0411
  184SOPE   H2X21047   1.196   4.869   7.157 -0.8842  0.7811 -0.2440
  184SOPE   H2Y21048   1.083   4.997   7.092 -0.7758  0.8052  0.3534
  184SOPE   C2321049   1.228   4.383   7.011 -0.6145  0.0970  0.0395
  184SOPE   H3R21050   1.337   4.380   7.033 -0.8290  0.2698  1.1795
  184SOPE   H3S21051   1.192   4.279   7.023  0.1576 -0.1206  0.5473
  184SOPE   C2421052   1.165   4.469   7.126 -0.4596  0.2292  0.8330
  184SOPE   H4R21053   1.200   4.570   7.099  0.7320 -0.4907 -0.4505
  184SOPE   H4S21054   1.056   4.454   7.111 -0.2190 -0.5401 -0.2894
  184SOPE   C2521055   1.203   4.422   7.263  0.9071 -0.2594  0.5130
  184SOPE   H5R21056   1.142   4.332   7.288  1.0507  0.0650  2.1578
  184SOPE   H5S21057   1.312   4.404   7.279  1.1464  1.9452  1.7630
  184SOPE   C2621058   1.171   4.539   7.367 -0.4577 -0.0917 -0.3422
  184SOPE   H6R21059   1.235   4.628   7.348 -2.3592  1.5689  0.6011
  184SOPE   H6S21060   1.068   4.579   7.355  1.0261  4.3437 -0.3159
  184SOPE   C2721061   1.182   4.471   7.511  0.4612 -0.1827  0.6558
  184SOPE   H7R21062   1.138   4.370   7.516 -2.2194  0.8588 -0.2618
  184SOPE   H7S21063   1.292   4.469   7.530  1.0247  3.6944 -1.1508
  184SOPE   C2821064   1.100   4.539   7.621 -0.0019 -0.3474  0.4895
  184SOPE   H8R21065   0.995   4.552   7.585  0.3356  0.3077 -0.2767
  184SOPE   H8S21066   1.088   4.472   7.709  3.2996  0.2303  1.5290
  184SOPE   C2921067   1.159   4.675   7.664 -0.1810  0.4410 -0.3484
  184SOPE   H9121068   1.169   4.757   7.591  0.1994  1.4934  0.8415
  184SOPE  C21021069   1.194   4.704   7.793  0.3481  0.2884  0.4850
  184SOPE  H10121070   1.227   4.808   7.813  1.9840  0.1046 -1.0614
  184SOPE  C21121071   1.182   4.613   7.909 -0.0684 -0.1373  0.5677
  184SOPE  H11R21072   1.265   4.541   7.897  1.6105  1.5476  1.5180
  184SOPE  H11S21073   1.086   4.557   7.899  0.4992 -0.7769 -2.0118
  184SOPE  C21221074   1.195   4.688   8.042 -0.0899 -0.3162 -0.2220
  184SOPE  H12R21075   1.123   4.772   8.045  0.2393  0.0032 -0.9269
  184SOPE  H12S21076   1.293   4.739   8.060  0.6460 -0.9630 -2.1342
  184SOPE  C21321077   1.182   4.585   8.159 -0.0169 -0.4409 -0.6221
  184SOPE  H13R21078   1.269   4.517   8.154  0.7727  0.3771  1.2449
  184SOPE  H13S21079   1.090   4.528   8.132 -0.4234  0.1662 -0.5475
  184SOPE  C21421080   1.173   4.641   8.296 -0.0527 -0.6370 -0.1513
  184SOPE  H14R21081   1.129   4.566   8.366 -1.6944 -0.5760 -1.0530
  184SOPE  H14S21082   1.110   4.733   8.300 -0.0938 -0.4491 -2.9183
  184SOPE  C21521083   1.310   4.684   8.348 -0.2768 -0.4072  0.0260
  184SOPE  H15R21084   1.356   4.756   8.277 -1.8500 -0.8340 -1.4950
  184SOPE  H15S21085   1.377   4.596   8.357 -0.8476 -0.6850  1.9349
  184SOPE  C21621086   1.302   4.761   8.482  0.2253  0.1265  0.0323
  184SOPE  H16R21087   1.230   4.708   8.549  1.0241 -0.2776  0.5931
  184SOPE  H16S21088   1.258   4.860   8.459  0.0479  0.2395  0.8378
  184SOPE  C21721089   1.424   4.800   8.556 -0.3718  0.5160 -0.0589
  184SOPE  H17R21090   1.504   4.837   8.489 -1.6849  2.5856 -0.5815
  184SOPE  H17S21091   1.473   4.709   8.596 -0.0433 -0.8298 -3.2792
  184SOPE  C21821092   1.401   4.904   8.667 -0.0345 -0.1240  0.1309
  184SOPE  H18R21093   1.485   4.896   8.740  0.0797  3.0874  0.4841
  184SOPE  H18S21094   1.313   4.865   8.721  0.2966  0.4001  1.0768
  184SOPE  H18T21095   1.376   5.003   8.623  2.4850 -0.2491 -1.8724
  184SOPE   C3321096   1.249   5.061   7.209  0.4175  0.0718 -0.1288
  184SOPE   H3X21097   1.255   5.165   7.171 -0.1283 -0.2773 -1.2221
  184SOPE   H3Y21098   1.354   5.035   7.232  1.2984  2.6052 -1.0088
  184SOPE   C3421099   1.179   5.056   7.340  0.4272 -0.2733  0.3031
  184SOPE   H4X21100   1.150   4.951   7.361 -1.8624 -0.0666 -1.4252
  184SOPE   H4Y21101   1.083   5.112   7.335  2.3745  3.2724 -1.8580
  184SOPE   C3521102   1.257   5.109   7.463  0.8215  0.5583  0.1194
  184SOPE   H5X21103   1.308   5.202   7.431  0.6356  0.7880  0.4836
  184SOPE   H5Y21104   1.331   5.035   7.500  2.4018  2.1738  0.3121
  184SOPE   C3621105   1.166   5.154   7.577 -0.6377 -0.0941 -0.1107
  184SOPE   H6X21106   1.092   5.074   7.599  0.6766 -0.6065  2.9570
  184SOPE   H6Y21107   1.103   5.240   7.546 -3.1048 -2.1217 -1.0841
  184SOPE   C3721108   1.251   5.180   7.705  0.6033  0.2819  0.5694
  184SOPE   H7X21109   1.317   5.268   7.684 -0.2607  0.3088 -2.5314
  184SOPE   H7Y21110   1.310   5.088   7.725  0.8181  0.4072  0.5169
  184SOPE   C3821111   1.172   5.200   7.834 -0.0194 -0.4211  0.0869
  184SOPE   H8X21112   1.076   5.254   7.816 -0.0828 -0.7045 -0.4430
  184SOPE   H8Y21113   1.234   5.270   7.895 -2.5491  0.6189  1.6231
  184SOPE   C3921114   1.153   5.073   7.913  0.5881  0.5758  0.1393
  184SOPE   H9X21115   1.239   5.004   7.917 -1.2599 -1.9713 -1.4803
  184SOPE   H9Y21116   1.067   5.014   7.873 -0.2977  0.5968  1.9157
  184SOPE  C31021117   1.110   5.116   8.052 -0.7224  0.7136 -0.2085
  184SOPE  H10X21118   1.034   5.051   8.100 -1.2614 -0.1408 -2.1327
  184SOPE  H10Y21119   1.067   5.218   8.051 -0.0893  1.0022 -1.7732
  184SOPE  C31121120   1.241   5.127   8.142 -0.2043 -0.2460 -0.3858
  184SOPE  H11X21121   1.311   5.197   8.091  0.6706 -0.7703  0.0718
  184SOPE  H11Y21122   1.294   5.029   8.142  0.7759  0.2139 -2.4955
  184SOPE  C31221123   1.223   5.205   8.276 -0.3144 -1.1300  0.4665
  184SOPE  H12X21124   1.167   5.141   8.347 -3.2189 -0.2562 -0.8895
  184SOPE  H12Y21125   1.167   5.299   8.258 -1.7610 -2.4498 -2.6241
  184SOPE  C31321126   1.355   5.254   8.348  0.8099 -0.7938  0.1559
  184SOPE  H13X21127   1.416   5.326   8.288  4.1810 -2.0285  1.8277
  184SOPE  H13Y21128   1.426   5.175   8.379  2.7940 -0.0471 -2.1620
  184SOPE  C31421129   1.308   5.342   8.472 -0.5675 -0.0481  0.2142
  184SOPE  H14X21130   1.265   5.271   8.546  0.5238 -2.9679 -1.8096
  184SOPE  H14Y21131   1.222   5.411   8.454 -0.6211  0.0972  0.9673
  184SOPE  C31521132   1.428   5.416   8.547  0.2583 -0.6749 -0.0532
  184SOPE  H15X21133   1.468   5.491   8.475 -1.3164  0.8756  0.5871
  184SOPE  H15Y21134   1.501   5.333   8.557 -0.0343 -1.1009 -1.2473
  184SOPE  C31621135   1.396   5.475   8.686 -0.5225 -0.2144  0.3102
  184SOPE  H16X21136   1.325   5.412   8.742  0.0484  1.8480  3.6534
  184SOPE  H16Y21137   1.342   5.572   8.677 -0.4733 -0.2817 -0.9249
  184SOPE  C31721138   1.521   5.501   8.771  0.8967  0.4743 -0.1124
  184SOPE  H17X21139   1.617   5.501   8.715  0.5059 -1.2527 -0.8505
  184SOPE  H17Y21140   1.535   5.413   8.837  1.9802  0.2470 -0.6270
  184SOPE  C31821141   1.514   5.627   8.850 -0.6497 -0.0222  0.4353
  184SOPE  H18X21142   1.538   5.721   8.794 -1.3590  1.0304  1.8287
  184SOPE  H18Y21143   1.580   5.623   8.939 -0.1192 -1.3607 -0.0039
  184SOPE  H18Z21144   1.410   5.651   8.880 -0.4159  2.6287 -0.5877
  185SAPI   C1221145   3.206   1.517  11.312  0.7886  0.3884  0.2995
  185SAPI    H221146   3.282   1.466  11.250  0.4869  0.6263 -0.2776
  185SAPI    O221147   3.077   1.476  11.260 -0.1633 -0.1669  0.0071
  185SAPI   HO221148   3.070   1.498  11.167  1.4410 -0.3145 -0.1740
  185SAPI   C1321149   3.223   1.452  11.458 -0.7791  0.2124  0.1727
  185SAPI    H321150   3.317   1.497  11.496 -0.3122 -1.1244  0.6648
  185SAPI    O321151   3.233   1.309  11.440  0.1488 -0.6469  0.4116
  185SAPI   HO321152   3.276   1.276  11.520  2.0414 -0.4477 -0.4645
  185SAPI   C1421153   3.109   1.505  11.548 -0.3136  0.2172 -0.8938
  185SAPI    H421154   3.017   1.466  11.499 -0.8134  0.0007  0.1920
  185SAPI    O421155   3.110   1.452  11.679 -0.7246 -0.2672  0.4314
  185SAPI   HO421156   3.059   1.370  11.676 -3.0622  1.0706  0.8499
  185SAPI   C1521157   3.100   1.658  11.559 -0.2446 -0.7986  0.7861
  185SAPI    H521158   3.195   1.684  11.612  2.3328 -0.9402 -3.3635
  185SAPI    O521159   2.999   1.713  11.642  0.5442 -0.1088 -0.3742
  185SAPI   HO521160   3.025   1.690  11.731  0.8207  3.5751  0.6714
  185SAPI   C1621161   3.097   1.722  11.421 -0.8009 -0.2872 -0.1960
  185SAPI    H621162   3.000   1.698  11.371 -2.2373  1.3848  1.6464
  185SAPI    O621163   3.105   1.864  11.424  0.4215  0.1789  0.3096
  185SAPI   HO621164   3.096   1.889  11.332  0.9961 -0.2942  0.1252
  185SAPI   C1121165   3.211   1.667  11.335  0.0708  0.2044 -0.2150
  185SAPI    H121166   3.308   1.702  11.377  0.7860 -0.5577 -1.1779
  185SAPI     P21167   3.334   1.774  11.117  0.3346  0.3161  0.0375
  185SAPI   O1321168   3.423   1.658  11.089  0.1486  0.2770 -0.1585
  185SAPI   O1421169   3.396   1.893  11.180 -0.3542  0.3178 -0.0950
  185SAPI   O1221170   3.207   1.718  11.205 -0.3781  0.0127  0.3113
  185SAPI   O1121171   3.260   1.807  10.984 -0.4561 -0.1062 -0.4358
  185SAPI    C121172   3.137   1.878  10.994 -0.1751 -0.2865  0.6962
  185SAPI    HA21173   3.065   1.810  11.045 -0.0603 -0.1733  1.0114
  185SAPI    HB21174   3.137   1.968  11.059 -0.2465  0.1659  0.0810
  185SAPI    C221175   3.095   1.927  10.855 -0.1813  0.9244  0.4159
  185SAPI    HS21176   3.022   2.009  10.871 -1.4247  0.8809 -3.9540
  185SAPI   O2121177   3.031   1.817  10.783  0.2061  0.1568 -0.6755
  185SAPI   C2121178   2.937   1.855  10.698  0.3636 -0.2719 -0.0452
  185SAPI   O2221179   2.891   1.970  10.676 -0.4203 -0.9916  0.2403
  185SAPI   C2221180   2.892   1.721  10.639 -0.5991  0.3869 -0.4354
  185SAPI   H2R21181   2.972   1.644  10.656 -1.1777  0.1896  1.7256
  185SAPI   H2S21182   2.803   1.683  10.693  0.9089  0.8154  2.5960
  185SAPI    C321183   3.217   1.985  10.768  0.2730 -0.1709 -0.0949
  185SAPI    HX21184   3.271   1.896  10.731  0.1056 -0.6089  0.6837
  185SAPI    HY21185   3.297   2.029  10.831  0.7913  0.4942 -1.1890
  185SAPI   O3121186   3.175   2.071  10.665 -0.0156  0.0211  0.7060
  185SAPI   C3121187   3.141   2.190  10.699  0.0180 -0.8096  0.7643
  185SAPI   O3221188   3.157   2.241  10.812 -0.0490 -0.0309 -0.2931
  185SAPI   C3221189   3.073   2.268  10.586  0.3915  0.6775  0.1405
  185SAPI   H2X21190   3.010   2.195  10.530  0.0959  0.4162  0.8057
  185SAPI   H2Y21191   3.167   2.298  10.535  0.7757 -0.0715  0.3941
  185SAPI   C2321192   2.866   1.733  10.487  0.7993  0.8476 -0.0629
  185SAPI   H3R21193   2.824   1.831  10.458  1.4905  2.0396  2.7028
  185SAPI   H3S21194   2.784   1.657  10.481  1.5523 -0.0573  0.8283
  185SAPI   C2421195   2.992   1.712  10.401  0.0215  0.7605  0.5107
  185SAPI   H4R21196   2.954   1.709  10.297 -1.2925  0.4351  0.9847
  185SAPI   H4S21197   3.028   1.608  10.415 -0.8070  0.5046  0.8268
  185SAPI   C2521198   3.108   1.811  10.419  0.1215 -0.0477  0.1641
  185SAPI   H5R21199   3.144   1.814  10.523  0.3921  1.1822  0.0479
  185SAPI   C2621200   3.149   1.905  10.332  0.2615  0.3021  0.2194
  185SAPI   H6R21201   3.240   1.962  10.355  0.1189  0.1680  1.1486
  185SAPI   C2721202   3.096   1.933  10.196  0.2069 -0.0046 -0.8132
  185SAPI   H7R21203   3.032   1.852  10.152 -0.5040  0.2986 -0.3624
  185SAPI   H7S21204   3.183   1.950  10.130  1.5473  3.0483  1.5499
  185SAPI   C2821205   3.016   2.062  10.213  0.0518  0.7850  0.0483
  185SAPI   H8R21206   3.005   2.108  10.312 -0.5871  0.7181  0.0174
  185SAPI   C2921207   2.975   2.132  10.109  0.9526  0.6317 -0.1326
  185SAPI   H9R21208   2.922   2.227  10.127  1.3479  0.3647  2.9748
  185SAPI  C21021209   3.001   2.105   9.965  1.0705 -0.0476  0.1282
  185SAPI  H10R21210   2.898   2.110   9.925  0.2873 -0.2382  2.0444
  185SAPI  H10S21211   3.053   2.010   9.942  2.5391  1.3322 -2.9663
  185SAPI  C21121212   3.091   2.210   9.909 -0.1630 -0.6257  0.3068
  185SAPI  H11R21213   3.142   2.275   9.982 -0.6474 -1.7342  1.6660
  185SAPI  C21221214   3.099   2.234   9.779 -0.2502  0.5104  0.2592
  185SAPI  H12R21215   3.151   2.321   9.735 -1.2739  0.1568 -1.7516
  185SAPI  C21321216   3.041   2.148   9.674 -0.5411  0.3967  0.2237
  185SAPI  H13R21217   2.941   2.191   9.650 -0.6227  1.5670  2.3640
  185SAPI  H13S21218   3.025   2.049   9.721  1.0600  0.2717  0.5595
  185SAPI  C21421219   3.134   2.143   9.558  0.7887 -0.5412  0.1984
  185SAPI  H14R21220   3.228   2.087   9.575  0.6700 -0.9377 -0.4120
  185SAPI  C21521221   3.124   2.203   9.438  0.1797  0.2253 -0.0561
  185SAPI  H15R21222   3.209   2.187   9.370 -0.9576 -2.7333 -0.9834
  185SAPI  C21621223   3.018   2.289   9.372 -0.1989  0.7030  0.2215
  185SAPI  H16R21224   3.026   2.395   9.405  0.3727  0.5625  0.5527
  185SAPI  H16S21225   2.915   2.257   9.397  0.0373  0.3735  0.7781
  185SAPI  C21721226   3.029   2.294   9.218 -0.0170  0.5470 -0.5812
  185SAPI  H17R21227   3.132   2.300   9.176  0.1387  0.1541 -0.2613
  185SAPI  H17S21228   2.954   2.366   9.181 -1.1344 -1.2436 -1.9601
  185SAPI  C21821229   2.975   2.160   9.153  0.0399 -0.2387  0.2498
  185SAPI  H18R21230   2.864   2.161   9.161  0.0115 -2.1773  0.6062
  185SAPI  H18S21231   3.016   2.072   9.207 -0.9873  0.1072  1.6576
  185SAPI  C21921232   2.999   2.149   8.995  0.1542  0.6559 -0.0318
  185SAPI  H19R21233   3.110   2.148   8.983  0.7180  0.7152  3.8864
  185SAPI  H19S21234   2.946   2.233   8.946  0.2084 -0.3847 -1.9820
  185SAPI  C22021235   2.940   2.018   8.933  0.3783 -0.0877  0.0839
  185SAPI  H20R21236   2.935   1.949   9.019  1.0953  0.8833  0.9387
  185SAPI  H20S21237   3.007   1.976   8.855 -0.2092 -1.7953  0.4578
  185SAPI  H20T21238   2.838   2.050   8.902 -0.0099  0.0311  1.4308
  185SAPI   C3321239   2.977   2.385  10.613  0.3184  0.0135 -0.2728
  185SAPI   H3X21240   3.031   2.473  10.652 -2.9228  2.1408 -0.2289
  185SAPI   H3Y21241   2.915   2.345  10.697  0.9824 -0.8143 -0.1622
  185SAPI   C3421242   2.910   2.421  10.480  0.3330 -0.2238 -1.0325
  185SAPI   H4X21243   2.839   2.503  10.505  0.4601 -0.3656 -0.1659
  185SAPI   H4Y21244   2.836   2.346  10.443 -0.8305  0.7907 -0.7996
  185SAPI   C3521245   3.014   2.458  10.370  0.7224 -0.6101 -0.3762
  185SAPI   H5X21246   3.076   2.370  10.342  0.9190 -0.8712  0.8226
  185SAPI   H5Y21247   3.090   2.530  10.407  0.7093 -0.1469 -1.2180
  185SAPI   C3621248   2.945   2.522  10.253  0.2053 -0.8211  0.0162
  185SAPI   H6X21249   2.912   2.626  10.273  1.0550 -0.7379  1.1333
  185SAPI   H6Y21250   2.863   2.449  10.237 -1.1930  0.8387 -0.6013
  185SAPI   C3721251   3.030   2.528  10.127  0.0547  0.0959  0.5384
  185SAPI   H7X21252   3.083   2.432  10.113 -3.4995 -2.0439  0.5414
  185SAPI   H7Y21253   3.104   2.610  10.135 -0.7272  0.7145  1.9054
  185SAPI   C3821254   2.935   2.552  10.006 -0.9986  0.1409  0.4393
  185SAPI   H8X21255   2.846   2.613  10.034  0.2702  1.8351  0.9577
  185SAPI   H8Y21256   2.901   2.450   9.980  1.0613 -0.1070 -1.5499
  185SAPI   C3921257   3.008   2.614   9.890  0.4041  0.3267  0.3624
  185SAPI   H9X21258   3.077   2.535   9.854  3.2145  3.6285 -2.1893
  185SAPI   H9Y21259   3.071   2.694   9.935 -0.6340  1.7235 -0.5697
  185SAPI  C31021260   2.920   2.653   9.767  0.7156  0.4385  0.1022
  185SAPI  H10X21261   2.835   2.720   9.792  1.1036  1.3405 -0.9019
  185SAPI  H10Y21262   2.877   2.555   9.737  1.1553  0.5723 -1.0602
  185SAPI  C31121263   2.995   2.705   9.648  0.2316 -0.0308 -0.0362
  185SAPI  H11X21264   3.085   2.644   9.628 -0.2881  0.0891 -3.2021
  185SAPI  H11Y21265   3.030   2.809   9.665  0.1307 -0.4136  3.1866
  185SAPI  C31221266   2.909   2.710   9.522  0.2449  0.2725  0.1603
  185SAPI  H12X21267   2.832   2.790   9.528 -0.1103  0.0469 -1.0331
  185SAPI  H12Y21268   2.859   2.611   9.516  2.2508 -0.6867 -2.4329
  185SAPI  C31321269   2.986   2.743   9.391  0.0673 -0.1762  0.2812
  185SAPI  H13X21270   3.074   2.676   9.378  0.0284 -0.1021 -0.4299
  185SAPI  H13Y21271   3.020   2.848   9.400 -1.3633  0.2712  0.6869
  185SAPI  C31421272   2.898   2.731   9.263  0.0422  0.4999 -0.4185
  185SAPI  H14X21273   2.889   2.838   9.237 -1.9623  0.1691 -1.3041
  185SAPI  H14Y21274   2.804   2.676   9.286  0.2467  0.7468  1.1108
  185SAPI  C31521275   2.967   2.663   9.148 -0.0296  0.3613 -0.0697
  185SAPI  H15X21276   3.011   2.566   9.179  1.5299  1.1024  0.1146
  185SAPI  H15Y21277   3.055   2.725   9.123  0.6651  0.1921  1.7753
  185SAPI  C31621278   2.881   2.647   9.019  0.6526 -0.0611 -0.2188
  185SAPI  H16X21279   2.800   2.577   9.049  1.5541 -0.9751  0.1221
  185SAPI  H16Y21280   2.935   2.595   8.938  0.7561  0.8543 -0.7565
  185SAPI  C31721281   2.829   2.778   8.960  0.3246 -0.6629 -0.3035
  185SAPI  H17X21282   2.753   2.826   9.025 -0.6345  1.7898 -3.0191
  185SAPI  H17Y21283   2.774   2.748   8.868  0.9547 -0.6326 -0.6961
  185SAPI  C31821284   2.939   2.881   8.926  0.2791  0.1192 -0.1845
  185SAPI  H18X21285   2.885   2.951   8.858 -0.6503 -1.5625 -1.2673
  185SAPI  H18Y21286   3.017   2.826   8.869  0.0677  0.3014 -0.6558
  185SAPI  H18Z21287   2.987   2.935   9.009 -1.6044  0.9345  0.4270
  186SAPI   C1221288   5.183   5.690  10.997  0.7515  0.5969 -0.6364
  186SAPI    H221289   5.148   5.784  11.044  1.4605  1.0982 -1.0816
  186SAPI    O221290   5.217   5.593  11.096 -0.1728  0.2921 -0.2157
  186SAPI   HO221291   5.173   5.606  11.181 -0.0973 -0.3814 -0.0641
  186SAPI   C1321292   5.063   5.643  10.922  0.1475  0.0699  0.5848
  186SAPI    H321293   5.025   5.716  10.848 -1.4484 -0.9068  0.4132
  186SAPI    O321294   4.952   5.617  11.013  0.5992 -0.2803  0.3829
  186SAPI   HO321295   4.873   5.590  10.964 -1.1185  1.7059  1.8857
  186SAPI   C1421296   5.105   5.518  10.848  0.0749 -0.3163  0.0517
  186SAPI    H421297   5.156   5.444  10.914  1.7298  1.3472  0.7226
  186SAPI    O421298   5.005   5.452  10.777 -0.2272 -0.3510  0.4650
  186SAPI   HO421299   5.049   5.395  10.714 -2.6950  0.7311 -2.4580
  186SAPI   C1521300   5.221   5.552  10.749 -0.6918  0.3898 -0.1784
  186SAPI    H521301   5.188   5.632  10.680  0.6836  2.4716  1.4197
  186SAPI    O521302   5.259   5.454  10.657 -0.3188  0.8891  0.0684
  186SAPI   HO521303   5.313   5.500  10.593 -0.0862 -0.4096 -0.7032
  186SAPI   C1621304   5.343   5.602  10.828 -0.6436 -0.6262 -0.4765
  186SAPI    H621305   5.368   5.514  10.890  2.4940  1.2192  1.1572
  186SAPI    O621306   5.461   5.618  10.750 -0.1271  0.7622  0.3104
  186SAPI   HO621307   5.477   5.712  10.744  2.1886  0.4963  1.3968
  186SAPI   C1121308   5.305   5.725  10.910  0.5575 -0.6645 -0.3846
  186SAPI    H121309   5.274   5.801  10.834  1.8609  1.4630  1.1080
  186SAPI     P21310   5.451   5.934  11.004  0.1578 -0.2551 -0.3924
  186SAPI   O1321311   5.531   5.951  11.129  0.2219 -0.5561 -0.8588
  186SAPI   O1421312   5.332   6.020  10.979  0.6790  0.0311  0.0361
  186SAPI   O1221313   5.409   5.777  10.993  0.2642 -0.6358 -0.7160
  186SAPI   O1121314   5.540   5.947  10.878  0.0083 -0.2335 -0.7810
  186SAPI    C121315   5.680   5.958  10.892  0.4090 -0.5122  0.3307
  186SAPI    HA21316   5.692   6.051  10.950 -0.6084 -0.7793  1.0091
  186SAPI    HB21317   5.716   5.879  10.962 -1.1673 -0.6106  1.0637
  186SAPI    C221318   5.759   5.976  10.756 -0.2813 -0.7641 -0.2042
  186SAPI    HS21319   5.860   6.021  10.765  0.4148 -2.4567  0.9444
  186SAPI   O2121320   5.678   6.050  10.658  0.3204  0.0810  0.2131
  186SAPI   C2121321   5.644   6.174  10.695  0.3313 -0.2778  0.2260
  186SAPI   O2221322   5.693   6.239  10.786  0.1810  0.8800  0.3140
  186SAPI   C2221323   5.540   6.231  10.600 -0.1067 -0.1624  0.3518
  186SAPI   H2R21324   5.454   6.162  10.613 -0.5077  0.2637 -0.0101
  186SAPI   H2S21325   5.514   6.336  10.626 -0.9634 -0.5189  0.9741
  186SAPI    C321326   5.781   5.832  10.693  0.5096 -0.6526 -0.3016
  186SAPI    HX21327   5.682   5.789  10.664  0.9193 -0.1836 -2.6149
  186SAPI    HY21328   5.819   5.780  10.783 -0.9987  0.9913  1.3874
  186SAPI   O3121329   5.871   5.821  10.576  0.8445  0.2830  0.3556
  186SAPI   C3121330   5.889   5.701  10.537  0.0734 -0.4519 -0.1224
  186SAPI   O3221331   5.867   5.604  10.603  0.0687  0.5333 -0.2580
  186SAPI   C3221332   5.960   5.700  10.405  0.2304 -0.0790  0.1766
  186SAPI   H2X21333   5.934   5.787  10.342  0.7218 -0.0790 -0.0300
  186SAPI   H2Y21334   5.937   5.602  10.357  0.0572 -0.3687  0.8415
  186SAPI   C2321335   5.592   6.226  10.450  0.3895  0.0732  0.4897
  186SAPI   H3R21336   5.658   6.138  10.439 -0.4916 -0.8036  1.8329
  186SAPI   H3S21337   5.653   6.314  10.422  1.3450 -1.0549 -1.1576
  186SAPI   C2421338   5.473   6.197  10.352  0.4016 -0.1777 -0.0641
  186SAPI   H4R21339   5.420   6.107  10.391 -0.5367 -0.2753 -1.5178
  186SAPI   H4S21340   5.521   6.162  10.258  2.9076 -1.1777  1.4817
  186SAPI   C2521341   5.368   6.307  10.325 -0.3300 -0.1972  0.0564
  186SAPI   H5R21342   5.310   6.346  10.409 -2.4725 -1.0615 -0.9584
  186SAPI   C2621343   5.338   6.346  10.196  0.1045  0.1341  0.4307
  186SAPI   H6R21344   5.265   6.426  10.179  1.6889  1.8071  1.2170
  186SAPI   C2721345   5.402   6.291  10.070 -0.4975  0.2591 -0.3008
  186SAPI   H7R21346   5.364   6.187  10.059  0.7218  0.0784 -5.1098
  186SAPI   H7S21347   5.511   6.284  10.087 -0.8567 -0.9481  1.7538
  186SAPI   C2821348   5.369   6.361   9.944 -0.4858 -0.5727  0.3216
  186SAPI   H8R21349   5.342   6.467   9.955  0.6294 -0.3806  1.5607
  186SAPI   C2921350   5.366   6.300   9.821 -0.0812 -0.3555 -0.2060
  186SAPI   H9R21351   5.350   6.360   9.731 -1.4531 -2.5746 -1.5098
  186SAPI  C21021352   5.403   6.153   9.802 -0.0319  0.4066 -1.0633
  186SAPI  H10R21353   5.320   6.100   9.752  1.1151 -0.6983 -1.8408
  186SAPI  H10S21354   5.422   6.095   9.895 -2.0085 -0.7088 -1.3137
  186SAPI  C21121355   5.526   6.151   9.718  0.1400 -0.0260 -0.3123
  186SAPI  H11R21356   5.622   6.127   9.766  0.4793 -0.7040 -1.3098
  186SAPI  C21221357   5.517   6.163   9.589 -0.2137 -0.8516 -0.0505
  186SAPI  H12R21358   5.607   6.145   9.527 -0.7182  2.2286 -1.8760
  186SAPI  C21321359   5.393   6.193   9.505  0.3661  0.5353 -0.2571
  186SAPI  H13R21360   5.433   6.236   9.410  0.7891 -1.1359 -0.8691
  186SAPI  H13S21361   5.324   6.265   9.555 -0.5347 -1.2072  1.0922
  186SAPI  C21421362   5.299   6.077   9.466  0.4640 -0.5632  0.3261
  186SAPI  H14R21363   5.230   6.046   9.546 -0.8222 -3.2748 -1.6675
  186SAPI  C21521364   5.284   6.016   9.345 -0.2527 -0.5044 -0.3287
  186SAPI  H15R21365   5.214   5.931   9.341 -0.0053 -0.6713 -1.1907
  186SAPI  C21621366   5.356   6.053   9.217  0.2286  0.2965 -0.2530
  186SAPI  H16R21367   5.347   6.164   9.211  0.7639  0.2573 -3.0394
  186SAPI  H16S21368   5.299   6.009   9.133 -0.4190  0.4258  0.1068
  186SAPI  C21721369   5.505   6.013   9.218  0.1663 -0.0838 -0.1482
  186SAPI  H17R21370   5.505   5.905   9.189  0.7293  0.4899 -2.4584
  186SAPI  H17S21371   5.548   6.031   9.319 -1.6943  2.3493  0.2869
  186SAPI  C21821372   5.584   6.103   9.114 -0.5289  0.2222 -0.6967
  186SAPI  H18R21373   5.687   6.129   9.147 -0.7081  0.5318 -0.3749
  186SAPI  H18S21374   5.536   6.203   9.106  0.2031  0.7602  1.0503
  186SAPI  C21921375   5.606   6.034   8.980 -0.3724  0.4495 -0.1445
  186SAPI  H19R21376   5.654   5.940   9.013  0.6913  1.1187  0.2991
  186SAPI  H19S21377   5.675   6.095   8.917 -2.9492  2.1200 -1.5282
  186SAPI  C22021378   5.480   6.009   8.899  0.2118 -0.0903 -0.1914
  186SAPI  H20R21379   5.503   5.948   8.809  1.0648  0.2203 -0.1979
  186SAPI  H20S21380   5.433   6.105   8.867 -0.4051 -0.5477 -0.6927
  186SAPI  H20T21381   5.422   5.941   8.964  0.3667  0.8405  0.9589
  186SAPI   C3321382   6.117   5.698  10.421  0.3418 -0.5153  0.5263
  186SAPI   H3X21383   6.155   5.604  10.465  1.1648 -0.7333 -0.6065
  186SAPI   H3Y21384   6.149   5.786  10.481 -1.6468  2.6095 -2.5816
  186SAPI   C3421385   6.174   5.727  10.284 -0.0195 -0.3203  0.3901
  186SAPI   H4X21386   6.283   5.750  10.291 -0.4736  1.4671  2.7494
  186SAPI   H4Y21387   6.129   5.827  10.266  0.9628 -0.0172 -0.4916
  186SAPI   C3521388   6.149   5.620  10.176  0.5448 -0.1456  0.3606
  186SAPI   H5X21389   6.047   5.582  10.155  0.3495  0.7361 -0.3255
  186SAPI   H5Y21390   6.212   5.531  10.199 -0.2756 -2.0782 -3.8416
  186SAPI   C3621391   6.191   5.677  10.036 -0.1623 -0.9756 -0.6173
  186SAPI   H6X21392   6.299   5.703  10.038  0.0928 -2.0564  1.3291
  186SAPI   H6Y21393   6.119   5.761  10.025  0.8788  0.0001 -0.2102
  186SAPI   C3721394   6.178   5.577   9.915 -0.9453 -0.6340 -0.2308
  186SAPI   H7X21395   6.072   5.570   9.882 -1.1533  0.1518  0.2489
  186SAPI   H7Y21396   6.229   5.480   9.935  0.0621 -0.5854 -2.3503
  186SAPI   C3821397   6.258   5.621   9.785  0.1195  0.2501  0.2770
  186SAPI   H8X21398   6.361   5.600   9.821 -0.3587 -1.0603  0.9353
  186SAPI   H8Y21399   6.253   5.731   9.767  1.8931  0.2866 -0.2297
  186SAPI   C3921400   6.231   5.523   9.670 -0.2967 -0.0326 -0.0455
  186SAPI   H9X21401   6.132   5.476   9.684  0.5443 -1.6932  0.5718
  186SAPI   H9Y21402   6.311   5.447   9.661 -0.5146 -0.1269 -1.4637
  186SAPI  C31021403   6.220   5.607   9.536  0.4533 -0.2100 -0.3884
  186SAPI  H10X21404   6.321   5.650   9.519 -0.2649  2.2213  1.1011
  186SAPI  H10Y21405   6.143   5.686   9.540 -0.8827 -1.5106  1.5825
  186SAPI  C31121406   6.191   5.513   9.418 -0.5761  0.1877  0.1023
  186SAPI  H11X21407   6.184   5.574   9.325 -0.4463  0.0771  0.0181
  186SAPI  H11Y21408   6.090   5.468   9.427  0.5546 -3.0567 -1.6198
  186SAPI  C31221409   6.292   5.397   9.385 -0.1426 -0.8639 -0.0094
  186SAPI  H12X21410   6.240   5.334   9.310 -1.4599 -3.5193  2.8880
  186SAPI  H12Y21411   6.301   5.343   9.481 -0.0594  1.2646  1.2591
  186SAPI  C31321412   6.431   5.436   9.326  0.4706 -0.8874 -0.5820
  186SAPI  H13X21413   6.502   5.352   9.346 -0.3098 -1.4212  0.0412
  186SAPI  H13Y21414   6.465   5.524   9.385 -1.6858 -0.5060  0.1673
  186SAPI  C31421415   6.451   5.483   9.183 -0.2971  0.2050  0.0065
  186SAPI  H14X21416   6.391   5.574   9.165  0.1217  0.8496  1.7044
  186SAPI  H14Y21417   6.431   5.401   9.110 -0.4699  0.2869 -0.0387
  186SAPI  C31521418   6.601   5.496   9.149 -0.1985 -0.1781  0.8183
  186SAPI  H15X21419   6.666   5.409   9.173  0.8377  0.2968 -0.1546
  186SAPI  H15Y21420   6.640   5.588   9.199 -2.9071  1.2702  0.4650
  186SAPI  C31621421   6.616   5.513   8.995  0.2968  0.2946  0.0354
  186SAPI  H16X21422   6.571   5.431   8.934  1.0877  0.3588 -0.6521
  186SAPI  H16Y21423   6.723   5.520   8.967 -0.0378 -0.8306 -1.7048
  186SAPI  C31721424   6.540   5.637   8.956 -0.5537 -0.5172 -0.0538
  186SAPI  H17X21425   6.566   5.726   9.017 -2.2228 -0.0980  0.1027
  186SAPI  H17Y21426   6.432   5.612   8.964  0.1699 -3.5207  2.3420
  186SAPI  C31821427   6.570   5.698   8.816 -0.5584  0.4482  0.0986
  186SAPI  H18X21428   6.681   5.692   8.812 -0.6321 -3.1065  0.0644
  186SAPI  H18Y21429   6.531   5.800   8.799 -1.2165 -0.0636 -1.7192
  186SAPI  H18Z21430   6.539   5.639   8.727  2.4616  0.3707 -1.0100
  187SAPI   C1221431   2.425   4.603   6.489  0.1264  0.2892  0.2870
  187SAPI    H221432   2.461   4.634   6.590  0.1370 -0.7442  0.6080
  187SAPI    O221433   2.533   4.607   6.400 -0.2358 -0.0914  0.0977
  187SAPI   HO221434   2.612   4.594   6.452  1.3574 -1.2908 -2.4479
  187SAPI   C1321435   2.374   4.463   6.498  0.8601  0.5958 -0.7887
  187SAPI    H321436   2.300   4.455   6.580  1.8404 -0.6102 -0.0010
  187SAPI    O321437   2.475   4.374   6.547 -0.0644 -0.1845  0.5463
  187SAPI   HO321438   2.548   4.364   6.485 -1.0268 -1.2606 -0.4611
  187SAPI   C1421439   2.325   4.409   6.361  0.8097 -0.2810 -0.1279
  187SAPI    H421440   2.405   4.406   6.284  0.0251  0.4545 -0.9951
  187SAPI    O421441   2.271   4.275   6.376  0.3975  0.4411 -0.8694
  187SAPI   HO421442   2.334   4.212   6.413 -1.9120 -1.3636  0.2551
  187SAPI   C1521443   2.224   4.502   6.301 -0.0798 -0.4838 -0.3058
  187SAPI    H521444   2.130   4.501   6.360 -0.1568  2.7117 -0.1524
  187SAPI    O521445   2.192   4.466   6.169  0.0489 -0.2158 -0.3587
  187SAPI   HO521446   2.109   4.513   6.163  1.2975  2.3265  0.8586
  187SAPI   C1621447   2.274   4.649   6.301  0.1487 -1.3207 -0.6309
  187SAPI    H621448   2.358   4.663   6.230  0.0185  0.9719 -0.4125
  187SAPI    O621449   2.169   4.735   6.256  0.5596  0.6639 -0.3929
  187SAPI   HO621450   2.205   4.824   6.267  0.6742  0.7678 -1.4914
  187SAPI   C1121451   2.318   4.695   6.438  0.7849 -0.0893 -0.3578
  187SAPI    H121452   2.231   4.691   6.507  1.2474 -0.4209  0.2134
  187SAPI     P21453   2.339   4.942   6.535 -0.0852 -0.0287 -0.1885
  187SAPI   O1321454   2.199   4.915   6.586  0.2360 -0.7436 -0.1312
  187SAPI   O1421455   2.364   5.076   6.481 -0.4717  0.0193 -0.2281
  187SAPI   O1221456   2.372   4.824   6.426 -0.4123  0.1974  0.0569
  187SAPI   O1121457   2.445   4.921   6.649  0.3250  0.1877  0.2106
  187SAPI    C121458   2.577   4.952   6.623  0.5131 -0.0380 -0.0669
  187SAPI    HA21459   2.627   4.873   6.562 -0.4234 -0.4539 -0.3207
  187SAPI    HB21460   2.591   5.034   6.549 -1.5560 -0.2951 -0.8042
  187SAPI    C221461   2.654   4.975   6.756 -0.4419 -0.5766  0.0396
  187SAPI    HS21462   2.761   4.997   6.736 -0.6091 -1.1642 -1.6460
  187SAPI   O2121463   2.631   4.861   6.837 -0.2350  0.0389 -0.1521
  187SAPI   C2121464   2.705   4.753   6.806 -0.4239  0.6647 -0.1132
  187SAPI   O2221465   2.794   4.761   6.722 -0.0967 -0.1927  0.1643
  187SAPI   C2221466   2.654   4.635   6.884 -0.0912  0.7051  0.0401
  187SAPI   H2R21467   2.631   4.658   6.990  0.5075 -3.8344  1.3554
  187SAPI   H2S21468   2.559   4.599   6.840  0.6916 -0.6012 -0.6563
  187SAPI    C321469   2.605   5.103   6.832  0.2382  0.1002 -0.4218
  187SAPI    HX21470   2.497   5.080   6.841 -0.3897  2.8882  0.0076
  187SAPI    HY21471   2.606   5.194   6.768 -1.1476  1.3892  1.2987
  187SAPI   O3121472   2.667   5.132   6.957  0.1334 -0.0193 -0.2726
  187SAPI   C3121473   2.588   5.202   7.045 -0.5872 -0.1492  0.4279
  187SAPI   O3221474   2.471   5.232   7.028 -0.1838  0.6144  0.2677
  187SAPI   C3221475   2.680   5.247   7.157 -0.5889 -0.1319  0.5557
  187SAPI   H2X21476   2.706   5.351   7.130  1.4837 -1.3508 -2.9069
  187SAPI   H2Y21477   2.776   5.191   7.154 -0.4602  0.1136 -0.1391
  187SAPI   C2321478   2.758   4.512   6.889 -0.1683 -0.4978  0.4854
  187SAPI   H3R21479   2.850   4.555   6.935 -1.3704  0.6798  1.8924
  187SAPI   H3S21480   2.785   4.486   6.784 -1.7147  1.0348 -0.3431
  187SAPI   C2421481   2.710   4.389   6.978 -0.0644 -0.0489  0.4854
  187SAPI   H4R21482   2.723   4.422   7.083 -0.6565  0.3078  0.4505
  187SAPI   H4S21483   2.785   4.309   6.960 -1.0141 -0.6860 -0.8456
  187SAPI   C2521484   2.571   4.333   6.942  0.1572 -0.1060 -0.8679
  187SAPI   H5R21485   2.562   4.295   6.839 -0.3476  1.1205 -1.3020
  187SAPI   C2621486   2.469   4.338   7.026  0.4348  0.2903 -0.1544
  187SAPI   H6R21487   2.371   4.295   6.998 -0.8460  1.4707  2.2377
  187SAPI   C2721488   2.466   4.391   7.169  0.6368  0.0774 -0.3052
  187SAPI   H7R21489   2.536   4.477   7.180 -1.1116  1.4292  0.7550
  187SAPI   H7S21490   2.500   4.311   7.239  2.5140  0.8518 -0.2772
  187SAPI   C2821491   2.329   4.432   7.212  1.1588  0.0898  0.6976
  187SAPI   H8R21492   2.253   4.382   7.150 -0.6946  3.2249  0.2303
  187SAPI   C2921493   2.276   4.501   7.313  0.8456 -0.8001 -0.5961
  187SAPI   H9R21494   2.166   4.508   7.311  0.8330 -0.4323  0.5207
  187SAPI  C21021495   2.349   4.581   7.422 -0.5298  0.2688  0.2654
  187SAPI  H10R21496   2.307   4.683   7.410  0.2373  0.2983 -3.0720
  187SAPI  H10S21497   2.458   4.590   7.399 -0.9174  1.2314 -1.3103
  187SAPI  C21121498   2.334   4.522   7.560  0.2188 -0.0753  0.3472
  187SAPI  H11R21499   2.344   4.413   7.571 -0.3948 -0.4385 -2.1061
  187SAPI  C21221500   2.316   4.587   7.674  0.3831  0.0062 -0.1341
  187SAPI  H12R21501   2.298   4.520   7.759 -4.8713 -0.0434 -0.9948
  187SAPI  C21321502   2.305   4.741   7.698  0.2747  0.3151  1.3459
  187SAPI  H13R21503   2.292   4.800   7.604  1.5775 -1.0159  0.2624
  187SAPI  H13S21504   2.405   4.779   7.730  0.5396  2.5386 -1.6261
  187SAPI  C21421505   2.223   4.789   7.808  0.4499 -0.3079 -0.1644
  187SAPI  H14R21506   2.131   4.846   7.785 -0.5050 -1.7335 -0.0363
  187SAPI  C21521507   2.236   4.769   7.940 -0.1168 -0.6623  0.4451
  187SAPI  H15R21508   2.159   4.807   8.009  0.9513  1.4808  0.5546
  187SAPI  C21621509   2.347   4.695   8.003  0.6119 -0.7626 -0.3540
  187SAPI  H16R21510   2.444   4.703   7.949  0.6855  1.3973  0.0060
  187SAPI  H16S21511   2.318   4.589   8.023  2.1382 -1.4129 -1.4227
  187SAPI  C21721512   2.367   4.742   8.147  0.0223 -0.5150 -0.3517
  187SAPI  H17R21513   2.279   4.738   8.214  1.0936  2.1068  1.3441
  187SAPI  H17S21514   2.378   4.852   8.140 -1.2656 -0.3536 -0.0753
  187SAPI  C21821515   2.489   4.667   8.202 -0.5993 -0.5492 -0.5868
  187SAPI  H18R21516   2.548   4.661   8.108 -0.2487 -0.9311 -0.3444
  187SAPI  H18S21517   2.455   4.567   8.236  1.1117 -1.3038 -0.9520
  187SAPI  C21921518   2.571   4.750   8.300 -0.2087  0.5026  0.1003
  187SAPI  H19R21519   2.614   4.837   8.245 -1.9157  0.5668 -1.1917
  187SAPI  H19S21520   2.657   4.688   8.336 -3.3253 -4.0378  0.5620
  187SAPI  C22021521   2.495   4.800   8.419 -0.2377  0.4697  0.3453
  187SAPI  H20R21522   2.438   4.723   8.474  0.1190 -2.1132 -2.5928
  187SAPI  H20S21523   2.427   4.883   8.390 -1.5713 -1.0711 -1.1622
  187SAPI  H20T21524   2.556   4.833   8.505 -0.1922  0.7360  0.2153
  187SAPI   C3321525   2.601   5.236   7.290 -0.9319  0.7657  0.1291
  187SAPI   H3X21526   2.496   5.273   7.290 -1.0545  0.4181  1.0479
  187SAPI   H3Y21527   2.654   5.295   7.368 -1.6798 -1.0097  2.0473
  187SAPI   C3421528   2.594   5.100   7.352  0.2367  0.0381  0.2301
  187SAPI   H4X21529   2.694   5.058   7.375  0.7644  0.2081 -1.6745
  187SAPI   H4Y21530   2.538   5.030   7.286 -2.1926  0.7882  1.3605
  187SAPI   C3521531   2.513   5.111   7.484 -0.1233 -0.4869 -0.1496
  187SAPI   H5X21532   2.477   5.012   7.521 -1.8657  1.0448  2.6345
  187SAPI   H5Y21533   2.417   5.159   7.456  0.8962  0.5003 -2.1587
  187SAPI   C3621534   2.579   5.179   7.606  0.3460  0.1403 -0.0850
  187SAPI   H6X21535   2.580   5.289   7.588  0.9657  0.0448 -0.6425
  187SAPI   H6Y21536   2.687   5.155   7.607  0.4550  0.5212 -1.3403
  187SAPI   C3721537   2.496   5.149   7.728 -0.0919 -0.2041 -0.4074
  187SAPI   H7X21538   2.472   5.041   7.738 -1.0713 -0.1145 -1.5804
  187SAPI   H7Y21539   2.397   5.196   7.707 -0.6369  0.6802  3.4012
  187SAPI   C3821540   2.555   5.205   7.854  0.0235 -0.4436  0.2020
  187SAPI   H8X21541   2.587   5.311   7.846  0.0550 -0.4926 -0.3527
  187SAPI   H8Y21542   2.650   5.147   7.852 -1.3274 -2.8097 -2.1596
  187SAPI   C3921543   2.482   5.169   7.988  0.4484 -0.1259  0.6033
  187SAPI   H9X21544   2.418   5.080   7.971  1.3640 -1.0411  1.8020
  187SAPI   H9Y21545   2.409   5.253   8.000  0.4256 -0.1125  0.3796
  187SAPI  C31021546   2.582   5.156   8.097  0.9335  0.7596 -0.2368
  187SAPI  H10X21547   2.665   5.229   8.102  1.1297  0.4620  1.9833
  187SAPI  H10Y21548   2.635   5.059   8.083  1.4841  1.2168 -1.4810
  187SAPI  C31121549   2.515   5.157   8.233 -0.3820 -0.2763  0.2386
  187SAPI  H11X21550   2.449   5.069   8.245  0.0279 -0.6137  0.0726
  187SAPI  H11Y21551   2.445   5.241   8.249 -2.9960 -2.3743  0.3770
  187SAPI  C31221552   2.619   5.154   8.342 -0.2686  0.3680  0.6698
  187SAPI  H12X21553   2.678   5.247   8.327  0.8255 -0.6558 -1.9707
  187SAPI  H12Y21554   2.686   5.069   8.320 -1.9440 -0.8601  0.1345
  187SAPI  C31321555   2.553   5.152   8.478  0.6452  0.0973 -1.1931
  187SAPI  H13X21556   2.493   5.059   8.494  2.2230 -0.6820  0.5828
  187SAPI  H13Y21557   2.486   5.239   8.491  1.6491  0.6492  0.8033
  187SAPI  C31421558   2.658   5.161   8.587 -0.4899 -0.0275  0.0756
  187SAPI  H14X21559   2.701   5.263   8.583 -2.8484  0.9889 -1.9153
  187SAPI  H14Y21560   2.738   5.088   8.559  1.5137  0.7449  3.2301
  187SAPI  C31521561   2.617   5.123   8.725 -0.7791 -0.5549 -0.4039
  187SAPI  H15X21562   2.536   5.194   8.750 -0.8758  0.1426 -2.4587
  187SAPI  H15Y21563   2.696   5.156   8.795 -0.7821  1.8691 -1.4395
  187SAPI  C31621564   2.577   4.980   8.759  0.5052  0.2724 -0.1093
  187SAPI  H16X21565   2.658   4.905   8.746  2.0726  2.0175 -0.8025
  187SAPI  H16Y21566   2.499   4.961   8.682  0.6699  1.0045 -0.4667
  187SAPI  C31721567   2.513   4.961   8.900 -0.3893  0.3692  0.3880
  187SAPI  H17X21568   2.580   4.987   8.985 -0.1243 -3.3365  1.5027
  187SAPI  H17Y21569   2.522   4.853   8.927  1.1915  1.0085  2.7809
  187SAPI  C31821570   2.368   5.000   8.908  0.2349 -0.3122 -0.6772
  187SAPI  H18X21571   2.341   4.996   9.016  3.1882  1.1441  0.2273
  187SAPI  H18Y21572   2.291   4.961   8.839 -2.2202  2.2744  0.4164
  187SAPI  H18Z21573   2.360   5.109   8.892  0.3667 -0.1725  0.1236
  188SAPI   C1221574   3.252   2.857   6.521 -0.3364  0.0511  0.2850
  188SAPI    H221575   3.225   2.863   6.629  0.4839 -0.3528  0.5205
  188SAPI    O221576   3.335   2.965   6.486  0.1096  0.3060 -0.5022
  188SAPI   HO221577   3.380   2.985   6.569 -0.7036  2.3706 -0.5024
  188SAPI   C1321578   3.325   2.731   6.483  0.0305 -0.1258 -0.8281
  188SAPI    H321579   3.260   2.646   6.514 -1.2892  1.0859 -0.1645
  188SAPI    O321580   3.447   2.710   6.555  0.1853 -0.3991  0.4082
  188SAPI   HO321581   3.429   2.647   6.625 -0.2832 -0.9601 -0.2025
  188SAPI   C1421582   3.342   2.725   6.329 -0.5282 -0.6237  1.0646
  188SAPI    H421583   3.405   2.808   6.292  0.3393 -2.3931 -1.6812
  188SAPI    O421584   3.402   2.604   6.280  0.1382 -0.3954 -0.4920
  188SAPI   HO421585   3.491   2.626   6.251 -0.7167  3.0328 -0.8467
  188SAPI   C1521586   3.204   2.737   6.250 -0.1505  0.0850  0.1267
  188SAPI    H521587   3.146   2.643   6.266  0.5488 -0.4692 -0.5193
  188SAPI    O521588   3.231   2.753   6.109 -0.5383 -0.8004  0.5922
  188SAPI   HO521589   3.297   2.688   6.084  1.7554  1.8710 -0.9611
  188SAPI   C1621590   3.119   2.861   6.296 -0.0830 -0.3708 -0.5497
  188SAPI    H621591   3.160   2.959   6.263 -2.1106  1.1575  1.1591
  188SAPI    O621592   2.989   2.851   6.233  0.6694 -0.6665 -0.2307
  188SAPI   HO621593   2.965   2.759   6.218 -0.9698 -0.8046  2.6007
  188SAPI   C1121594   3.113   2.867   6.453 -0.2905  0.0690  0.1929
  188SAPI    H121595   3.057   2.778   6.490 -1.8456  0.8824 -0.0907
  188SAPI     P21596   2.912   3.000   6.580 -0.5799  0.2145  0.1901
  188SAPI   O1321597   2.837   2.876   6.559 -0.2610 -0.6398  0.3054
  188SAPI   O1421598   2.844   3.127   6.550 -0.4546  0.0557 -0.5717
  188SAPI   O1221599   3.051   2.992   6.486  0.1640 -0.4057 -0.2510
  188SAPI   O1121600   2.971   3.004   6.733  0.1772 -0.3252  0.3801
  188SAPI    C121601   3.008   3.134   6.785  0.2402 -0.5765 -1.2001
  188SAPI    HA21602   2.972   3.220   6.725 -4.0709 -0.2898  1.3748
  188SAPI    HB21603   2.963   3.139   6.887  2.6016  0.1697 -0.1275
  188SAPI    C221604   3.158   3.143   6.793 -0.4765  0.3247 -0.6274
  188SAPI    HS21605   3.199   3.146   6.690  1.5139  0.3472  0.1230
  188SAPI   O2121606   3.217   3.038   6.879  0.3328 -0.3469  0.0032
  188SAPI   C2121607   3.346   3.035   6.858 -0.0879  0.1629  0.8884
  188SAPI   O2221608   3.413   3.100   6.777  0.1852 -0.4887  0.3809
  188SAPI   C2221609   3.420   2.914   6.930  0.0332 -0.2096 -0.1720
  188SAPI   H2R21610   3.441   2.948   7.034 -0.1849  3.6267 -1.2094
  188SAPI   H2S21611   3.342   2.836   6.924 -0.8442  0.7322 -1.7317
  188SAPI    C321612   3.199   3.284   6.850 -0.7570 -0.4880  0.4710
  188SAPI    HX21613   3.168   3.352   6.768  0.5794 -0.1428  0.2213
  188SAPI    HY21614   3.310   3.293   6.853 -0.7740  1.7681 -2.0089
  188SAPI   O3121615   3.139   3.327   6.972  0.0094  0.2885 -0.5325
  188SAPI   C3121616   3.195   3.289   7.085  0.7008 -0.6818  0.8306
  188SAPI   O3221617   3.298   3.218   7.089 -0.2695  0.8254  0.0138
  188SAPI   C3221618   3.123   3.345   7.202  0.1812 -0.1992 -0.3433
  188SAPI   H2X21619   3.017   3.315   7.189  0.5195 -1.0974 -1.2286
  188SAPI   H2Y21620   3.116   3.453   7.177  1.2320  0.7873  3.1222
  188SAPI   C2321621   3.543   2.866   6.847  0.3171 -0.3946 -0.4736
  188SAPI   H3R21622   3.591   2.945   6.787  0.7717 -0.8306 -0.6872
  188SAPI   H3S21623   3.527   2.780   6.779 -0.2050  0.3994 -1.3750
  188SAPI   C2421624   3.666   2.832   6.945 -0.0285  0.8091  0.0926
  188SAPI   H4R21625   3.646   2.890   7.038 -0.4518  0.7167  0.0638
  188SAPI   H4S21626   3.750   2.884   6.894  1.0966  1.0523  2.1095
  188SAPI   C2521627   3.685   2.677   6.962  0.5431  0.5617 -0.2859
  188SAPI   H5R21628   3.735   2.612   6.889 -1.8100  1.4690 -2.8769
  188SAPI   C2621629   3.641   2.620   7.078 -0.1125 -0.3786  0.0717
  188SAPI   H6R21630   3.661   2.513   7.095 -2.8876 -1.3429 -2.0348
  188SAPI   C2721631   3.569   2.686   7.197 -0.3818 -0.2204 -0.2033
  188SAPI   H7R21632   3.491   2.755   7.158  0.1458 -0.6508 -2.1565
  188SAPI   H7S21633   3.638   2.759   7.244  0.1606  0.6145 -2.1534
  188SAPI   C2821634   3.520   2.594   7.304  0.1507 -0.3591 -0.0688
  188SAPI   H8R21635   3.587   2.518   7.348 -1.3897 -1.9481 -0.3643
  188SAPI   C2921636   3.402   2.599   7.374  0.0627 -0.3605  0.3742
  188SAPI   H9R21637   3.379   2.522   7.449  2.1879  0.2906  1.7590
  188SAPI  C21021638   3.290   2.691   7.360  0.2209 -0.5771  0.2559
  188SAPI  H10R21639   3.198   2.646   7.402  0.9495 -1.2746  1.1448
  188SAPI  H10S21640   3.263   2.703   7.253  1.0720  0.0193  0.0932
  188SAPI  C21121641   3.316   2.834   7.397  0.2049 -0.0958 -0.3090
  188SAPI  H11R21642   3.351   2.897   7.314  1.0010  1.2007  0.9640
  188SAPI  C21221643   3.282   2.897   7.516 -0.4404 -0.5114  0.4712
  188SAPI  H12R21644   3.308   3.004   7.522 -0.5511 -0.4993  0.7519
  188SAPI  C21321645   3.223   2.833   7.634 -0.5330  0.5671 -0.5056
  188SAPI  H13R21646   3.137   2.769   7.606  0.9675 -1.4835 -0.6445
  188SAPI  H13S21647   3.177   2.916   7.692 -1.2606 -0.9162  1.1199
  188SAPI  C21421648   3.307   2.745   7.718  0.3211  0.4399 -0.1886
  188SAPI  H14R21649   3.375   2.682   7.659 -1.2897 -0.1911 -1.4447
  188SAPI  C21521650   3.288   2.717   7.848  0.9016 -0.4550 -1.0184
  188SAPI  H15R21651   3.362   2.663   7.908 -0.6441  0.3165  1.7634
  188SAPI  C21621652   3.181   2.765   7.943  0.2484  0.1411  0.3534
  188SAPI  H16R21653   3.111   2.680   7.959 -0.6779  0.6774 -0.6694
  188SAPI  H16S21654   3.114   2.844   7.901  0.0109 -0.5331 -0.5542
  188SAPI  C21721655   3.233   2.814   8.085  0.0659 -0.9842  0.1800
  188SAPI  H17R21656   3.281   2.728   8.135  0.4378 -1.0416 -0.2653
  188SAPI  H17S21657   3.151   2.852   8.150  1.8864  2.1860  0.8675
  188SAPI  C21821658   3.324   2.945   8.090 -0.2555 -0.1150 -0.0353
  188SAPI  H18R21659   3.423   2.920   8.048 -0.0964 -1.3473  1.0239
  188SAPI  H18S21660   3.345   2.980   8.194  0.5743 -0.7280  0.0081
  188SAPI  C21921661   3.278   3.070   8.028  0.2055 -0.9034  0.5456
  188SAPI  H19R21662   3.174   3.098   8.056 -0.1696  1.0855 -2.3021
  188SAPI  H19S21663   3.266   3.044   7.920 -0.4719  0.2541  0.3154
  188SAPI  C22021664   3.383   3.184   8.042 -0.0032  0.0174 -0.2913
  188SAPI  H20R21665   3.366   3.264   7.967  2.0924 -0.6990 -1.6278
  188SAPI  H20S21666   3.484   3.143   8.019  0.9927  1.7535  0.7379
  188SAPI  H20T21667   3.398   3.223   8.145 -1.2123 -0.2059 -0.0210
  188SAPI   C3321668   3.197   3.308   7.331  0.0056 -0.0496 -0.3503
  188SAPI   H3X21669   3.306   3.311   7.310 -0.0358 -0.7836 -0.6884
  188SAPI   H3Y21670   3.179   3.201   7.353  0.3973  0.1647  1.1282
  188SAPI   C3421671   3.159   3.396   7.448 -1.0582 -0.5534 -0.2132
  188SAPI   H4X21672   3.048   3.405   7.455 -0.9277  0.5100  1.1225
  188SAPI   H4Y21673   3.201   3.499   7.441  0.7868 -1.3250 -1.0949
  188SAPI   C3521674   3.212   3.328   7.575  0.4636  0.3238 -0.8344
  188SAPI   H5X21675   3.322   3.317   7.562  0.9000  1.2998  1.5058
  188SAPI   H5Y21676   3.164   3.228   7.570 -2.3840  1.5437  0.1579
  188SAPI   C3621677   3.189   3.386   7.712 -0.3955  0.0907  0.0555
  188SAPI   H6X21678   3.207   3.495   7.714 -0.2144  0.1204 -1.5347
  188SAPI   H6Y21679   3.271   3.345   7.774  1.2319  0.6353 -1.6682
  188SAPI   C3721680   3.057   3.345   7.781  0.2347  0.4972  0.8037
  188SAPI   H7X21681   3.052   3.235   7.788  1.2831 -0.0346 -3.6305
  188SAPI   H7Y21682   2.978   3.375   7.708  1.5391  2.4613  0.1068
  188SAPI   C3821683   3.020   3.414   7.917 -0.1825 -0.2401 -0.0457
  188SAPI   H8X21684   3.000   3.522   7.905 -2.3851 -0.7060 -1.0415
  188SAPI   H8Y21685   3.110   3.396   7.980 -0.0475 -1.0461 -0.4477
  188SAPI   C3921686   2.907   3.334   7.983  0.5447  0.7592  0.4184
  188SAPI   H9X21687   2.941   3.229   7.973  0.8756  0.8569  0.4880
  188SAPI   H9Y21688   2.816   3.342   7.920  0.0426  0.5592  1.1093
  188SAPI  C31021689   2.871   3.362   8.132 -0.4026  0.4447 -0.1872
  188SAPI  H10X21690   2.774   3.310   8.150 -1.9332  3.6057  1.5017
  188SAPI  H10Y21691   2.852   3.471   8.144 -1.9108  0.0879  0.9385
  188SAPI  C31121692   2.979   3.316   8.232  0.0731 -0.2720 -0.3769
  188SAPI  H11X21693   3.071   3.377   8.218  0.0218 -0.4497 -1.6651
  188SAPI  H11Y21694   3.010   3.211   8.213  3.6992  0.5055  0.6633
  188SAPI  C31221695   2.930   3.329   8.377 -0.1413 -0.0526 -0.3708
  188SAPI  H12X21696   2.848   3.404   8.390 -0.2503  0.1821 -2.2383
  188SAPI  H12Y21697   3.016   3.354   8.442 -0.4906 -1.1577  0.5743
  188SAPI  C31321698   2.880   3.194   8.424 -0.0389 -0.0421  0.1503
  188SAPI  H13X21699   2.783   3.170   8.374  0.6425 -0.2208 -1.1177
  188SAPI  H13Y21700   2.851   3.205   8.531 -0.3097  1.3451 -0.0509
  188SAPI  C31421701   2.984   3.080   8.442  0.7802  0.5612 -0.7216
  188SAPI  H14X21702   3.079   3.110   8.493  0.3615  2.7416 -1.1575
  188SAPI  H14Y21703   3.017   3.027   8.350  2.3344 -0.9992  0.6546
  188SAPI  C31521704   2.913   2.964   8.522 -0.1125  0.6740  0.5044
  188SAPI  H15X21705   2.862   3.013   8.608  0.0313  0.2836  0.8174
  188SAPI  H15Y21706   2.999   2.907   8.563  1.6601  2.1107 -1.0737
  188SAPI  C31621707   2.812   2.886   8.441  0.7990  0.2011 -0.0773
  188SAPI  H16X21708   2.834   2.888   8.332  0.8266  0.8257 -0.0612
  188SAPI  H16Y21709   2.708   2.921   8.458  0.1423 -2.3728  1.8155
  188SAPI  C31721710   2.814   2.744   8.487 -0.1055  0.5856  0.5352
  188SAPI  H17X21711   2.778   2.739   8.592 -1.1900 -1.2146  0.1193
  188SAPI  H17Y21712   2.914   2.697   8.477 -1.3132 -1.7904 -1.2769
  188SAPI  C31821713   2.716   2.654   8.408 -0.3091  0.4488 -0.3969
  188SAPI  H18X21714   2.754   2.640   8.304  0.1540  3.0936 -0.6364
  188SAPI  H18Y21715   2.622   2.712   8.397  0.2790  1.0418 -3.2608
  188SAPI  H18Z21716   2.697   2.550   8.443  1.5362 -0.8308 -2.8110
  189POPC     N21717   1.634   4.350  10.968  0.6924 -0.0305  0.7271
  189POPC   C1221718   1.580   4.494  10.964 -0.5344 -0.1378  0.2055
  189POPC  H12A21719   1.486   4.503  10.911  0.2937 -0.4989 -1.3912
  189POPC  H12B21720   1.652   4.549  10.906 -0.6052 -0.5101 -0.2395
  189POPC   C1321721   1.605   4.290  11.097  0.6183 -0.1625 -0.2726
  189POPC  H13A21722   1.653   4.350  11.173 -0.9421  0.7996 -0.0054
  189POPC  H13B21723   1.499   4.285  11.117  0.6417 -1.6628 -0.4010
  189POPC  H13C21724   1.647   4.190  11.101  1.9037  0.3823  0.0760
  189POPC   C1421725   1.577   4.263  10.860 -0.3608  0.4364  0.1428
  189POPC  H14A21726   1.627   4.271  10.764 -1.8425  2.5197 -0.5111
  189POPC  H14B21727   1.589   4.158  10.880  0.8967  0.3848 -0.7533
  189POPC  H14C21728   1.474   4.287  10.843 -0.5454  0.2495  0.9499
  189POPC   C1521729   1.781   4.364  10.959 -0.4474 -0.6832  0.1816
  189POPC  H15A21730   1.816   4.429  11.038  0.0047  0.3623 -0.8501
  189POPC  H15B21731   1.804   4.405  10.862  0.4406 -0.9820  0.2506
  189POPC  H15C21732   1.817   4.263  10.973 -0.8410 -0.8659 -0.1192
  189POPC   C1121733   1.550   4.575  11.093  0.2356 -0.2862 -0.2985
  189POPC  H11A21734   1.485   4.508  11.153  1.9500 -0.9767  0.8477
  189POPC  H11B21735   1.505   4.674  11.070 -1.4704 -0.5716  1.4917
  189POPC     P21736   1.777   4.695  11.140 -0.0087 -0.1024  0.3757
  189POPC   O1321737   1.898   4.625  11.182  0.0290  0.1414 -0.1607
  189POPC   O1421738   1.749   4.827  11.207  0.2670  0.4080 -0.5706
  189POPC   O1221739   1.666   4.588  11.164  0.4875 -0.8110  0.2311
  189POPC   O1121740   1.791   4.706  10.990  0.1238 -0.2722  0.2975
  189POPC    C121741   1.719   4.807  10.925  0.3799 -0.3871 -0.4938
  189POPC    HA21742   1.755   4.910  10.946 -1.3145  0.3370 -0.9262
  189POPC    HB21743   1.608   4.803  10.932  0.3280 -0.4847 -1.2545
  189POPC    C221744   1.745   4.797  10.771 -0.2829  0.2104 -0.3616
  189POPC    HS21745   1.685   4.715  10.725  0.9699 -1.6325  1.1175
  189POPC   O2121746   1.887   4.767  10.760 -0.4873  0.0325  0.1090
  189POPC   C2121747   1.926   4.642  10.731  0.1165 -0.1252 -0.0252
  189POPC   O2221748   1.859   4.543  10.722  0.0673  0.8943  0.3389
  189POPC   C2221749   2.079   4.638  10.707 -0.1743  0.2800 -1.3815
  189POPC   H2R21750   2.111   4.532  10.711  1.3528  0.7585  0.4430
  189POPC   H2S21751   2.130   4.679  10.797  0.2085 -1.9588 -0.5151
  189POPC    C321752   1.716   4.924  10.691  0.3931  0.4021 -1.1363
  189POPC    HX21753   1.762   5.021  10.718  0.0939  0.3816 -0.5461
  189POPC    HY21754   1.609   4.947  10.705  0.7639  2.3205 -1.2155
  189POPC   O3121755   1.745   4.900  10.550  0.1028  0.5854  0.3379
  189POPC   C3121756   1.714   5.012  10.479  0.0899  0.3685  0.3482
  189POPC   O3221757   1.674   5.118  10.526  0.2443 -0.3848  0.6760
  189POPC   C3221758   1.757   4.985  10.337  0.2810  0.4984 -0.6259
  189POPC   H2X21759   1.668   4.932  10.299  0.6000  0.3493 -1.1754
  189POPC   H2Y21760   1.849   4.923  10.339 -0.3592 -0.4658 -0.0437
  189POPC   C2321761   2.138   4.698  10.575  0.0644 -0.6059  0.3778
  189POPC   H3R21762   2.245   4.670  10.584 -0.0608 -0.7771  1.4970
  189POPC   H3S21763   2.137   4.808  10.591  2.6570 -0.4425 -0.1788
  189POPC   C2421764   2.085   4.662  10.432 -0.4575  0.4942 -0.6264
  189POPC   H4R21765   1.977   4.684  10.422 -0.6434 -0.7412 -1.4898
  189POPC   H4S21766   2.094   4.551  10.426 -1.6651  0.4521 -2.5716
  189POPC   C2521767   2.172   4.734  10.335 -0.2508 -0.5265  0.7267
  189POPC   H5R21768   2.276   4.703  10.357  0.3198  0.2717 -0.7193
  189POPC   H5S21769   2.173   4.844  10.351 -0.2656 -0.5728  1.0550
  189POPC   C2621770   2.139   4.702  10.184 -0.0837 -0.2861  0.0443
  189POPC   H6R21771   2.039   4.742  10.159  1.1233  1.6269 -2.0907
  189POPC   H6S21772   2.158   4.593  10.167 -0.2421 -0.1603 -1.0055
  189POPC   C2721773   2.245   4.786  10.104  0.1457 -0.2726 -0.1725
  189POPC   H7R21774   2.343   4.748  10.139  1.0006  0.6314 -1.5252
  189POPC   H7S21775   2.240   4.897  10.113  0.3368 -0.2147 -0.7513
  189POPC   C2821776   2.241   4.740   9.959 -0.0131  0.1570  0.2799
  189POPC   H8R21777   2.245   4.630   9.947  0.4153  0.2634 -0.7060
  189POPC   H8S21778   2.334   4.773   9.907 -0.8581  2.0726 -0.1029
  189POPC   C2921779   2.135   4.811   9.875 -0.5791 -0.9670 -0.7264
  189POPC   H9121780   2.034   4.820   9.919  0.3113  2.0266  0.9777
  189POPC  C21021781   2.144   4.852   9.747 -0.4681  0.1690 -0.2944
  189POPC  H10121782   2.052   4.885   9.695 -0.7529 -1.2938 -0.7698
  189POPC  C21121783   2.259   4.849   9.659  0.1266  0.4122  0.3924
  189POPC  H11R21784   2.341   4.783   9.695  2.3725  2.5828 -0.4198
  189POPC  H11S21785   2.303   4.951   9.650 -0.8679  1.3135  4.0707
  189POPC  C21221786   2.218   4.781   9.530  0.5999  0.1065  0.0291
  189POPC  H12R21787   2.143   4.851   9.488 -0.8545 -0.1600  2.0639
  189POPC  H12S21788   2.164   4.684   9.542 -2.0230  1.2713 -1.3893
  189POPC  C21321789   2.340   4.761   9.428  0.6714 -0.4437  0.0909
  189POPC  H13R21790   2.401   4.670   9.448 -0.4175 -1.1267  0.4240
  189POPC  H13S21791   2.412   4.841   9.452 -0.3538  0.0578  1.6248
  189POPC  C21421792   2.300   4.772   9.279 -0.1315 -0.4438 -0.2017
  189POPC  H14R21793   2.389   4.798   9.217 -0.3236 -1.0609 -0.7497
  189POPC  H14S21794   2.233   4.861   9.276 -1.1926 -1.2685 -1.9118
  189POPC  C21521795   2.228   4.643   9.234  0.7551  0.2396 -0.0388
  189POPC  H15R21796   2.150   4.612   9.306  1.8854  0.9832  1.5700
  189POPC  H15S21797   2.303   4.562   9.251  0.0683 -0.4136 -0.0655
  189POPC  C21621798   2.156   4.647   9.100 -0.1393  0.0230 -0.4236
  189POPC  H16R21799   2.085   4.730   9.085  1.3192  1.3324 -0.3300
  189POPC  H16S21800   2.102   4.550   9.109  1.9192 -1.1556  0.1647
  189POPC  C21721801   2.239   4.642   8.974 -0.5321  0.3800 -0.2173
  189POPC  H17R21802   2.302   4.553   8.994  0.2656  1.1216  0.6066
  189POPC  H17S21803   2.305   4.730   8.961 -0.8533  0.3604 -2.3341
  189POPC  C21821804   2.150   4.617   8.851  0.1468  0.2093 -0.3006
  189POPC  H18R21805   2.066   4.690   8.850  0.2820  0.3742 -1.8555
  189POPC  H18S21806   2.097   4.519   8.842 -1.3067  0.6204  2.5622
  189POPC  H18T21807   2.202   4.633   8.754  0.4373 -0.5511 -0.2813
  189POPC   C3321808   1.778   5.106  10.258  0.1285 -0.1914 -0.5532
  189POPC   H3X21809   1.859   5.166  10.304  0.4572 -0.3589 -0.9046
  189POPC   H3Y21810   1.687   5.170  10.262 -0.0350 -0.4570  0.1002
  189POPC   C3421811   1.809   5.075  10.110 -0.0621  0.4846 -0.3715
  189POPC   H4X21812   1.875   4.986  10.107 -0.3625 -0.0420  3.7746
  189POPC   H4Y21813   1.867   5.164  10.076 -1.3513  0.8113 -1.8763
  189POPC   C3521814   1.682   5.062  10.028  0.0930  0.0384  0.6647
  189POPC   H5X21815   1.623   5.156  10.021  1.4198  0.8505 -0.1139
  189POPC   H5Y21816   1.611   4.991  10.076 -0.3413 -0.0873 -0.1255
  189POPC   C3621817   1.726   5.011   9.882  1.0507 -0.7638 -0.3689
  189POPC   H6X21818   1.780   4.914   9.891  2.4640  0.0880  0.8464
  189POPC   H6Y21819   1.800   5.085   9.845  0.8199 -1.7711 -3.0394
  189POPC   C3721820   1.604   5.000   9.789  0.1903 -0.1663  0.4881
  189POPC   H7X21821   1.557   5.101   9.788 -3.0145 -1.5178  0.3832
  189POPC   H7Y21822   1.518   4.939   9.825 -2.0948  1.0475 -2.5033
  189POPC   C3821823   1.653   4.937   9.655 -0.2678 -0.6535 -0.1593
  189POPC   H8X21824   1.572   4.913   9.584  1.6343  0.0292 -2.6846
  189POPC   H8Y21825   1.692   4.838   9.688 -0.9806 -0.5556  1.0172
  189POPC   C3921826   1.758   5.030   9.580  0.7171  0.3838 -0.3010
  189POPC   H9X21827   1.841   5.065   9.646  1.1340  2.0254 -1.6144
  189POPC   H9Y21828   1.707   5.120   9.540  0.3769 -0.3248 -1.5011
  189POPC  C31021829   1.804   4.961   9.460 -0.0051  0.3821 -0.7671
  189POPC  H10X21830   1.725   4.896   9.415 -0.4328  1.4485 -1.6057
  189POPC  H10Y21831   1.890   4.896   9.490 -0.6375 -0.2078 -0.2113
  189POPC  C31121832   1.868   5.057   9.358 -0.0504 -0.5475  0.1599
  189POPC  H11X21833   1.958   5.103   9.403 -0.0270 -1.0490  0.6385
  189POPC  H11Y21834   1.797   5.139   9.332  1.6137  1.7546  2.3902
  189POPC  C31221835   1.920   4.974   9.241  0.4174 -0.0102 -0.6005
  189POPC  H12X21836   1.834   4.932   9.185  0.6811  0.6599 -1.5212
  189POPC  H12Y21837   1.989   4.893   9.274 -1.0695 -0.7578  0.8335
  189POPC  C31321838   1.989   5.055   9.126 -0.3754 -0.2790 -0.4301
  189POPC  H13X21839   2.020   4.980   9.050  1.0943  0.1546 -0.2957
  189POPC  H13Y21840   2.079   5.107   9.166 -0.8523  0.2634 -0.0474
  189POPC  C31421841   1.906   5.173   9.072  0.2059 -0.3093  0.0319
  189POPC  H14X21842   1.884   5.250   9.149  2.6860 -0.0720  0.5857
  189POPC  H14Y21843   1.808   5.143   9.029 -0.5423  2.6707 -0.5479
  189POPC  C31521844   1.981   5.237   8.953 -0.0015 -1.1671  0.3087
  189POPC  H15X21845   2.014   5.169   8.871  1.5495  1.4779 -1.4121
  189POPC  H15Y21846   2.070   5.291   8.990  0.6035 -2.0377  0.1613
  189POPC  C31621847   1.896   5.346   8.876  1.4832 -0.1050  0.1500
  189POPC  H16X21848   1.950   5.418   8.812  1.5232  1.2243  1.5963
  189POPC  H16Y21849   1.843   5.403   8.955  1.1373 -0.6158  0.2958
  189POPC  H16Z21850   1.821   5.293   8.814 -0.5760  0.3092  2.1352
  190POPC     N21851   4.778   1.908  11.592  0.5858 -0.3759  0.2436
  190POPC   C1221852   4.750   1.924  11.443  0.8347  0.0124  0.4012
  190POPC  H12A21853   4.794   2.018  11.411  1.2463  0.0169  0.9546
  190POPC  H12B21854   4.643   1.929  11.444  0.7436 -1.5894  1.3491
  190POPC   C1321855   4.718   2.009  11.680 -0.3787  0.1806 -0.3320
  190POPC  H13A21856   4.617   2.037  11.654 -0.1125  0.6879 -0.8702
  190POPC  H13B21857   4.730   1.986  11.784  0.7429 -0.5419 -0.6075
  190POPC  H13C21858   4.767   2.104  11.663  3.4377 -1.8318 -1.8207
  190POPC   C1421859   4.724   1.772  11.640  0.3030 -0.2864  0.1517
  190POPC  H14A21860   4.752   1.762  11.744 -3.6405 -1.5716  1.2604
  190POPC  H14B21861   4.619   1.769  11.616  0.8131  0.0548 -2.4162
  190POPC  H14C21862   4.776   1.697  11.581 -0.9728  0.0481 -1.4432
  190POPC   C1521863   4.923   1.907  11.613  0.7668 -0.6210  0.5570
  190POPC  H15A21864   4.974   2.002  11.605 -1.6703  0.8663  1.6540
  190POPC  H15B21865   4.972   1.833  11.551 -1.0761 -1.7623  0.3831
  190POPC  H15C21866   4.940   1.868  11.712 -1.8325  0.5913  1.5536
  190POPC   C1121867   4.782   1.812  11.352 -0.3031  0.9482  0.5097
  190POPC  H11A21868   4.747   1.835  11.249  0.9169  0.4154 -0.0418
  190POPC  H11B21869   4.725   1.720  11.381 -2.6272  0.7602 -3.8505
  190POPC     P21870   5.015   1.865  11.246  0.3254 -0.0186 -0.5866
  190POPC   O1321871   5.142   1.894  11.324 -0.5513 -0.2138 -0.1821
  190POPC   O1421872   4.941   1.976  11.196  0.1500  0.1122  0.1690
  190POPC   O1221873   4.917   1.784  11.346  0.0483  0.1322 -0.5223
  190POPC   O1121874   5.041   1.761  11.139  0.0214 -0.3652  0.2360
  190POPC    C121875   5.080   1.624  11.162  1.5288  0.6220  0.1729
  190POPC    HA21876   5.055   1.587  11.264 -0.0215  2.2218  0.4346
  190POPC    HB21877   5.190   1.615  11.155  1.6518  1.0091  1.4025
  190POPC    C221878   5.024   1.515  11.057 -0.7369  0.7741 -0.3067
  190POPC    HS21879   5.062   1.420  11.099 -0.9867  0.2227 -1.2901
  190POPC   O2121880   5.091   1.545  10.933  0.4784 -0.1542 -0.2407
  190POPC   C2121881   5.129   1.439  10.862 -0.3080 -0.4715  0.4241
  190POPC   O2221882   5.111   1.325  10.898 -0.3586  0.2118 -0.0316
  190POPC   C2221883   5.206   1.486  10.737  0.8200  0.5364  0.1780
  190POPC   H2R21884   5.314   1.485  10.759  0.8485 -4.0408  0.7060
  190POPC   H2S21885   5.171   1.591  10.724  0.7410  0.4329 -0.4663
  190POPC    C321886   4.876   1.509  11.026  0.6858 -0.1897 -0.4533
  190POPC    HX21887   4.841   1.611  10.997  1.7979 -0.3110 -2.3643
  190POPC    HY21888   4.807   1.485  11.111  0.0116  0.6410 -0.7465
  190POPC   O3121889   4.843   1.432  10.911  0.5541 -0.1299 -0.0107
  190POPC   C3121890   4.805   1.308  10.943  0.2901 -0.3828 -0.1372
  190POPC   O3221891   4.802   1.264  11.055 -0.5265 -0.0656 -0.2338
  190POPC   C3221892   4.781   1.228  10.811 -0.3466 -0.2194  0.4668
  190POPC   H2X21893   4.885   1.212  10.773  0.9581  2.8670  2.3158
  190POPC   H2Y21894   4.735   1.295  10.736  0.1190 -0.7809 -0.3444
  190POPC   C2321895   5.178   1.398  10.611 -0.3703 -0.5000  1.0285
  190POPC   H3R21896   5.216   1.294  10.623  2.2892  0.2499 -0.1873
  190POPC   H3S21897   5.243   1.446  10.535 -0.5239  0.0379  1.2335
  190POPC   C2421898   5.036   1.421  10.552 -0.1278 -0.3827 -0.9137
  190POPC   H4R21899   5.030   1.524  10.511  0.9828  0.7175  1.4383
  190POPC   H4S21900   4.964   1.427  10.637  0.7098 -0.4456 -0.1819
  190POPC   C2521901   4.981   1.325  10.451 -0.0309 -0.4029 -0.1827
  190POPC   H5R21902   4.871   1.310  10.449  0.1408 -1.8770  0.2446
  190POPC   H5S21903   5.034   1.229  10.473  0.7764 -0.1265 -0.8579
  190POPC   C2621904   5.026   1.371  10.314  0.4151  0.4078  0.3221
  190POPC   H6R21905   5.136   1.376  10.300  0.6978 -2.8435  0.6028
  190POPC   H6S21906   4.982   1.471  10.295 -1.1395 -0.3775 -0.4033
  190POPC   C2721907   4.988   1.283  10.200  0.0686  0.5387 -0.5495
  190POPC   H7R21908   4.877   1.279  10.203  0.1001 -0.3284 -0.3188
  190POPC   H7S21909   5.032   1.181  10.211 -2.0701 -0.4768 -0.8952
  190POPC   C2821910   5.025   1.341  10.059  0.6578  0.1013 -0.2557
  190POPC   H8R21911   5.134   1.358  10.072  0.4928  1.4588 -0.4388
  190POPC   H8S21912   4.972   1.438  10.041  2.7305  0.8888 -2.8331
  190POPC   C2921913   4.992   1.240   9.954  0.5273  0.0556 -0.3514
  190POPC   H9121914   5.040   1.143   9.970 -0.2937 -0.6806 -2.1322
  190POPC  C21021915   4.918   1.255   9.840  0.5238  0.6699 -1.1679
  190POPC  H10121916   4.902   1.167   9.775  0.4253 -1.8662  2.0569
  190POPC  C21121917   4.844   1.382   9.813  0.0261  0.3563 -0.0438
  190POPC  H11R21918   4.922   1.450   9.774  0.7006  0.0521  0.7537
  190POPC  H11S21919   4.805   1.438   9.900  1.9590  0.6105  0.7032
  190POPC  C21221920   4.742   1.381   9.696  1.1970 -0.0586  0.4086
  190POPC  H12R21921   4.690   1.479   9.689  2.9408  0.8165 -1.0181
  190POPC  H12S21922   4.654   1.319   9.723 -2.0517  4.3783  1.1950
  190POPC  C21321923   4.795   1.356   9.555 -0.0739 -0.0387  0.0581
  190POPC  H13R21924   4.866   1.272   9.567  1.4899  1.3393  0.9439
  190POPC  H13S21925   4.859   1.444   9.530  1.9088 -0.9827  1.5271
  190POPC  C21421926   4.689   1.333   9.456 -0.2786 -0.1321  0.0708
  190POPC  H14R21927   4.629   1.424   9.438 -0.1492 -0.1952 -0.7179
  190POPC  H14S21928   4.614   1.258   9.489 -3.0507  2.5945  0.4272
  190POPC  C21521929   4.749   1.283   9.324  0.6179  0.2076  0.1740
  190POPC  H15R21930   4.802   1.189   9.351 -2.6730 -3.0664 -3.4118
  190POPC  H15S21931   4.819   1.358   9.283  0.0767 -0.9667 -3.1498
  190POPC  C21621932   4.655   1.246   9.210  0.4148  0.2805 -0.2970
  190POPC  H16R21933   4.556   1.297   9.209 -0.9721 -2.1303  1.9148
  190POPC  H16S21934   4.611   1.144   9.219  0.0423  0.4198 -0.4857
  190POPC  C21721935   4.726   1.254   9.074 -0.3132  0.3997  0.0987
  190POPC  H17R21936   4.808   1.180   9.079  0.0676  0.7641 -0.5558
  190POPC  H17S21937   4.766   1.355   9.052 -1.0524  1.0131  1.4043
  190POPC  C21821938   4.633   1.228   8.955  0.4474  0.7474 -0.1273
  190POPC  H18R21939   4.610   1.123   8.984 -0.5541  1.3734  1.5026
  190POPC  H18S21940   4.673   1.211   8.853 -1.6529 -1.9767 -0.6098
  190POPC  H18T21941   4.540   1.289   8.962 -2.2092 -3.0877  1.3021
  190POPC   C3321942   4.718   1.086  10.833  0.5815  0.3572  1.0897
  190POPC   H3X21943   4.608   1.096  10.843  0.4798 -0.3243  0.6605
  190POPC   H3Y21944   4.755   1.052  10.932  0.0722  2.9868  2.2623
  190POPC   C3421945   4.754   0.990  10.716 -0.5782 -0.2502 -0.5873
  190POPC   H4X21946   4.710   0.889  10.727 -0.9595  0.0311  0.7855
  190POPC   H4Y21947   4.863   0.979  10.734 -1.0130 -1.5980  1.6177
  190POPC   C3521948   4.733   1.048  10.579  0.5780  0.5711  0.0084
  190POPC   H5X21949   4.798   1.138  10.574 -0.9576  1.7244 -0.0964
  190POPC   H5Y21950   4.629   1.084  10.561  0.7693  0.8652 -0.5380
  190POPC   C3621951   4.776   0.940  10.471 -0.0409  0.6539  0.4790
  190POPC   H6X21952   4.716   0.847  10.481 -0.5762  0.7157 -1.6320
  190POPC   H6Y21953   4.882   0.913  10.486  0.7186  2.6648 -0.8380
  190POPC   C3721954   4.764   0.995  10.332  0.1258  0.3254 -0.0438
  190POPC   H7X21955   4.836   1.079  10.322  0.6535  0.1341  1.7169
  190POPC   H7Y21956   4.662   1.038  10.322 -0.1035  0.9453  3.5354
  190POPC   C3821957   4.785   0.888  10.224  0.1705 -0.7423 -0.0033
  190POPC   H8X21958   4.715   0.805  10.248  0.1419 -0.3187  1.4643
  190POPC   H8Y21959   4.887   0.844  10.223 -0.0736 -1.3492 -1.6287
  190POPC   C3921960   4.751   0.937  10.085  0.1535  0.2553 -0.1886
  190POPC   H9X21961   4.811   1.029  10.076 -0.4956  0.8410  1.1489
  190POPC   H9Y21962   4.643   0.962  10.092 -0.3013 -1.8739  2.7981
  190POPC  C31021963   4.753   0.821   9.988 -0.4270  0.0027 -0.6286
  190POPC  H10X21964   4.704   0.730  10.027 -1.3468  0.7823  0.0770
  190POPC  H10Y21965   4.859   0.788   9.978  0.4880  1.6116  2.4442
  190POPC  C31121966   4.705   0.865   9.850 -0.1380  0.5140  0.5154
  190POPC  H11X21967   4.740   0.967   9.824  2.5317  0.2349  2.6109
  190POPC  H11Y21968   4.594   0.860   9.858 -0.1780 -3.6771 -0.3172
  190POPC  C31221969   4.758   0.765   9.745  0.6981  0.5993 -0.2771
  190POPC  H12X21970   4.711   0.665   9.756  1.0911  0.4250 -0.1802
  190POPC  H12Y21971   4.867   0.752   9.727  0.7223  0.2619  0.0991
  190POPC  C31321972   4.710   0.817   9.603  0.2033 -0.4410  0.0431
  190POPC  H13X21973   4.745   0.919   9.580 -1.1689 -0.0426 -0.4069
  190POPC  H13Y21974   4.599   0.826   9.605  0.2990  0.7768  0.4770
  190POPC  C31421975   4.760   0.727   9.491  0.3394  0.0511 -0.4553
  190POPC  H14X21976   4.731   0.625   9.522  1.4705  0.2939  1.5763
  190POPC  H14Y21977   4.870   0.730   9.499  0.3134  2.8721  0.1163
  190POPC  C31521978   4.702   0.771   9.352  0.4820  0.2258  0.0896
  190POPC  H15X21979   4.720   0.880   9.345 -2.7709  0.8498 -0.5227
  190POPC  H15Y21980   4.592   0.757   9.362  0.3790  1.3524  0.7005
  190POPC  C31621981   4.755   0.688   9.232  0.5320  0.3310 -0.1191
  190POPC  H16X21982   4.736   0.579   9.246  0.0696  0.4224 -0.0168
  190POPC  H16Y21983   4.865   0.702   9.228  0.6199  0.1625  1.2564
  190POPC  H16Z21984   4.715   0.714   9.132 -1.0407 -0.0586  0.3826
  191POPC     N21985   6.249   1.767   6.284 -0.1719  0.4790  0.1711
  191POPC   C1221986   6.169   1.831   6.396 -1.2973 -0.5263 -0.4598
  191POPC  H12A21987   6.119   1.759   6.460  0.4712 -0.6999  0.7855
  191POPC  H12B21988   6.090   1.896   6.361 -1.8002  0.1571  1.7732
  191POPC   C1321989   6.154   1.699   6.187 -0.1500 -0.5055  0.0347
  191POPC  H13A21990   6.080   1.638   6.236  0.8959 -1.4840  0.4451
  191POPC  H13B21991   6.101   1.764   6.119  2.4492  0.3273 -1.3229
  191POPC  H13C21992   6.217   1.633   6.129  0.3155  1.2074 -1.4729
  191POPC   C1421993   6.336   1.862   6.201 -0.2400 -0.4933  0.0905
  191POPC  H14A21994   6.386   1.810   6.121 -0.7901 -0.6709 -0.1447
  191POPC  H14B21995   6.281   1.948   6.165  0.5539  1.0026  2.2541
  191POPC  H14C21996   6.417   1.901   6.261  0.2184 -0.3099 -0.6407
  191POPC   C1521997   6.348   1.663   6.334  0.8805 -0.2515 -0.1810
  191POPC  H15A21998   6.299   1.578   6.379  1.1489  0.7966  2.2370
  191POPC  H15B21999   6.416   1.704   6.407  0.2889 -0.0101  0.2495
  191POPC  H15C22000   6.416   1.624   6.260  3.2095 -2.2155  2.7651
  191POPC   C1122001   6.256   1.926   6.495 -0.2589  1.1713  0.4320
  191POPC  H11A22002   6.346   1.865   6.518 -2.0429 -1.4170  1.0233
  191POPC  H11B22003   6.214   1.939   6.597 -0.5908 -2.4384  0.9058
  191POPC     P22004   6.180   2.152   6.373  0.0932 -0.1112  0.1453
  191POPC   O1322005   6.052   2.106   6.436  0.0219 -0.0386  0.4927
  191POPC   O1422006   6.192   2.156   6.227 -0.1266 -0.4596  0.2014
  191POPC   O1222007   6.292   2.050   6.429  0.1486 -0.9023 -0.2593
  191POPC   O1122008   6.218   2.297   6.422 -0.3176  0.7896  0.3867
  191POPC    C122009   6.120   2.404   6.435 -0.3588  0.8507  0.5019
  191POPC    HA22010   6.012   2.379   6.429  0.3043 -2.5084  0.8063
  191POPC    HB22011   6.151   2.492   6.374  1.4770 -0.9067 -1.2482
  191POPC    C222012   6.137   2.458   6.580  0.1189 -0.4265 -0.4547
  191POPC    HS22013   6.172   2.562   6.563  1.3438 -0.7966 -0.3288
  191POPC   O2122014   6.232   2.376   6.650 -0.5282 -0.0201  0.0217
  191POPC   C2122015   6.354   2.423   6.639 -0.2514 -0.1476  0.0199
  191POPC   O2222016   6.390   2.527   6.588  0.4276  0.1589  0.2123
  191POPC   C2222017   6.453   2.330   6.702  0.2190 -0.2320  0.0249
  191POPC   H2R22018   6.554   2.376   6.703 -0.0701  0.3959  1.0781
  191POPC   H2S22019   6.466   2.245   6.631  0.5847 -1.0454  1.0350
  191POPC    C322020   6.001   2.455   6.663 -0.0163 -0.3677  0.3664
  191POPC    HX22021   5.964   2.350   6.668  0.0667 -0.5097 -1.4726
  191POPC    HY22022   5.932   2.523   6.610  1.0212  0.8378  0.5310
  191POPC   O3122023   6.032   2.497   6.800 -0.3332  0.0702 -0.2429
  191POPC   C3122024   5.944   2.588   6.847 -0.5603  0.6706  0.6232
  191POPC   O3222025   5.847   2.632   6.793  0.4807 -0.4087 -0.5147
  191POPC   C3222026   5.976   2.620   6.995 -0.5859 -0.2684  0.3871
  191POPC   H2X22027   5.998   2.728   7.001 -1.0454 -0.2546  3.2629
  191POPC   H2Y22028   6.069   2.577   7.037 -0.5000  1.9906  2.7694
  191POPC   C2322029   6.424   2.267   6.838  0.2615 -0.3210  0.3312
  191POPC   H3R22030   6.510   2.199   6.860 -1.0188 -1.4910  1.9838
  191POPC   H3S22031   6.334   2.201   6.833 -0.7711  1.1187 -1.1109
  191POPC   C2422032   6.408   2.362   6.949  0.1036 -0.4179  0.0276
  191POPC   H4R22033   6.312   2.418   6.952  0.7424  0.6753  2.5391
  191POPC   H4S22034   6.490   2.438   6.950  0.5548 -0.8091 -1.9242
  191POPC   C2522035   6.413   2.290   7.083  0.4378  0.0435  0.2014
  191POPC   H5R22036   6.520   2.272   7.106  1.1074  2.0058 -1.1662
  191POPC   H5S22037   6.360   2.193   7.072  1.4328 -0.7121  1.7081
  191POPC   C2622038   6.350   2.365   7.201 -0.0353 -0.0410 -0.5538
  191POPC   H6R22039   6.243   2.368   7.173 -0.0770  2.1520 -0.3504
  191POPC   H6S22040   6.398   2.465   7.207 -0.1982 -0.0214  0.9582
  191POPC   C2722041   6.372   2.284   7.327  0.3887  0.1130 -0.3591
  191POPC   H7R22042   6.479   2.256   7.338  0.2631 -0.4561 -0.5359
  191POPC   H7S22043   6.319   2.188   7.307  1.5006 -0.6087  0.0389
  191POPC   C2822044   6.324   2.358   7.455  0.2119 -0.1726  0.1888
  191POPC   H8R22045   6.319   2.278   7.532  0.9989 -0.8281 -0.4207
  191POPC   H8S22046   6.219   2.389   7.439  0.3189  0.1794  0.1626
  191POPC   C2922047   6.418   2.466   7.505  0.1294 -0.3517 -0.6479
  191POPC   H9122048   6.492   2.506   7.435  1.2663 -2.0992 -0.5000
  191POPC  C21022049   6.415   2.522   7.626  0.2406  0.0467 -0.2734
  191POPC  H10122050   6.492   2.597   7.651 -0.6392  1.1757 -0.8702
  191POPC  C21122051   6.313   2.477   7.734 -0.1723 -0.4154 -0.4628
  191POPC  H11R22052   6.226   2.418   7.698 -1.6117  0.8660  0.8213
  191POPC  H11S22053   6.260   2.563   7.779 -1.8205 -0.4403 -2.2318
  191POPC  C21222054   6.369   2.388   7.846  0.3897 -0.0356  0.5346
  191POPC  H12R22055   6.411   2.293   7.806 -0.1355 -0.0985  0.1292
  191POPC  H12S22056   6.281   2.358   7.908 -0.6626  0.5010 -0.6439
  191POPC  C21322057   6.477   2.453   7.939  0.6320  0.1506 -0.9079
  191POPC  H13R22058   6.444   2.546   7.991  2.1042  0.6821 -0.8837
  191POPC  H13S22059   6.567   2.485   7.883  1.9324  0.7236  1.4069
  191POPC  C21422060   6.521   2.354   8.045 -0.5198  0.2575  0.6719
  191POPC  H14R22061   6.602   2.301   7.991  0.8841  1.7037  1.3083
  191POPC  H14S22062   6.448   2.282   8.087 -1.7899  0.8444 -0.4292
  191POPC  C21522063   6.563   2.429   8.170  0.1121  0.2355 -0.2029
  191POPC  H15R22064   6.485   2.502   8.201 -0.3352 -0.3083 -0.0447
  191POPC  H15S22065   6.647   2.487   8.126 -0.0215  0.8569  0.3352
  191POPC  C21622066   6.582   2.343   8.289 -0.4615  0.6745 -0.7681
  191POPC  H16R22067   6.611   2.243   8.251 -0.2629  0.3530  0.1945
  191POPC  H16S22068   6.488   2.329   8.347  0.0444 -0.8495 -0.2589
  191POPC  C21722069   6.694   2.411   8.383 -0.1383  0.6584  0.7446
  191POPC  H17R22070   6.641   2.500   8.423 -2.0642 -0.7064  1.3388
  191POPC  H17S22071   6.787   2.452   8.338 -1.0084  1.8950 -0.0055
  191POPC  C21822072   6.729   2.313   8.492 -0.9162 -0.2133 -0.6523
  191POPC  H18R22073   6.756   2.218   8.440 -1.2046 -0.9567  0.4997
  191POPC  H18S22074   6.641   2.305   8.559 -0.0607  0.9230  0.6757
  191POPC  H18T22075   6.817   2.359   8.543 -1.0559 -1.5260  0.8564
  191POPC   C3322076   5.853   2.584   7.088  0.2095 -0.0726 -0.3980
  191POPC   H3X22077   5.825   2.476   7.078  1.9381 -0.5785 -0.0797
  191POPC   H3Y22078   5.768   2.651   7.061 -1.1984 -1.6230 -0.0095
  191POPC   C3422079   5.876   2.604   7.243 -0.0655  0.5797 -0.3726
  191POPC   H4X22080   5.972   2.553   7.263 -0.4231 -0.2343 -0.6875
  191POPC   H4Y22081   5.792   2.563   7.304 -1.8864  2.0263 -1.7626
  191POPC   C3522082   5.901   2.749   7.284 -0.5217 -0.2552 -0.3013
  191POPC   H5X22083   5.806   2.806   7.273 -0.7880 -0.3105  1.5379
  191POPC   H5Y22084   5.970   2.807   7.218 -2.7592  1.4172 -1.3139
  191POPC   C3622085   5.952   2.753   7.428 -0.9047  0.1934 -0.3725
  191POPC   H6X22086   5.956   2.861   7.455 -1.6965 -0.0003  0.5860
  191POPC   H6Y22087   6.057   2.717   7.436 -0.2022  2.5416  2.8661
  191POPC   C3722088   5.858   2.677   7.521  0.1782 -0.7391 -0.1807
  191POPC   H7X22089   5.852   2.568   7.500 -0.4382 -0.8536  0.5309
  191POPC   H7Y22090   5.756   2.719   7.515  1.0586  1.9153  1.3103
  191POPC   C3822091   5.889   2.706   7.670 -0.4994 -0.0440  0.1012
  191POPC   H8X22092   5.886   2.811   7.705  0.2920 -1.0526  3.6378
  191POPC   H8Y22093   5.993   2.684   7.702 -0.0842  2.7447  0.9117
  191POPC   C3922094   5.783   2.642   7.759 -0.4942 -0.0383 -0.7523
  191POPC   H9X22095   5.794   2.535   7.730 -0.9860 -0.2549 -0.1744
  191POPC   H9Y22096   5.681   2.682   7.740  0.0002  0.9077 -1.4884
  191POPC  C31022097   5.818   2.655   7.909  0.1727 -0.3386  0.0889
  191POPC  H10X22098   5.799   2.758   7.945 -0.2462 -0.5954  0.6053
  191POPC  H10Y22099   5.927   2.636   7.925  0.3666 -0.3379 -1.1247
  191POPC  C31122100   5.734   2.569   7.998  0.8069 -0.5734 -0.0026
  191POPC  H11X22101   5.769   2.463   7.991  1.5736 -0.2616 -1.1872
  191POPC  H11Y22102   5.626   2.586   7.979  0.5971  0.9652  2.1914
  191POPC  C31222103   5.754   2.603   8.149  0.3409 -0.9517  0.0155
  191POPC  H12X22104   5.756   2.712   8.169  0.0256 -0.9043 -0.1899
  191POPC  H12Y22105   5.843   2.556   8.194  1.0304  0.9035  0.6785
  191POPC  C31322106   5.622   2.540   8.222 -0.2165 -0.0203  0.9494
  191POPC  H13X22107   5.528   2.590   8.190  1.0667  2.6947  1.2009
  191POPC  H13Y22108   5.644   2.559   8.329 -0.1453 -0.6202  1.0464
  191POPC  C31422109   5.622   2.392   8.215  0.2107  0.3068  0.1958
  191POPC  H14X22110   5.725   2.361   8.244  1.0146  2.6634  0.0851
  191POPC  H14Y22111   5.602   2.357   8.111  1.9184 -0.0644 -0.0434
  191POPC  C31522112   5.525   2.330   8.313 -0.5226 -0.2359 -0.3778
  191POPC  H15X22113   5.423   2.371   8.298 -0.5061  0.1614  0.5501
  191POPC  H15Y22114   5.560   2.351   8.417 -0.9550  0.5410 -0.3820
  191POPC  C31622115   5.544   2.168   8.304  0.4612 -0.7946  0.1842
  191POPC  H16X22116   5.652   2.142   8.299  0.3653 -1.3956  1.0936
  191POPC  H16Y22117   5.503   2.134   8.206 -1.4984 -1.7275  1.2786
  191POPC  H16Z22118   5.494   2.113   8.386  2.4874 -1.5133  0.9857
  192POPC     N22119   3.982   3.891   5.897 -0.2631 -0.6572 -0.1830
  192POPC   C1222120   3.871   3.984   5.943  0.5816 -0.6135  0.6170
  192POPC  H12A22121   3.796   3.923   5.991  0.1164  0.1969  0.9502
  192POPC  H12B22122   3.830   4.018   5.849  2.1117  0.0559  0.1563
  192POPC   C1322123   4.033   3.818   6.011  0.3656  0.7598  0.0265
  192POPC  H13A22124   4.057   3.887   6.090  1.1013  0.6345 -0.0785
  192POPC  H13B22125   3.953   3.750   6.038 -0.6116  1.8249 -0.1142
  192POPC  H13C22126   4.118   3.756   5.986 -0.3986 -0.0516 -0.6720
  192POPC   C1422127   3.936   3.797   5.790  0.1095  0.3824  0.5956
  192POPC  H14A22128   4.022   3.757   5.740 -1.0144  1.6161 -2.5622
  192POPC  H14B22129   3.878   3.710   5.816  1.2423 -0.4531  0.3770
  192POPC  H14C22130   3.883   3.852   5.714 -0.0905  1.5380  1.5294
  192POPC   C1522131   4.103   3.966   5.847 -0.3050  0.2963  0.6016
  192POPC  H15A22132   4.140   4.030   5.926 -0.9492 -1.1624  2.1435
  192POPC  H15B22133   4.083   4.034   5.766 -0.1215  1.4153  1.4626
  192POPC  H15C22134   4.183   3.902   5.812 -0.4205 -0.4361  1.6183
  192POPC   C1122135   3.914   4.101   6.040 -0.6753 -0.0081  0.5487
  192POPC  H11A22136   3.822   4.159   6.061 -0.1998  1.0407 -0.2049
  192POPC  H11B22137   3.990   4.165   5.990  0.4084 -2.6654 -1.4974
  192POPC     P22138   3.946   4.054   6.304  0.0177 -0.3473 -0.1465
  192POPC   O1322139   3.854   3.952   6.349  0.4498 -0.1650  0.0266
  192POPC   O1422140   3.905   4.190   6.339  0.1495  0.1162  0.1831
  192POPC   O1222141   3.978   4.042   6.155 -0.3523  0.2346  0.0269
  192POPC   O1122142   4.093   4.016   6.357  0.0503 -0.0136  0.4382
  192POPC    C122143   4.170   4.106   6.428  0.6285 -0.1946 -0.1339
  192POPC    HA22144   4.174   4.213   6.400  2.7236  0.1539  1.2413
  192POPC    HB22145   4.276   4.072   6.418  0.7075 -1.5056  3.6013
  192POPC    C222146   4.144   4.096   6.586 -0.7263  0.1159 -0.2649
  192POPC    HS22147   4.241   4.126   6.632 -0.8756  0.8068 -0.3902
  192POPC   O2122148   4.088   3.971   6.630 -0.4043 -0.4720  0.5180
  192POPC   C2122149   4.149   3.850   6.605 -1.3299 -0.1376  0.0636
  192POPC   O2222150   4.262   3.842   6.563  0.2513  0.1084  0.8669
  192POPC   C2222151   4.054   3.739   6.651  0.7577  0.5046  0.0190
  192POPC   H2R22152   4.078   3.641   6.604  1.1984  1.0556 -0.9344
  192POPC   H2S22153   3.953   3.769   6.617  0.4349  1.2236  1.4939
  192POPC    C322154   4.044   4.199   6.623  1.1067  0.2164 -0.4053
  192POPC    HX22155   3.943   4.170   6.587  0.3763  2.0034  0.0692
  192POPC    HY22156   4.081   4.294   6.580 -0.7377  0.6859 -1.0585
  192POPC   O3122157   4.030   4.220   6.767 -0.0284  0.0607  0.1329
  192POPC   C3122158   4.013   4.336   6.827 -0.6980  0.0803  0.1044
  192POPC   O3222159   4.006   4.442   6.768  0.0198  0.1063 -0.3688
  192POPC   C3222160   4.010   4.314   6.976  0.0677 -0.1877  0.9322
  192POPC   H2X22161   4.094   4.247   7.004 -1.1372 -1.7527  0.9454
  192POPC   H2Y22162   3.920   4.253   6.997  1.7437 -2.9889  0.5301
  192POPC   C2322163   4.057   3.717   6.795 -0.0923  0.2904 -0.3966
  192POPC   H3R22164   4.156   3.702   6.843 -1.0086  0.9426  1.8647
  192POPC   H3S22165   3.994   3.630   6.824 -0.3671  0.5513 -0.2070
  192POPC   C2422166   3.999   3.830   6.888 -0.2593  0.1901 -0.8391
  192POPC   H4R22167   3.910   3.856   6.827 -0.9047 -1.6428 -0.7618
  192POPC   H4S22168   4.061   3.919   6.909 -0.2025 -0.5543  2.8114
  192POPC   C2522169   3.947   3.777   7.017  0.1427 -0.1960  0.8263
  192POPC   H5R22170   3.918   3.671   7.004  1.7481 -1.0057  3.1587
  192POPC   H5S22171   3.858   3.837   7.046 -0.1969 -0.2435 -0.1022
  192POPC   C2622172   4.051   3.807   7.126  0.8084  0.1268  0.5613
  192POPC   H6R22173   4.064   3.916   7.144 -0.0628  0.7778 -2.2093
  192POPC   H6S22174   4.147   3.765   7.089  0.1337  0.3893 -1.6016
  192POPC   C2722175   4.004   3.751   7.258 -0.1808 -0.2664 -0.2151
  192POPC   H7R22176   3.983   3.642   7.255 -0.1207 -0.4252  2.5817
  192POPC   H7S22177   3.911   3.797   7.295  1.7420  2.7486  1.2327
  192POPC   C2822178   4.101   3.777   7.380  0.3016  0.0194  0.4604
  192POPC   H8R22179   4.097   3.884   7.409  0.6345 -0.1163  1.0238
  192POPC   H8S22180   4.207   3.747   7.361 -0.1786 -2.2901  1.1459
  192POPC   C2922181   4.063   3.687   7.497  0.1923 -0.4043 -0.2443
  192POPC   H9122182   4.029   3.586   7.472  1.3800 -1.0891  0.7560
  192POPC  C21022183   4.050   3.733   7.626  1.2917 -0.5487  0.2550
  192POPC  H10122184   4.017   3.655   7.696 -0.3942 -1.3285 -1.3212
  192POPC  C21122185   4.086   3.869   7.686  0.0751 -0.1754  0.0428
  192POPC  H11R22186   4.103   3.949   7.610 -0.3861 -3.3666 -3.7334
  192POPC  H11S22187   4.190   3.868   7.726 -0.4870  1.6650  1.7426
  192POPC  C21222188   3.988   3.907   7.794  0.0893 -0.1450 -0.3350
  192POPC  H12R22189   3.882   3.896   7.763  0.2470  1.2645 -1.5066
  192POPC  H12S22190   4.001   4.017   7.808 -2.1811  0.1039  0.0924
  192POPC  C21322191   4.011   3.841   7.935  0.4609 -0.5495  0.4552
  192POPC  H13R22192   3.981   3.735   7.949  2.2622 -1.3399 -1.1525
  192POPC  H13S22193   3.946   3.900   8.003 -0.4193  1.8025 -2.2144
  192POPC  C21422194   4.161   3.833   7.979  0.1675 -0.3164  0.4600
  192POPC  H14R22195   4.205   3.934   7.967  0.8787 -0.6267  0.4195
  192POPC  H14S22196   4.212   3.767   7.905  0.2278  1.8202 -1.5219
  192POPC  C21522197   4.171   3.800   8.125  0.3902  0.7063  0.3609
  192POPC  H15R22198   4.116   3.876   8.185 -2.9299  1.2495 -2.9798
  192POPC  H15S22199   4.277   3.817   8.152  0.5301 -1.3636  1.2293
  192POPC  C21622200   4.133   3.652   8.171  0.3255 -0.1550  0.0249
  192POPC  H16R22201   4.174   3.581   8.096 -0.2189  1.5470 -1.9549
  192POPC  H16S22202   4.022   3.649   8.165  0.3722  0.1030 -0.9844
  192POPC  C21722203   4.185   3.627   8.310  0.2002  0.7296 -0.1164
  192POPC  H17R22204   4.133   3.698   8.377 -0.2038 -0.1528  0.5335
  192POPC  H17S22205   4.291   3.659   8.311  0.1086  1.0244  0.0610
  192POPC  C21822206   4.164   3.473   8.344  0.0176  0.3316 -0.2850
  192POPC  H18R22207   4.238   3.417   8.283  0.3424  1.4275 -0.9350
  192POPC  H18S22208   4.059   3.445   8.324  0.0794 -0.1584  0.0568
  192POPC  H18T22209   4.188   3.466   8.453 -0.0294 -0.4485 -0.3190
  192POPC   C3322210   4.010   4.451   7.047  0.8691  0.6619  0.2597
  192POPC   H3X22211   3.917   4.510   7.035 -0.0757 -0.7469  0.5163
  192POPC   H3Y22212   4.090   4.518   7.009 -0.0267  2.2001  1.0162
  192POPC   C3422213   4.045   4.431   7.193  0.2111  0.1064  0.0926
  192POPC   H4X22214   3.973   4.358   7.236 -1.8603  1.5665 -0.7351
  192POPC   H4Y22215   4.020   4.519   7.256  1.7350  0.1718  0.6575
  192POPC   C3522216   4.194   4.398   7.224 -0.2379 -0.3041  0.4101
  192POPC   H5X22217   4.257   4.480   7.183 -0.8512 -0.6652 -1.3316
  192POPC   H5Y22218   4.213   4.303   7.170  0.8195  0.6407 -0.9652
  192POPC   C3622219   4.225   4.376   7.380 -0.2154  0.0068 -0.1006
  192POPC   H6X22220   4.195   4.473   7.425 -1.5000  1.0803 -3.0311
  192POPC   H6Y22221   4.335   4.378   7.394 -0.0554 -0.4315 -1.1870
  192POPC   C3722222   4.170   4.251   7.439  0.2677  0.2971 -0.1624
  192POPC   H7X22223   4.207   4.147   7.420 -0.3972 -0.3207  1.6981
  192POPC   H7Y22224   4.064   4.242   7.405 -0.5173  2.4583  1.5277
  192POPC   C3822225   4.154   4.260   7.596  0.2116 -0.4639 -0.0854
  192POPC   H8X22226   4.086   4.183   7.639 -1.0191 -0.9402 -2.7208
  192POPC   H8Y22227   4.105   4.358   7.613 -1.4791 -1.3853  0.6453
  192POPC   C3922228   4.297   4.231   7.659 -0.1284 -0.2509  0.2243
  192POPC   H9X22229   4.371   4.312   7.647  0.1074 -0.5528 -0.3563
  192POPC   H9Y22230   4.331   4.135   7.615  1.8724 -0.0956  1.3266
  192POPC  C31022231   4.296   4.208   7.811 -0.0326  0.1462  0.4454
  192POPC  H10X22232   4.404   4.206   7.837  1.0560  0.1337 -3.4483
  192POPC  H10Y22233   4.256   4.107   7.837  0.4407 -0.1319  0.1298
  192POPC  C31122234   4.212   4.313   7.890  0.3759  0.0987  0.5488
  192POPC  H11X22235   4.109   4.330   7.851  1.9101  1.1081 -3.6032
  192POPC  H11Y22236   4.265   4.403   7.853  0.8345 -0.3640  0.0733
  192POPC  C31222237   4.229   4.329   8.042 -0.3852 -0.0308 -0.6780
  192POPC  H12X22238   4.339   4.333   8.059 -0.4366  1.0364 -0.4647
  192POPC  H12Y22239   4.193   4.242   8.100  1.6117 -0.2463  0.3234
  192POPC  C31322240   4.182   4.461   8.087  0.0289  0.7021  0.9259
  192POPC  H13X22241   4.076   4.467   8.056  0.2198  2.4423  0.4891
  192POPC  H13Y22242   4.220   4.549   8.030 -0.1683  1.8248  2.4769
  192POPC  C31422243   4.192   4.483   8.234 -0.3942 -0.2685 -0.2605
  192POPC  H14X22244   4.296   4.484   8.271 -0.8912  2.2749  1.2908
  192POPC  H14Y22245   4.128   4.404   8.280  1.1206 -1.5820 -0.3371
  192POPC  C31522246   4.149   4.629   8.267  0.3877 -0.1241  0.1152
  192POPC  H15X22247   4.056   4.647   8.210  0.7605 -0.5957 -0.6656
  192POPC  H15Y22248   4.228   4.695   8.225  1.5713 -2.1643 -1.0812
  192POPC  C31622249   4.133   4.637   8.420 -0.2278  0.4035 -0.2227
  192POPC  H16X22250   4.230   4.605   8.464  0.0771  0.0842 -1.0966
  192POPC  H16Y22251   4.055   4.570   8.463  1.5483 -0.8534  1.2228
  192POPC  H16Z22252   4.112   4.744   8.439 -0.1793  0.5117 -0.7436
  193SOD    SOD22253   2.580   5.549  16.839 -0.0339  0.1029  0.5840
  194SOD    SOD22254   4.912   2.308  13.532  0.4430 -0.1626 -0.0776
  195SOD    SOD22255   5.769   0.386  15.558  0.2998  0.2242  0.3092
  196SOD    SOD22256   6.515   5.678  11.447  0.0484  0.1840  0.3657
  197SOD    SOD22257   6.588   6.497  16.985 -0.0348  0.2097 -0.2606
  198SOD    SOD22258   0.255   4.125   5.382  0.5732  0.2795  0.0142
  199SOD    SOD22259   0.431   3.860  10.797 -0.3473 -0.3209  0.2515
  200SOD    SOD22260   4.429   1.620   6.322 -0.1900 -0.1787 -0.2158
  201SOD    SOD22261   5.818   2.214  17.037 -0.1958 -0.1872 -0.1112
  202SOD    SOD22262   2.252   3.104  11.489 -0.2512  0.0986 -0.1764
  203SOD    SOD22263   5.025   3.929  13.714  0.6153 -0.0046 -0.4540
  204SOD    SOD22264   1.384   2.454  17.320 -0.1998 -0.6790 -0.0823
  205SOD    SOD22265   2.166   4.282   6.029 -0.1693 -0.2494 -0.1049
  206SOD    SOD22266   5.184   0.745   1.577 -0.0873  0.0026 -0.2314
  207SOD    SOD22267   3.483   6.502   0.125 -0.5716  0.2899  0.3111
  208SOD    SOD22268   4.020   2.649   6.170  1.2165  0.1517 -0.0993
  209SOD    SOD22269   0.596   2.522   2.653 -0.4819  0.1674  0.3157
  210SOD    SOD22270   6.457   3.124   5.252  0.1784  0.3240 -0.0345
  211SOD    SOD22271   5.958   2.095  11.966 -0.2377 -0.0419 -0.3015
  212SOD    SOD22272   5.186   2.051  10.874 -0.4310  0.5506  0.3172
  213SOD    SOD22273   4.979   2.154  12.827  0.2528  0.1068  0.5511
  214SOD    SOD22274   4.595   5.464   6.334  0.8601  0.3984 -0.1056
  215SOD    SOD22275   3.054   5.413   4.560  0.3854 -0.0329 -0.5012
  216SOD    SOD22276   0.735   0.302   0.552 -0.4961 -0.3818  0.3429
  217SOD    SOD22277   1.272   4.807   4.169  0.2584 -0.2330 -0.4337
  218SOD    SOD22278   5.261   5.933  11.772  0.2883  0.4183 -0.1650
  219SOD    SOD22279   1.034   5.795   5.268 -0.3562  0.1826  0.6163
  220SOD    SOD22280   2.546   5.659  13.646 -0.2524 -0.1702 -0.1048
  221SOD    SOD22281   4.208   0.276   6.245 -0.1687  0.1738  0.3724
  222SOD    SOD22282   3.857   2.860  15.425 -0.0136  0.1985 -0.0344
  223SOD    SOD22283   5.530   2.447   3.989  0.5853 -0.1201  0.1019
  224SOD    SOD22284   5.920   3.210  15.334  0.3742 -0.5875 -0.0839
  225SOD    SOD22285   4.487   4.510  17.072 -0.4565  0.3674  0.5669
  226SOD    SOD22286   4.495   2.348  11.846  0.2202 -0.0772 -0.2863
  227SOD    SOD22287   2.492   2.066   3.647  0.4578  0.0552  0.0920
  228SOD    SOD22288   5.375   1.753  13.480 -0.5811  0.2886 -0.3992
  229SOD    SOD22289   0.487   1.784   3.157  0.4146 -0.0230  0.0376
  230SOD    SOD22290   5.528   3.866   3.000 -0.0232 -0.7310 -0.2787
  231SOD    SOD22291   1.611   5.226   1.331 -0.3248  0.0543 -0.2028
  232SOD    SOD22292   2.609   6.555  11.904  0.2304  0.7125  0.0313
  233SOD    SOD22293   2.132   4.828  12.236 -0.0481 -0.7509 -0.1422
  234SOD    SOD22294   3.764   0.978   5.535  0.3472 -0.0996  0.1374
  235SOD    SOD22295   0.025   0.590  11.527  0.3793 -0.3481 -0.1135
  236SOD    SOD22296   4.286   4.120   1.013  0.1699 -0.1490 -0.2306
  237SOD    SOD22297   2.400   4.242   3.131  0.1137 -0.4212  0.3159
  238SOD    SOD22298   0.556   6.715  12.953  0.6095  0.2571 -0.3439
  239SOD    SOD22299   1.877   3.964  15.582 -0.1951 -0.1991  0.1456
  240SOD    SOD22300   4.611   2.571   2.928 -0.2975 -0.3601  0.4372
  241SOD    SOD22301   6.488   4.691   0.840  0.1934  0.5998  0.4822
  242SOD    SOD22302   2.469   2.919   6.257 -0.8936 -0.1607 -0.0089
  243SOD    SOD22303   2.559   1.418  10.947 -0.1074 -0.0314 -0.4791
  244SOD    SOD22304   2.551   5.499   6.650 -0.1441  0.2454  0.1796
  245SOD    SOD22305   0.095   3.249   4.633 -0.0684  0.0455  0.3884
  246SOD    SOD22306   6.355   4.377  11.853 -0.1212 -0.0498  0.0218
  247SOD    SOD22307   3.062   4.054   5.751 -0.2804 -0.2218  0.3298
  248SOD    SOD22308   0.952   3.105   5.825  0.2276  0.2100  0.0014
  249SOD    SOD22309   2.074   3.276  14.892 -0.0396 -0.3084  0.6663
  250SOD    SOD22310   3.301   5.973  11.496  0.1487 -0.3472 -0.4799
  251SOD    SOD22311   4.678   0.562  13.631 -0.2664  0.2889  0.1893
  252SOD    SOD22312   6.199   0.250  16.262 -0.4885  0.2880  0.0130
  253SOD    SOD22313   6.139   2.268   0.084  0.0280  0.4210 -0.0591
  254SOD    SOD22314   2.001   4.837   6.659 -0.4637 -0.3408  0.1500
  255SOD    SOD22315   3.007   2.219   1.986  0.2950 -0.3280 -0.0193
  256SOD    SOD22316   5.335   5.486   5.760 -0.1337 -0.4449  0.0838
  257SOD    SOD22317   5.608   0.785   0.029 -0.2683 -0.0768  0.2789
  258SOD    SOD22318   1.139   5.098  15.693  0.1208  0.4846 -0.1135
  259SOD    SOD22319   0.975   0.666  15.432  0.0004  0.4133 -0.3698
  260SOD    SOD22320   1.463   6.275   2.781 -0.6259 -0.6043 -0.3034
  261SOD    SOD22321   4.365   2.315   4.735  0.1672  0.1705  0.7752
  262SOD    SOD22322   3.529   6.043   5.838  0.3982  0.2161 -0.8050
  263SOD    SOD22323   5.880   5.332  16.509  0.2517 -0.1456 -0.0982
  264SOD    SOD22324   5.227   4.263  11.350  0.4520  0.1996  0.3379
  265SOD    SOD22325   3.676   0.376   4.369 -0.0143  0.1742 -0.0070
  266SOD    SOD22326   5.734   2.884  12.718 -0.2723 -0.0059  0.3123
  267SOD    SOD22327   2.109   5.723   2.871  0.3758 -0.4427 -0.6709
  268SOD    SOD22328   0.159   1.368   1.504  0.1832  0.1176  0.5553
  269SOD    SOD22329   1.398   1.940  13.304  0.0911  0.4515 -0.1154
  270CLA    CLA22330   5.205   3.739   3.759  0.0439  0.1847  0.3161
  271CLA    CLA22331   6.268   4.177  11.981 -0.0372  0.0270  0.1424
  272CLA    CLA22332   1.466   3.929   4.047 -0.2711  0.3017  0.0804
  273CLA    CLA22333   6.648   0.407  12.169  0.4370 -0.0205 -0.0180
  274CLA    CLA22334   2.344   4.616   2.510 -0.2985  0.0588 -0.0629
  275CLA    CLA22335   1.358   5.358   1.008  0.0908 -0.1591 -0.3146
  276CLA    CLA22336   4.723   2.686  12.014  0.1981 -0.3019 -0.5228
  277CLA    CLA22337   4.383   6.566   4.269  0.2955 -0.2651  0.3388
  278CLA    CLA22338   3.223   4.536   0.266  0.4236  0.1961 -0.3643
  279CLA    CLA22339   1.722   4.854   2.437 -0.3926 -0.2169 -0.3059
  280CLA    CLA22340   6.592   0.300   0.271 -0.1949  0.5426  0.2468
  281CLA    CLA22341   2.640   6.353   4.075  0.3837  0.2437  0.0399
  282CLA    CLA22342   4.280   1.046  13.995 -0.0155  0.6434  0.1064
  283CLA    CLA22343   4.344   2.524   5.760  0.0106  0.1268  0.2714
  284CLA    CLA22344   1.152   2.081   1.558  0.3433  0.1066  0.0635
  285CLA    CLA22345   4.199   0.796   5.787 -0.2142  0.4932  0.0430
  286CLA    CLA22346   0.855   4.687  13.959  0.0584 -0.4973 -0.0425
  287CLA    CLA22347   2.742   4.688   3.815 -0.4810  0.1212 -0.1689
  288CLA    CLA22348   0.531   4.387   3.736 -0.4163  0.0070  0.3181
  289CLA    CLA22349   5.299   4.400  15.080 -0.2090  0.2670  0.1057
  290CLA    CLA22350   4.567   4.985  16.066 -0.0671 -0.0799  0.2854
  291CLA    CLA22351   0.421   0.840   3.359 -0.0147 -0.0239 -0.0563
  292CLA    CLA22352   6.550   4.789  12.248 -0.0513 -0.2524 -0.1043
  293CLA    CLA22353   2.493   0.577  13.782  0.1788  0.1623 -0.0369
  294CLA    CLA22354   5.643   6.655  15.449 -0.1990 -0.0256 -0.3517
  295CLA    CLA22355   5.945   1.084   1.282 -0.2261  0.3279 -0.0483
  296CLA    CLA22356   3.177   3.080   5.288  0.2420 -0.1540  0.1163
  297CLA    CLA22357   4.699   5.767  17.454  0.3090 -0.3171 -0.3216
  298CLA    CLA22358   5.578   2.296   1.017  0.0099  0.6999  0.5914
  299CLA    CLA22359   2.962   6.705   1.479  0.0236  0.0478 -0.3809
  300CLA    CLA22360   5.840   5.119  15.987  0.0024 -0.0823 -0.4501
  301CLA    CLA22361   5.824   3.242  12.392 -0.2608 -0.0546 -0.0273
  302CLA    CLA22362   3.324   3.387   1.921  0.1551 -0.1658  0.0268
  303CLA    CLA22363   0.385   4.561  15.531  0.0947 -0.5201 -0.0490
  304CLA    CLA22364   5.655   2.309  15.635  0.2779  0.0402  0.0081
  305CLA    CLA22365   6.415   5.327   2.261  0.0102  0.0499 -0.0273
  306CLA    CLA22366   3.803   5.716  14.052  0.0299  0.4333 -0.2230
  307CLA    CLA22367   2.183   3.179   0.509  0.1991 -0.0616  0.0310
  308CLA    CLA22368   3.466   6.364   2.193 -0.0990  0.2380  0.2140
  309CLA    CLA22369   2.146   3.051  15.011 -0.0023  0.1287  0.1223
  310CLA    CLA22370   6.151   3.956   0.690  0.4704  0.1660 -0.0069
  311CLA    CLA22371   6.539   0.276  17.034  0.3454 -0.0482 -0.0183
  312CLA    CLA22372   3.202   0.553  15.189 -0.0434  0.2049 -0.1620
  313CLA    CLA22373   3.946   3.626  14.096 -0.4268 -0.0509  0.0750
  314CLA    CLA22374   0.660   1.305  17.107  0.2827  0.1481  0.8210
  315CLA    CLA22375   5.117   1.750   1.847  0.1310  0.0170  0.2062
  316CLA    CLA22376   4.294   1.077  15.458  0.1197  0.0069  0.4318
  317CLA    CLA22377   4.881   0.221   4.004 -0.1512 -0.0587 -0.0058
  318CLA    CLA22378   1.311   1.144   1.641  0.1842 -0.3977  0.1390
  319CLA    CLA22379   2.541   3.437  12.545 -0.0799 -0.1879  0.1070
  320CLA    CLA22380   5.470   2.304  13.044 -0.8907 -0.2134 -0.2755
  321CLA    CLA22381   2.515   3.339  17.020 -0.0616 -0.2231 -0.4064
  322CLA    CLA22382   0.546   4.613   4.895 -0.1814  0.1133 -0.5406
  323TIP3   OH222383   0.099   3.758   2.612 -0.4357 -0.0180  0.2744
  323TIP3    H122384   0.104   3.703   2.534 -1.3873  0.8515 -0.4241
  323TIP3    H222385   0.130   3.844   2.583  1.6696 -0.2834  1.5146
  324TIP3   OH222386   3.103   2.073  12.177 -0.2712 -0.4425 -0.1435
  324TIP3    H122387   3.137   1.990  12.143 -0.4590 -1.1559  1.3116
  324TIP3    H222388   3.007   2.065  12.170 -0.3155 -0.6181  0.5427
  325TIP3   OH222389   2.456   1.460  15.110  1.3580 -0.0981  0.2539
  325TIP3    H122390   2.433   1.391  15.048  0.5630 -0.2813  0.7361
  325TIP3    H222391   2.484   1.533  15.056  0.0387 -0.0147 -0.3661
  326TIP3   OH222392   5.485   3.740   6.296 -0.2637  0.1848  0.6637
  326TIP3    H122393   5.447   3.658   6.265 -0.5104 -0.0665  1.6065
  326TIP3    H222394   5.556   3.713   6.354  0.3901  0.6513  0.1068
  327TIP3   OH222395   6.333   4.553   2.705 -0.0823  0.7075 -0.3165
  327TIP3    H122396   6.326   4.647   2.720  0.8722  0.6569  0.5297
  327TIP3    H222397   6.245   4.527   2.679 -0.5258  1.7195  0.0928
  328TIP3   OH222398   1.883   5.040  11.636 -0.0017  0.6574  0.0949
  328TIP3    H122399   1.800   5.014  11.676 -0.0104 -0.0658 -0.3949
  328TIP3    H222400   1.887   4.991  11.554  0.4206  1.4882 -0.3892
  329TIP3   OH222401   1.143   2.357   2.418 -0.3276 -0.0681  1.0138
  329TIP3    H122402   1.067   2.373   2.361 -0.2081  0.3522  0.9706
  329TIP3    H222403   1.197   2.435   2.408 -0.9108  0.5982  2.6816
  330TIP3   OH222404   3.147   6.148   5.595 -0.1679 -0.0521 -0.3311
  330TIP3    H122405   3.070   6.094   5.581 -0.0544 -0.1164 -0.6989
  330TIP3    H222406   3.210   6.119   5.530  0.3145 -0.2694  0.2213
  331TIP3   OH222407   2.276   4.623   0.036  0.4961  0.1828 -0.6473
  331TIP3    H122408   2.191   4.600   0.074  1.1089  1.0781  1.4204
  331TIP3    H222409   2.340   4.578   0.092  1.4725  2.0932 -0.1541
  332TIP3   OH222410   4.380   2.225   4.530  0.5453 -0.3418  0.0711
  332TIP3    H122411   4.312   2.161   4.510 -0.9520  1.0515  0.4792
  332TIP3    H222412   4.417   2.248   4.444 -0.0591 -0.5356 -0.2484
  333TIP3   OH222413   4.380   2.933   2.956 -0.9484 -0.1741  0.1181
  333TIP3    H122414   4.448   2.982   2.911 -0.7043 -0.6065  0.0118
  333TIP3    H222415   4.299   2.960   2.913 -0.7442 -0.3875 -0.4073
  334TIP3   OH222416   1.287   0.569   3.756  0.5240  0.6124 -0.6107
  334TIP3    H122417   1.195   0.552   3.734  0.2701  0.8784  0.2021
  334TIP3    H222418   1.292   0.555   3.850  1.1067  1.5208 -0.4980
  335TIP3   OH222419   0.067   4.785   1.175  0.1650  0.1464  0.5270
  335TIP3    H122420   0.011   4.724   1.223 -0.5560  0.1744 -0.2679
  335TIP3    H222421   0.155   4.767   1.208 -0.0807 -1.1102  0.5389
  336TIP3   OH222422   5.708   3.766   4.694  0.5160  0.5016 -0.2691
  336TIP3    H122423   5.667   3.809   4.769  0.9277  1.2314 -0.4557
  336TIP3    H222424   5.692   3.673   4.709  1.4153  0.5506  1.2346
  337TIP3   OH222425   0.686   1.665  14.420  0.4239  0.1268  0.0897
  337TIP3    H122426   0.653   1.605  14.352 -0.5429  0.7293  0.0045
  337TIP3    H222427   0.609   1.715  14.447  1.0761  0.8512  0.6559
  338TIP3   OH222428   1.801   3.941   3.927 -0.5123  0.3391 -0.0351
  338TIP3    H122429   1.784   3.864   3.872 -0.9248  1.3057 -1.3061
  338TIP3    H222430   1.716   3.964   3.963 -0.3707  0.1669  0.4286
  339TIP3   OH222431   2.460   1.831   1.153  0.1965  0.4516 -0.5090
  339TIP3    H122432   2.553   1.838   1.176  0.0220 -0.1423  0.4254
  339TIP3    H222433   2.446   1.738   1.137 -0.7771  0.0951  1.9185
  340TIP3   OH222434   1.361   4.246  14.224 -0.5350  0.0270 -0.3019
  340TIP3    H122435   1.323   4.167  14.186 -0.1608 -0.1118 -0.3946
  340TIP3    H222436   1.303   4.316  14.196 -1.8407 -0.4179  1.1962
  341TIP3   OH222437   3.111   3.032   3.812 -0.3402 -0.3232  0.5151
  341TIP3    H122438   3.124   2.950   3.766 -0.0962 -1.1040  1.9156
  341TIP3    H222439   3.094   3.096   3.743 -0.3918 -1.5094 -0.6107
  342TIP3   OH222440   2.753   3.882  13.744  0.3116 -0.4617 -0.1457
  342TIP3    H122441   2.739   3.929  13.827 -0.3554 -0.4898 -0.2352
  342TIP3    H222442   2.696   3.806  13.750  2.2469 -1.9449  0.5011
  343TIP3   OH222443   6.095   2.528   0.674 -0.4265 -0.4526  0.1027
  343TIP3    H122444   6.056   2.486   0.750  0.2571 -2.0810 -0.4016
  343TIP3    H222445   6.158   2.590   0.710  0.4092 -1.7141  0.8871
  344TIP3   OH222446   3.724   6.363  11.490 -0.3072  0.0671  0.2817
  344TIP3    H122447   3.766   6.278  11.476 -1.1942 -0.3500  0.0338
  344TIP3    H222448   3.760   6.419  11.421 -0.2221 -0.3083  0.0134
  345TIP3   OH222449   1.208   3.677   4.913  0.0185  0.0066 -0.1836
  345TIP3    H122450   1.214   3.740   4.841 -0.0294 -1.3080 -1.3721
  345TIP3    H222451   1.267   3.712   4.980  0.1230  1.2166 -0.8778
  346TIP3   OH222452   3.447   2.992  11.603 -0.1583 -0.7401 -0.1773
  346TIP3    H122453   3.395   3.072  11.598 -0.2243 -0.8105 -0.6451
  346TIP3    H222454   3.430   2.947  11.520  1.2155 -0.4264 -0.6577
  347TIP3   OH222455   5.436   5.330  15.581 -0.1232 -0.1749  0.4175
  347TIP3    H122456   5.396   5.282  15.508  0.6963  0.0298 -0.1833
  347TIP3    H222457   5.513   5.278  15.604  0.2646  0.3694  0.3611
  348TIP3   OH222458   3.723   5.177   2.200 -0.4697  0.6602  0.3313
  348TIP3    H122459   3.814   5.156   2.180 -0.4138  2.5313 -1.7321
  348TIP3    H222460   3.728   5.262   2.245 -1.2471  2.3531 -2.5277
  349TIP3   OH222461   3.720   4.715   4.364 -0.1576  0.4816  0.3414
  349TIP3    H122462   3.753   4.721   4.275 -0.7091  0.7736  0.1560
  349TIP3    H222463   3.773   4.646   4.404 -0.9322 -0.7223 -0.6513
  350TIP3   OH222464   6.247   2.965   1.706  0.4757  0.8326 -0.1174
  350TIP3    H122465   6.162   2.942   1.668  0.0831 -0.5079  1.4429
  350TIP3    H222466   6.227   3.038   1.766 -0.2693 -1.4658  2.6288
  351TIP3   OH222467   1.437   5.987  16.930 -0.0790 -0.3518 -0.4295
  351TIP3    H122468   1.454   5.902  16.891 -2.3911 -1.0211 -0.1747
  351TIP3    H222469   1.493   5.990  17.007  1.2963 -0.8807 -1.3812
  352TIP3   OH222470   2.552   2.476   6.298 -0.1489 -0.4171 -0.1980
  352TIP3    H122471   2.501   2.400   6.270 -1.6772 -0.0013  1.2883
  352TIP3    H222472   2.614   2.441   6.363  0.8329 -0.7602 -1.2904
  353TIP3   OH222473   6.677   4.004   3.211 -0.7266 -0.0828 -0.0918
  353TIP3    H122474   6.727   4.051   3.277 -0.9201 -0.6494  0.4791
  353TIP3    H222475   6.639   4.072   3.156  0.2643  0.3677 -0.2394
  354TIP3   OH222476   4.883   2.871  15.202  0.5662 -0.0031 -0.3007
  354TIP3    H122477   4.848   2.863  15.113  0.3839 -0.2871 -0.2043
  354TIP3    H222478   4.971   2.835  15.197  0.3546 -0.5344 -0.2429
  355TIP3   OH222479   5.093   3.344   5.309 -0.3777  0.1305  0.3023
  355TIP3    H122480   5.187   3.346   5.293 -0.4834  1.0785 -0.2680
  355TIP3    H222481   5.065   3.259   5.278  0.1822  0.1141 -0.1754
  356TIP3   OH222482   0.323   5.791   2.524 -0.6193 -0.4722  0.0046
  356TIP3    H122483   0.347   5.782   2.432  2.0707 -2.5815  0.7885
  356TIP3    H222484   0.342   5.883   2.544  0.7602 -0.4757 -1.0797
  357TIP3   OH222485   5.358   2.295   3.057  0.2077 -0.1648 -0.5170
  357TIP3    H122486   5.298   2.369   3.057  0.5931  0.1533 -0.3387
  357TIP3    H222487   5.385   2.285   2.966  1.2332  0.8108 -0.3414
  358TIP3   OH222488   2.604   1.168  13.792  0.2164 -0.3656  0.1795
  358TIP3    H122489   2.683   1.177  13.740  1.2781 -0.0599  1.7634
  358TIP3    H222490   2.587   1.074  13.794  0.1430 -0.3816 -0.6953
  359TIP3   OH222491   1.078   4.925   0.134  1.1593  0.6250 -0.0521
  359TIP3    H122492   1.011   4.964   0.191  0.8288 -0.3883  0.2751
  359TIP3    H222493   1.158   4.926   0.187  1.1795  0.9377 -0.0842
  360TIP3   OH222494   5.779   1.849  15.680 -0.1717  0.5011  0.1262
  360TIP3    H122495   5.868   1.880  15.664 -0.0550 -0.2258 -0.6913
  360TIP3    H222496   5.743   1.834  15.593 -1.4774  1.8137  0.4007
  361TIP3   OH222497   4.142   4.365   3.133  0.4094  0.8457  0.2738
  361TIP3    H122498   4.173   4.322   3.212 -1.8226  1.1511  1.3930
  361TIP3    H222499   4.066   4.415   3.161 -0.3901  1.0524 -2.0470
  362TIP3   OH222500   3.880   5.428   4.122 -0.4166  0.4048  0.1468
  362TIP3    H122501   3.797   5.460   4.157 -0.4233  0.9023 -0.3126
  362TIP3    H222502   3.947   5.477   4.169 -0.4285  1.1642 -0.6057
  363TIP3   OH222503   2.278   5.088  16.563 -0.1326  0.3191  0.2047
  363TIP3    H122504   2.207   5.055  16.618  0.4955  2.2612  2.3672
  363TIP3    H222505   2.332   5.011  16.544 -0.9729 -0.6038  1.4350
  364TIP3   OH222506   2.577   2.705   0.094  0.3217  0.2337 -0.6914
  364TIP3    H122507   2.542   2.693   0.183  3.5557 -0.5017  0.6160
  364TIP3    H222508   2.521   2.651   0.039  0.6269 -2.6691  1.6025
  365TIP3   OH222509   3.640   3.695  10.674  0.5466 -0.7593 -0.1128
  365TIP3    H122510   3.658   3.680  10.581  1.3319  0.5824 -0.2081
  365TIP3    H222511   3.623   3.789  10.680 -0.8968 -1.0604  0.8996
  366TIP3   OH222512   4.840   0.045  15.571 -0.4842  0.0069 -0.2417
  366TIP3    H122513   4.855   0.042  15.477  0.5694 -1.6430 -0.0580
  366TIP3    H222514   4.925   0.071  15.607 -0.3765 -1.0639  0.3261
  367TIP3   OH222515   0.846   1.960   4.185 -0.2065  0.2609  0.3406
  367TIP3    H122516   0.828   2.047   4.151 -1.3434  0.2425  0.8369
  367TIP3    H222517   0.831   1.901   4.110 -0.1916  0.4295  0.2049
  368TIP3   OH222518   3.133   0.818  12.902  0.2139 -0.5418  0.0246
  368TIP3    H122519   3.227   0.837  12.898  0.4611 -1.4421  1.1491
  368TIP3    H222520   3.112   0.783  12.816  0.9474 -0.5185 -0.1712
  369TIP3   OH222521   0.793   6.172   2.835 -0.0309  0.0185 -0.3644
  369TIP3    H122522   0.840   6.237   2.782 -0.2111 -0.4393 -1.1098
  369TIP3    H222523   0.716   6.150   2.782 -0.5805  0.0484  0.4084
  370TIP3   OH222524   4.177   4.240  16.986 -1.0196  0.2805 -0.0915
  370TIP3    H122525   4.207   4.223  16.897 -0.9907  0.0297 -0.0334
  370TIP3    H222526   4.082   4.243  16.980 -0.9939  2.5761 -0.5685
  371TIP3   OH222527   3.011   5.550   2.369  0.2806  0.5385  0.4418
  371TIP3    H122528   3.099   5.585   2.356 -0.1139  0.9614 -1.4163
  371TIP3    H222529   2.954   5.627   2.359 -0.5339 -0.3176 -2.7212
  372TIP3   OH222530   3.094   3.939   2.015 -0.2149  0.7053  1.0456
  372TIP3    H122531   3.177   3.904   1.982 -0.5884  2.5226 -2.2324
  372TIP3    H222532   3.037   3.863   2.021  0.8952 -0.1954  0.6097
  373TIP3   OH222533   3.911   4.402  17.259 -0.0818  0.4103 -0.1213
  373TIP3    H122534   3.952   4.488  17.268 -0.9321  0.8820 -0.6137
  373TIP3    H222535   3.817   4.421  17.258 -0.2642 -0.2186 -3.0436
  374TIP3   OH222536   0.020   4.793   6.141  0.1646 -0.2946  0.1784
  374TIP3    H122537  -0.012   4.739   6.213  0.6049 -1.6760 -0.6188
  374TIP3    H222538   0.079   4.856   6.182  1.1755 -1.6871  0.9428
  375TIP3   OH222539   3.793   1.313   4.425  0.0780 -0.0144  0.1964
  375TIP3    H122540   3.885   1.326   4.449 -0.3822  1.5922  1.2662
  375TIP3    H222541   3.756   1.401   4.422 -2.0366 -0.7093  2.4529
  376TIP3   OH222542   1.826   4.148  16.906 -0.7383  0.0478 -0.1937
  376TIP3    H122543   1.783   4.128  16.988 -2.2235 -0.0318 -0.9675
  376TIP3    H222544   1.778   4.223  16.871  0.8667  1.0963 -0.2586
  377TIP3   OH222545   5.094   3.350  15.980  0.1785 -0.3363 -0.1018
  377TIP3    H122546   5.074   3.313  16.066 -1.9133 -1.7607 -1.1129
  377TIP3    H222547   5.026   3.416  15.966  1.1611  0.6706 -0.2220
  378TIP3   OH222548   1.718   6.217  16.084  0.0179 -0.2950  0.4248
  378TIP3    H122549   1.695   6.131  16.120  1.0108 -0.9910 -0.5391
  378TIP3    H222550   1.719   6.275  16.160 -1.4431 -0.9491  0.9809
  379TIP3   OH222551   0.805   3.863  15.532  0.2368 -0.1936  0.0168
  379TIP3    H122552   0.775   3.816  15.610 -1.6537 -1.9588 -1.6752
  379TIP3    H222553   0.901   3.855  15.536  0.1795 -0.4209  2.0228
  380TIP3   OH222554   5.226   2.525  16.125 -0.0995  0.5644  0.2025
  380TIP3    H122555   5.261   2.607  16.090  1.5231 -0.7243 -1.2964
  380TIP3    H222556   5.292   2.459  16.106 -2.1845 -1.5057 -0.3946
  381TIP3   OH222557   2.571   3.136  13.053  0.7240  0.0408  0.5198
  381TIP3    H122558   2.552   3.043  13.048 -0.4600  0.3145 -2.5232
  381TIP3    H222559   2.663   3.144  13.029  0.7419 -0.3389  0.4665
  382TIP3   OH222560   3.757   1.104  14.107 -0.0315 -0.1591 -0.0356
  382TIP3    H122561   3.730   1.058  14.187  1.4769  0.3723  0.8096
  382TIP3    H222562   3.736   1.196  14.125 -1.2625 -0.2444 -0.9543
  383TIP3   OH222563   3.266   6.652   1.755 -0.1045 -0.4204 -0.1892
  383TIP3    H122564   3.227   6.731   1.792 -0.6664 -0.1634 -1.2791
  383TIP3    H222565   3.280   6.595   1.831 -0.5579  0.3479  0.4990
  384TIP3   OH222566   0.769   2.912   5.894  0.6003 -0.1222 -0.4406
  384TIP3    H122567   0.726   2.859   5.828  1.5613 -0.8259 -0.5218
  384TIP3    H222568   0.698   2.953   5.943 -0.3165 -3.5997  1.4314
  385TIP3   OH222569   3.845   0.192  16.412  0.3411  0.1456  0.2125
  385TIP3    H122570   3.834   0.275  16.458 -0.2496 -0.2017  0.7112
  385TIP3    H222571   3.940   0.181  16.405  0.5169 -0.4468  2.5865
  386TIP3   OH222572   0.848   4.526   4.198 -0.0779 -0.5979  0.3622
  386TIP3    H122573   0.790   4.483   4.135  0.1830 -0.5443  0.0810
  386TIP3    H222574   0.836   4.477   4.279  1.4191 -2.2405 -0.3589
  387TIP3   OH222575   5.161   1.460  13.819  0.0154  0.1829  0.0362
  387TIP3    H122576   5.111   1.386  13.854 -0.4824  0.6070  0.2389
  387TIP3    H222577   5.134   1.535  13.873  0.5712  0.5013 -0.1139
  388TIP3   OH222578   0.617   4.435  12.653  0.4396  0.5243 -0.3659
  388TIP3    H122579   0.668   4.507  12.692  0.6687 -1.1353  2.7128
  388TIP3    H222580   0.536   4.432  12.705  1.5746 -3.0061  1.5239
  389TIP3   OH222581   2.562   0.265  14.287 -0.1092  0.0448  0.2187
  389TIP3    H122582   2.618   0.305  14.354 -0.5294  0.1487  0.5205
  389TIP3    H222583   2.513   0.198  14.335 -0.7019  0.3890  0.1053
  390TIP3   OH222584   0.485   0.504  13.123 -0.2297 -0.0754 -0.3909
  390TIP3    H122585   0.464   0.429  13.177  0.3023  0.7194  0.9664
  390TIP3    H222586   0.446   0.484  13.038 -1.0579 -1.3670  0.2627
  391TIP3   OH222587   5.959   4.540  11.322 -0.1134  0.4389 -0.3196
  391TIP3    H122588   5.958   4.506  11.233  1.7799 -1.6895  0.3920
  391TIP3    H222589   5.911   4.474  11.373  0.6898  0.5343  0.5726
  392TIP3   OH222590   5.816   1.702   2.314 -0.6933  0.1907  0.1683
  392TIP3    H122591   5.800   1.740   2.400  0.8540  1.3545 -0.0095
  392TIP3    H222592   5.874   1.765   2.270 -0.1607 -1.1412 -1.1281
  393TIP3   OH222593   5.013   2.453  15.936  0.7192  0.2438 -0.3472
  393TIP3    H122594   5.069   2.479  16.010  0.3850  0.8180 -0.2860
  393TIP3    H222595   4.954   2.528  15.924 -1.5545 -1.2080  1.0458
  394TIP3   OH222596   1.376   2.416  12.632 -0.0235 -0.6745  0.1058
  394TIP3    H122597   1.411   2.435  12.719  3.2332 -0.4513 -1.0825
  394TIP3    H222598   1.418   2.481  12.575 -2.3789 -0.5421 -1.6289
  395TIP3   OH222599   4.678   4.854  10.738 -0.5162  0.5105 -0.0249
  395TIP3    H122600   4.744   4.806  10.687  0.8004  2.4059 -0.2188
  395TIP3    H222601   4.660   4.932  10.685  0.7021  2.4265  2.2353
  396TIP3   OH222602   4.348   6.332  15.082  0.2606 -0.1460  0.2813
  396TIP3    H122603   4.282   6.269  15.110  0.0982 -0.0329  0.1546
  396TIP3    H222604   4.369   6.307  14.992  0.9397 -0.6414  0.5710
  397TIP3   OH222605   5.624   2.675   1.299 -0.3544  0.3018  0.2745
  397TIP3    H122606   5.576   2.622   1.236 -0.1030 -0.5878  0.8097
  397TIP3    H222607   5.714   2.675   1.267 -0.5035  1.1533 -0.1943
  398TIP3   OH222608   1.413   3.810   5.559 -0.8241  0.3905  0.9567
  398TIP3    H122609   1.459   3.789   5.478  0.6808  0.5529  1.7321
  398TIP3    H222610   1.404   3.905   5.557  2.2321  0.8505  2.4210
  399TIP3   OH222611   1.226   2.912   2.764 -0.6995  0.4298  0.7996
  399TIP3    H122612   1.290   2.873   2.823  0.2473 -0.1719 -0.5630
  399TIP3    H222613   1.264   2.996   2.739  1.6565 -1.4476 -2.9936
  400TIP3   OH222614   5.843   4.788  11.251  0.5952 -0.0308  0.0180
  400TIP3    H122615   5.913   4.724  11.240 -0.4011 -1.0064 -0.8683
  400TIP3    H222616   5.767   4.749  11.208  0.4712  2.6032 -2.4853
  401TIP3   OH222617   4.957   2.689  13.053 -0.2793  0.2149  0.2112
  401TIP3    H122618   4.901   2.729  12.987 -0.9269  1.2512  1.3457
  401TIP3    H222619   5.046   2.715  13.029 -0.5572  1.0112  0.0194
  402TIP3   OH222620   1.806   0.883   2.938  0.7025  0.8009  0.2353
  402TIP3    H122621   1.847   0.817   2.883 -0.2675 -1.4226  1.9835
  402TIP3    H222622   1.861   0.885   3.017 -1.3705 -0.8948  1.8362
  403TIP3   OH222623   4.644   4.928   0.614 -0.1681 -0.0407 -0.2305
  403TIP3    H122624   4.572   4.941   0.552 -1.1179  0.4658  0.9291
  403TIP3    H222625   4.710   4.992   0.588 -0.8340  0.6237 -0.3318
  404TIP3   OH222626   3.509   5.008   1.175 -0.0183  0.0177  0.0918
  404TIP3    H122627   3.454   4.934   1.200  0.5914 -0.1449  1.0314
  404TIP3    H222628   3.598   4.978   1.194  0.2616  0.8405  0.1040
  405TIP3   OH222629   0.221   5.189   0.095  0.8790 -0.1668 -0.0605
  405TIP3    H122630   0.269   5.107   0.105  0.7248 -0.3485 -0.7440
  405TIP3    H222631   0.130   5.167   0.114  0.9580  0.0396  0.5992
  406TIP3   OH222632   6.311   0.109  16.881  0.2279 -0.3611 -0.0843
  406TIP3    H122633   6.269   0.165  16.816  0.6163  0.6090  0.4758
  406TIP3    H222634   6.380   0.164  16.919 -0.2137 -0.7830  1.3942
  407TIP3   OH222635   2.426   3.694  16.450 -0.2487 -0.1011  0.2463
  407TIP3    H122636   2.423   3.672  16.357 -0.5533 -0.5826  0.3693
  407TIP3    H222637   2.363   3.765  16.459  2.0181  2.1716 -0.4902
  408TIP3   OH222638   3.241   2.060   4.070 -0.1252 -0.1988 -0.0673
  408TIP3    H122639   3.158   2.103   4.048 -0.3341  0.5108  1.8587
  408TIP3    H222640   3.214   1.982   4.118  0.3187 -0.5654 -0.4056
  409TIP3   OH222641   0.217   4.554  16.991 -0.6335 -0.3776  0.5889
  409TIP3    H122642   0.309   4.553  17.017 -0.7876 -3.1407  1.3340
  409TIP3    H222643   0.212   4.622  16.924  1.6379  0.8163  1.5096
  410TIP3   OH222644   0.213   0.644   3.672  0.3483  0.3525  0.1974
  410TIP3    H122645   0.227   0.561   3.718  3.9546  0.0758 -1.0451
  410TIP3    H222646   0.302   0.677   3.656 -0.7864  2.1469 -3.4000
  411TIP3   OH222647   4.439   4.161   5.482  0.3609  0.5806 -0.1566
  411TIP3    H122648   4.364   4.220   5.492  0.2683  0.3771  0.3544
  411TIP3    H222649   4.447   4.116   5.566  1.2951  0.8788 -0.0642
  412TIP3   OH222650   5.614   3.630  12.458 -0.0158 -0.2298 -0.0798
  412TIP3    H122651   5.521   3.629  12.482  0.3216 -0.8212  1.3135
  412TIP3    H222652   5.617   3.592  12.370 -1.0970 -0.1072 -0.1830
  413TIP3   OH222653   5.813   6.477   3.757 -0.1511  0.1341  0.2708
  413TIP3    H122654   5.894   6.510   3.795  0.4028 -0.9570  0.0870
  413TIP3    H222655   5.752   6.472   3.831 -0.0950  1.0356  0.3934
  414TIP3   OH222656   5.799   2.516  15.482 -0.1619 -0.1570 -0.0376
  414TIP3    H122657   5.808   2.475  15.396 -2.0336 -1.3246  0.2520
  414TIP3    H222658   5.740   2.458  15.530  0.8552  0.4473  2.0700
  415TIP3   OH222659   2.878   6.184   2.055  0.0208  0.0228  0.0728
  415TIP3    H122660   2.863   6.279   2.061 -0.3710 -0.0849  0.8930
  415TIP3    H222661   2.967   6.172   2.088  0.8525  0.3151 -1.9230
  416TIP3   OH222662   4.067   4.979   3.392  0.1592 -0.5509 -0.2386
  416TIP3    H122663   4.035   4.908   3.447  0.6591  1.0766  2.3769
  416TIP3    H222664   3.988   5.022   3.359 -0.2022 -0.8461  0.2396
  417TIP3   OH222665   4.142   2.883  16.357  0.2217 -0.4621 -0.0526
  417TIP3    H122666   4.057   2.877  16.313 -0.3248 -0.8574  1.0377
  417TIP3    H222667   4.202   2.835  16.299 -0.1893  0.2036 -1.0555
  418TIP3   OH222668   5.349   4.388  16.836 -0.5796 -0.0471  0.0876
  418TIP3    H122669   5.292   4.464  16.845 -0.3325 -0.0064  1.6182
  418TIP3    H222670   5.436   4.420  16.857  0.0247 -0.1384 -2.1186
  419TIP3   OH222671   2.426   2.522   6.036  0.1134 -0.6793 -0.7071
  419TIP3    H122672   2.494   2.492   6.097  1.8991 -0.1793 -2.3391
  419TIP3    H222673   2.417   2.450   5.973 -1.6781 -1.1766  0.0788
  420TIP3   OH222674   0.533   6.217  16.773  0.0838 -0.0341  0.6068
  420TIP3    H122675   0.463   6.154  16.790  1.7154 -2.6960 -1.6914
  420TIP3    H222676   0.514   6.251  16.686 -0.6376  2.6122  1.7225
  421TIP3   OH222677   6.736   5.765  12.689  0.1504 -0.2222  0.2334
  421TIP3    H122678   6.730   5.678  12.650 -2.6385 -0.7569  1.5830
  421TIP3    H222679   6.704   5.824  12.621  0.7821 -0.3846 -0.2189
  422TIP3   OH222680   3.174   4.714   4.694  0.0806 -0.1211 -0.3571
  422TIP3    H122681   3.101   4.706   4.755 -1.4453  1.8000 -1.8126
  422TIP3    H222682   3.225   4.634   4.707 -0.2431  0.1180  3.2496
  423TIP3   OH222683   6.285   4.692   5.648 -0.4856 -0.2291 -0.3711
  423TIP3    H122684   6.265   4.691   5.742  1.0252 -0.2490 -0.0181
  423TIP3    H222685   6.218   4.748   5.610 -0.0985  1.2638  1.0045
  424TIP3   OH222686   4.755   2.977  16.507  0.0258 -0.3815  0.1905
  424TIP3    H122687   4.683   3.031  16.540  0.0864  0.2683 -0.6963
  424TIP3    H222688   4.826   2.990  16.569 -0.0703  0.3057  0.1552
  425TIP3   OH222689   2.678   3.485  15.199 -0.8025 -0.0752  0.3967
  425TIP3    H122690   2.608   3.455  15.142 -0.2968  1.3830 -1.0801
  425TIP3    H222691   2.668   3.581  15.200  0.1437  0.0244  1.5114
  426TIP3   OH222692   4.507   3.601  14.183 -0.8423  0.2612  0.4003
  426TIP3    H122693   4.526   3.528  14.124  1.7629  1.6455 -0.6405
  426TIP3    H222694   4.440   3.567  14.243  0.4787 -3.0803  0.1785
  427TIP3   OH222695   0.935   2.104   6.462  0.6647  0.5446  0.3898
  427TIP3    H122696   1.020   2.070   6.433  0.1269 -1.3917  0.9719
  427TIP3    H222697   0.903   2.039   6.524 -1.4572  1.0161 -0.1443
  428TIP3   OH222698   4.224   5.499  15.650 -0.1468 -0.1326 -0.0849
  428TIP3    H122699   4.302   5.446  15.664 -0.0271  0.7789  3.9934
  428TIP3    H222700   4.151   5.439  15.663 -0.1496 -0.4539 -1.4202
  429TIP3   OH222701   2.112   4.523  15.826 -0.3887  0.0740 -0.2723
  429TIP3    H122702   2.173   4.593  15.805  0.4936 -0.6556 -0.1965
  429TIP3    H222703   2.066   4.506  15.744  0.6366 -0.4422 -0.7528
  430TIP3   OH222704   6.545   2.222   0.598 -0.7542  0.1793 -0.1677
  430TIP3    H122705   6.532   2.309   0.634  3.1101  0.8611  0.0535
  430TIP3    H222706   6.531   2.163   0.672  1.5988  1.1350  1.1778
  431TIP3   OH222707   5.391   3.409   3.020 -0.2332  0.3770 -1.0456
  431TIP3    H122708   5.398   3.367   2.934  0.7907  0.2259 -0.8959
  431TIP3    H222709   5.335   3.350   3.070  0.0509 -0.0946 -1.2751
  432TIP3   OH222710   1.106   2.462   3.052 -0.2802 -0.6517 -0.3128
  432TIP3    H122711   1.077   2.469   2.962  1.0707 -1.7843 -0.8872
  432TIP3    H222712   1.139   2.549   3.074  0.7231 -0.7259 -1.4280
  433TIP3   OH222713   0.121   1.151   1.545  0.1759  0.4312 -0.2984
  433TIP3    H122714   0.031   1.138   1.577  0.0312 -0.5334 -1.0634
  433TIP3    H222715   0.169   1.075   1.578  1.1302  1.7196  1.4610
  434TIP3   OH222716   2.460   5.273  16.661  0.5807 -0.0752  0.0358
  434TIP3    H122717   2.536   5.269  16.603 -0.6462  2.1732 -1.9300
  434TIP3    H222718   2.394   5.219  16.617 -0.1324  1.0798 -0.3731
  435TIP3   OH222719   5.108   2.780   2.879 -0.0170 -0.9221  0.3811
  435TIP3    H122720   5.199   2.804   2.864 -0.1761 -1.5185 -1.9388
  435TIP3    H222721   5.059   2.861   2.868  0.1080 -0.8731  0.1879
  436TIP3   OH222722   3.570   0.584   5.048  0.0833 -0.3184  0.5522
  436TIP3    H122723   3.484   0.614   5.018  0.6608  1.6349  0.6905
  436TIP3    H222724   3.611   0.663   5.085  2.3437 -0.9327 -0.4850
  437TIP3   OH222725   2.806   1.002   5.074  0.2586  0.0316  0.1747
  437TIP3    H122726   2.838   1.076   5.124 -3.9335  1.6308  0.8846
  437TIP3    H222727   2.775   0.940   5.140 -0.6753 -0.1298 -0.3929
  438TIP3   OH222728   4.117   6.250  11.453  0.0939  0.5758 -0.3071
  438TIP3    H122729   4.142   6.312  11.523 -1.1028 -0.2628  0.9107
  438TIP3    H222730   4.158   6.286  11.374  1.6097  1.4914  0.8311
  439TIP3   OH222731   2.265   5.726   3.582  0.4669  0.5545  0.3452
  439TIP3    H122732   2.286   5.635   3.604  0.1831 -0.1860 -2.1806
  439TIP3    H222733   2.171   5.733   3.594  0.1620 -0.1289 -1.4377
  440TIP3   OH222734   4.260   2.322  17.470  0.4873  0.5798 -0.1262
  440TIP3    H122735   4.340   2.320  17.523  0.6611  0.1244 -0.3952
  440TIP3    H222736   4.191   2.346  17.532  0.7467  0.4297  0.2280
  441TIP3   OH222737   1.169   1.033  14.688 -0.2429 -0.2992  0.0300
  441TIP3    H122738   1.199   1.110  14.737  0.4821 -0.5959  0.0752
  441TIP3    H222739   1.249   0.999  14.647 -0.2404 -1.9100  1.2420
  442TIP3   OH222740   2.941   0.004  14.517 -0.0872 -0.4412 -0.0248
  442TIP3    H122741   2.976   0.086  14.481  0.5144 -0.1707  1.1269
  442TIP3    H222742   2.908   0.028  14.604  0.6467 -1.5371  0.5806
  443TIP3   OH222743   3.883   5.977  14.845  0.8355  0.0917  0.4632
  443TIP3    H122744   3.915   5.930  14.768  1.8297  1.2556  0.1275
  443TIP3    H222745   3.934   5.941  14.918 -0.2423 -1.1483  0.6392
  444TIP3   OH222746   1.795   2.615   3.241 -0.0694 -0.0378 -0.5141
  444TIP3    H122747   1.782   2.657   3.326 -0.3504 -2.1707  0.5676
  444TIP3    H222748   1.725   2.649   3.186 -1.0683 -0.0702  0.7059
  445TIP3   OH222749   2.648   3.117   5.167  0.0652  0.3770  0.4831
  445TIP3    H122750   2.632   3.211   5.162  0.9021  0.5320  0.6975
  445TIP3    H222751   2.680   3.093   5.080  0.9136  0.4970  0.7545
  446TIP3   OH222752   5.180   2.225  15.929 -0.2456 -0.1824  0.6055
  446TIP3    H122753   5.250   2.266  15.879  0.9478 -1.7045  0.9357
  446TIP3    H222754   5.112   2.292  15.936  0.4241  0.7422 -1.2480
  447TIP3   OH222755   5.817   2.384   3.685 -0.2019  0.2736 -0.1175
  447TIP3    H122756   5.802   2.371   3.778 -1.1862 -1.6191 -0.4886
  447TIP3    H222757   5.911   2.402   3.678  0.0805 -0.5987  1.1452
  448TIP3   OH222758   5.462   3.232  14.662 -0.3412 -0.6250 -0.1595
  448TIP3    H122759   5.464   3.281  14.579  1.8979 -1.7794 -0.8671
  448TIP3    H222760   5.523   3.278  14.719 -0.3983 -0.9490  0.1712
  449TIP3   OH222761   3.649   0.378   1.267  0.2835  0.2175 -0.4899
  449TIP3    H122762   3.571   0.376   1.323  1.0308 -1.3343  0.5419
  449TIP3    H222763   3.706   0.442   1.309  0.3311 -0.0228 -0.1870
  450TIP3   OH222764   3.738   1.598  16.422  0.1270 -0.3129  0.0526
  450TIP3    H122765   3.673   1.528  16.423 -0.3237 -0.0329 -2.7198
  450TIP3    H222766   3.823   1.553  16.418 -0.0494 -0.6691  0.2838
  451TIP3   OH222767   3.607   2.982  17.349 -0.3987 -0.7852  0.1341
  451TIP3    H122768   3.570   2.896  17.366  0.1963 -0.9321  0.7219
  451TIP3    H222769   3.542   3.026  17.294 -0.3422 -1.8923 -0.8517
  452TIP3   OH222770   1.855   1.623   0.793  0.1334  0.0468  0.2225
  452TIP3    H122771   1.914   1.668   0.854  0.7829  0.1094 -0.4348
  452TIP3    H222772   1.910   1.558   0.750  0.0632  0.9377 -1.2988
  453TIP3   OH222773   5.036   4.753  11.615 -0.1975  0.5661 -0.4412
  453TIP3    H122774   4.943   4.733  11.602  0.1394 -0.0901 -2.2251
  453TIP3    H222775   5.050   4.832  11.562  0.2332  0.7586 -0.0443
  454TIP3   OH222776   4.633   3.416   3.110 -0.1659  0.1218 -0.3284
  454TIP3    H122777   4.595   3.426   3.198 -0.0041 -2.2340  0.0790
  454TIP3    H222778   4.559   3.389   3.055 -0.0870  0.6999 -0.7269
  455TIP3   OH222779   1.226   2.712   3.056  0.0257 -0.1878  0.4964
  455TIP3    H122780   1.147   2.757   3.084  0.5457  1.2676 -0.2835
  455TIP3    H222781   1.289   2.782   3.039  1.2811 -1.2789  0.4808
  456TIP3   OH222782   3.022   0.898  14.529 -0.2829 -0.1781 -0.0525
  456TIP3    H122783   3.038   0.978  14.480  0.6670 -0.1371  0.3075
  456TIP3    H222784   3.037   0.923  14.620  1.2706 -1.0601 -0.0451
  457TIP3   OH222785   4.883   0.349  13.372 -0.1718 -0.6054 -0.1519
  457TIP3    H122786   4.902   0.367  13.280 -1.2043  0.2587 -0.2127
  457TIP3    H222787   4.864   0.256  13.375  1.0804 -0.8996 -0.5831
  458TIP3   OH222788   0.673   4.195   0.968 -0.6950 -0.1648  0.3567
  458TIP3    H122789   0.656   4.202   1.062  0.9942  0.0290  0.6803
  458TIP3    H222790   0.765   4.220   0.959 -1.2559  1.4195 -1.5636
  459TIP3   OH222791   4.437   4.442   5.563 -0.4299  0.1962 -0.2616
  459TIP3    H122792   4.367   4.428   5.626 -1.1808 -0.3238 -1.1720
  459TIP3    H222793   4.516   4.451   5.616 -0.9722 -0.6502  0.7315
  460TIP3   OH222794   1.700   1.906  12.502 -0.7310 -0.1838 -0.5928
  460TIP3    H122795   1.732   1.991  12.534  0.9730 -1.4188  1.2176
  460TIP3    H222796   1.729   1.843  12.568 -0.8821 -2.3541 -2.4784
  461TIP3   OH222797   6.076   0.127   4.900 -0.2685 -0.2186 -0.1932
  461TIP3    H122798   6.037   0.189   4.961 -0.3336 -0.5144  0.0651
  461TIP3    H222799   6.025   0.137   4.820 -1.6015 -1.3652  0.4579
  462TIP3   OH222800   6.716   5.210   0.397  0.5463 -0.5718  0.4130
  462TIP3    H122801   6.652   5.267   0.441  1.1467 -0.7875  1.5905
  462TIP3    H222802   6.796   5.218   0.449  0.7630 -2.1821  0.3762
  463TIP3   OH222803   6.282   0.963  14.419 -0.0301 -0.2080 -0.4120
  463TIP3    H122804   6.280   1.025  14.493  0.8611  0.8338 -1.2245
  463TIP3    H222805   6.247   0.881  14.455  1.5366 -0.0974  1.5170
  464TIP3   OH222806   2.282   5.878  12.536 -0.6724 -0.0582  0.3023
  464TIP3    H122807   2.281   5.782  12.530  0.3035  0.0035 -1.9369
  464TIP3    H222808   2.192   5.901  12.561 -0.7262 -1.5575  1.6556
  465TIP3   OH222809   6.487   0.478  11.461  0.0537 -0.0798  0.1980
  465TIP3    H122810   6.395   0.493  11.437 -0.0929 -0.8999  0.1975
  465TIP3    H222811   6.530   0.458  11.378  0.0299 -0.6304  0.3126
  466TIP3   OH222812   3.735   4.124  13.540 -0.5962 -0.2663 -0.4554
  466TIP3    H122813   3.802   4.059  13.559 -1.9214 -1.9548 -1.3285
  466TIP3    H222814   3.657   4.093  13.587 -1.4581  0.2863 -1.4731
  467TIP3   OH222815   0.137   2.460  13.935  0.4582 -0.3490 -0.2166
  467TIP3    H122816   0.191   2.493  13.863 -0.2585  1.7475  0.1369
  467TIP3    H222817   0.047   2.471  13.905  0.0538  2.4546  1.6526
  468TIP3   OH222818   6.415   4.595   3.266 -0.1097  0.0769  0.0270
  468TIP3    H122819   6.487   4.540   3.297 -0.5264 -1.5108 -1.6454
  468TIP3    H222820   6.361   4.536   3.213 -1.4923  1.7288 -0.4911
  469TIP3   OH222821   1.482   0.724   0.667 -0.2911  0.4859 -0.7969
  469TIP3    H122822   1.428   0.746   0.743 -0.7994 -0.6985 -0.7803
  469TIP3    H222823   1.473   0.629   0.659  2.1184  0.1720 -0.5579
  470TIP3   OH222824   5.998   4.702   4.270  0.4123  0.2983  0.1036
  470TIP3    H122825   5.919   4.733   4.227  1.6650  3.6987 -0.0373
  470TIP3    H222826   5.995   4.742   4.357  0.9426 -1.3497  0.9226
  471TIP3   OH222827   1.498   2.167  11.589  0.0167 -0.1405  0.4489
  471TIP3    H122828   1.408   2.134  11.595 -0.4283  1.1230  0.9712
  471TIP3    H222829   1.553   2.088  11.598 -1.0306 -1.0248 -0.6536
  472TIP3   OH222830   3.138   5.966   0.714 -0.5854 -0.3093 -0.5354
  472TIP3    H122831   3.051   5.995   0.741 -0.3533 -0.3677  0.2884
  472TIP3    H222832   3.152   6.009   0.629 -1.7736 -1.0083 -1.1134
  473TIP3   OH222833   0.125   4.922  10.993  0.1464  0.3621 -0.0288
  473TIP3    H122834   0.177   4.989  10.949  0.6152 -0.9980 -1.6483
  473TIP3    H222835   0.076   4.879  10.923 -0.5572 -0.6338  1.0307
  474TIP3   OH222836   1.411   0.644   1.677  0.6239 -0.3329 -0.0334
  474TIP3    H122837   1.491   0.666   1.628  0.4139 -0.5059 -0.4600
  474TIP3    H222838   1.398   0.719   1.736  2.0876 -1.1030  1.3364
  475TIP3   OH222839   1.689   6.470  12.555 -0.1953 -0.1193 -0.6583
  475TIP3    H122840   1.754   6.538  12.543  1.3011 -1.5608 -1.1309
  475TIP3    H222841   1.740   6.389  12.566 -1.8971 -1.2993 -0.9656
  476TIP3   OH222842   0.688   3.534   1.056  0.3511 -0.0691 -0.0791
  476TIP3    H122843   0.619   3.539   0.990  0.4533 -0.0859 -0.1889
  476TIP3    H222844   0.679   3.614   1.108 -1.2623 -1.1584  1.4207
  477TIP3   OH222845   4.551   5.991  11.889  0.1504 -0.3123 -0.5209
  477TIP3    H122846   4.560   5.975  11.983  0.0650  1.5373 -0.1641
  477TIP3    H222847   4.457   5.981  11.872  0.0137  0.3354 -0.1912
  478TIP3   OH222848   3.761   2.204  15.107 -0.1332  0.0680  0.1079
  478TIP3    H122849   3.803   2.118  15.113  0.9264  0.5611 -0.0233
  478TIP3    H222850   3.774   2.231  15.016 -0.8039  0.2067  0.0486
  479TIP3   OH222851   4.483   0.534   1.419  0.3218 -0.0009 -0.1618
  479TIP3    H122852   4.445   0.620   1.402  1.4749  0.5150 -0.2778
  479TIP3    H222853   4.544   0.521   1.346 -0.8541 -1.5547 -0.9171
  480TIP3   OH222854   4.432   0.077   1.405 -0.2866  0.3861 -0.2609
  480TIP3    H122855   4.389   0.162   1.401  0.1048  0.7713  2.0045
  480TIP3    H222856   4.396   0.037   1.485 -0.3633 -1.5295 -1.2040
  481TIP3   OH222857   1.206   4.596  13.016 -0.0605  0.5515  0.1934
  481TIP3    H122858   1.201   4.690  12.998  0.2323  0.4689 -0.3412
  481TIP3    H222859   1.115   4.570  13.029 -0.5161  0.3540 -2.7002
  482TIP3   OH222860   5.622   0.371   3.219 -0.4514  0.8551 -0.0951
  482TIP3    H122861   5.620   0.367   3.124 -0.0458  1.3324 -0.1217
  482TIP3    H222862   5.546   0.425   3.242 -0.1584  1.2987 -0.1755
  483TIP3   OH222863   6.505   0.522   5.073 -0.5038 -0.0800 -0.2919
  483TIP3    H122864   6.567   0.450   5.067  1.2262  1.0621  2.2906
  483TIP3    H222865   6.552   0.591   5.120 -2.3093  2.5146 -2.0065
  484TIP3   OH222866   4.723   2.395   0.238 -0.1639  0.3551  0.4832
  484TIP3    H122867   4.739   2.396   0.333  0.7168 -0.5889  0.3689
  484TIP3    H222868   4.707   2.486   0.215  0.3246  0.6957  1.4320
  485TIP3   OH222869   0.215   1.672   1.105 -0.0150  0.2705 -0.2779
  485TIP3    H122870   0.220   1.737   1.175  1.0953  0.0576 -0.1486
  485TIP3    H222871   0.220   1.724   1.024  1.5289  0.3256 -0.1756
  486TIP3   OH222872   4.513   5.934  14.296  0.1036 -0.4456  0.2076
  486TIP3    H122873   4.448   5.973  14.238  0.1050 -0.7542 -0.0030
  486TIP3    H222874   4.526   5.845  14.262 -0.0551 -0.7037  0.8007
  487TIP3   OH222875   0.230   2.545   4.451  0.1431  0.1040  0.8365
  487TIP3    H122876   0.248   2.625   4.401  1.1701  0.1378  1.2231
  487TIP3    H222877   0.184   2.488   4.390  2.4289 -0.3481 -0.6046
  488TIP3   OH222878   5.081   2.561   2.328 -0.0501  0.0781 -0.7556
  488TIP3    H122879   5.030   2.624   2.379 -1.0685 -0.6979 -0.7839
  488TIP3    H222880   5.131   2.513   2.393  0.2438  0.4800 -0.6795
  489TIP3   OH222881   3.952   6.486  14.109  0.1426 -0.5172  0.4158
  489TIP3    H122882   4.044   6.506  14.123 -0.0115  0.6879 -0.1540
  489TIP3    H222883   3.911   6.496  14.195 -0.3096  4.0241 -0.0908
  490TIP3   OH222884   1.675   0.835  13.228 -0.3993  0.1889 -0.0457
  490TIP3    H122885   1.641   0.765  13.172  2.1158 -0.2632 -1.1407
  490TIP3    H222886   1.735   0.791  13.288  0.8745  1.3247 -0.4445
  491TIP3   OH222887   2.770   3.354   4.233  0.2116  0.2817  0.0353
  491TIP3    H122888   2.746   3.444   4.258  2.6193  1.0370 -0.1126
  491TIP3    H222889   2.742   3.301   4.307 -1.4573  1.0802  0.0406
  492TIP3   OH222890   4.342   6.508  10.784  0.1219  0.0188  0.0371
  492TIP3    H122891   4.294   6.533  10.705  0.5481  1.5424  0.2158
  492TIP3    H222892   4.295   6.432  10.818  0.0423 -0.7747 -1.7648
  493TIP3   OH222893   1.549   5.190  14.063  0.2572 -0.5326 -0.5491
  493TIP3    H122894   1.552   5.098  14.036 -0.1493 -0.2702 -1.5153
  493TIP3    H222895   1.579   5.189  14.154  1.3583 -1.4690 -0.8982
  494TIP3   OH222896   4.752   0.661  13.868 -0.0774 -0.1210 -0.1573
  494TIP3    H122897   4.672   0.712  13.880 -0.9874 -1.1042 -1.7258
  494TIP3    H222898   4.795   0.664  13.954 -0.6829  2.2285  0.1310
  495TIP3   OH222899   1.177   1.682   2.566 -0.0279 -0.0283 -0.9322
  495TIP3    H122900   1.199   1.772   2.590  0.6562 -0.3093 -0.4886
  495TIP3    H222901   1.112   1.692   2.496 -2.1294  0.8184  1.0129
  496TIP3   OH222902   3.439   0.160   1.623 -0.0126 -0.8877  0.0971
  496TIP3    H122903   3.471   0.181   1.711  0.7437 -0.3916 -0.2895
  496TIP3    H222904   3.351   0.125   1.638 -0.0097 -0.5359  1.0303
  497TIP3   OH222905   2.511   3.473   1.347 -0.0837  0.2754 -0.0785
  497TIP3    H122906   2.544   3.551   1.304  1.8597  0.2484  1.2454
  497TIP3    H222907   2.425   3.499   1.381  0.7775  2.0661  0.8686
  498TIP3   OH222908   1.222   0.259   2.731 -0.2256 -0.3308 -0.4296
  498TIP3    H122909   1.269   0.342   2.739 -0.2814 -0.2732 -0.6824
  498TIP3    H222910   1.193   0.239   2.820 -0.9773  0.3657 -0.5125
  499TIP3   OH222911   6.036   3.568   2.670  0.2231  0.0142  0.6389
  499TIP3    H122912   6.045   3.656   2.706 -1.7894  0.9840 -0.9741
  499TIP3    H222913   6.106   3.560   2.605 -0.1811  0.8436  0.0848
  500TIP3   OH222914   0.967   0.674   3.263  0.1096 -0.3707 -0.7036
  500TIP3    H122915   1.047   0.639   3.303 -0.4921 -2.0230 -0.8649
  500TIP3    H222916   0.999   0.736   3.198  1.1997  0.0773  0.2059
  501TIP3   OH222917   2.322   1.220   6.185  0.4390 -0.1462 -0.6315
  501TIP3    H122918   2.329   1.164   6.107 -0.8332 -1.1035 -0.0935
  501TIP3    H222919   2.383   1.180   6.248 -0.0695 -0.6259 -0.4342
  502TIP3   OH222920   4.272   5.404   1.318  0.2526  0.2474  0.3440
  502TIP3    H122921   4.196   5.346   1.324 -0.4939  0.8288 -2.4291
  502TIP3    H222922   4.241   5.480   1.269  2.3147  1.0601  0.1903
  503TIP3   OH222923   5.895   5.917   2.178 -0.0144  0.5301  0.6650
  503TIP3    H122924   5.802   5.912   2.157 -0.1432  0.9247  1.1154
  503TIP3    H222925   5.935   5.960   2.102  0.1391 -1.4952 -0.4518
  504TIP3   OH222926   0.895   5.448  15.118  0.0677 -0.8402 -0.2767
  504TIP3    H122927   0.928   5.391  15.187  0.5809  1.1249  1.1994
  504TIP3    H222928   0.942   5.531  15.131 -0.9855  0.0851 -2.0039
  505TIP3   OH222929   5.250   1.796   5.437  0.6195  0.2603 -0.2966
  505TIP3    H122930   5.312   1.775   5.507  0.0470 -0.9642 -0.1241
  505TIP3    H222931   5.305   1.814   5.361  1.2345  1.2071  0.3545
  506TIP3   OH222932   4.233   2.903   2.373  0.7108 -0.0751 -0.5282
  506TIP3    H122933   4.302   2.837   2.383  0.5536 -0.2033 -0.2622
  506TIP3    H222934   4.191   2.882   2.290 -0.3240 -1.2632  0.2441
  507TIP3   OH222935   4.675   5.946  13.453  0.2827  0.0811  0.2245
  507TIP3    H122936   4.693   6.039  13.435 -2.3294  0.1754 -2.7378
  507TIP3    H222937   4.759   5.902  13.435  1.7774  1.8016  2.3592
  508TIP3   OH222938   5.663   1.665  10.942 -0.3952 -0.2245  0.2370
  508TIP3    H122939   5.602   1.594  10.967 -0.1009  0.3732  3.0304
  508TIP3    H222940   5.609   1.725  10.891 -1.5758 -0.7984  0.7414
  509TIP3   OH222941   2.964   5.551   6.375 -0.0367  0.5097  0.1450
  509TIP3    H122942   2.960   5.456   6.364 -0.8584  0.4320  1.0122
  509TIP3    H222943   3.058   5.571   6.378  0.1434 -0.3109  0.2528
  510TIP3   OH222944   3.689   4.750  12.743  0.1037 -0.5595 -0.1766
  510TIP3    H122945   3.688   4.836  12.786 -0.7384 -0.2864 -0.7023
  510TIP3    H222946   3.729   4.692  12.807 -1.1455 -0.1724  1.0266
  511TIP3   OH222947   0.983   3.766   0.172  0.2063 -0.6642 -0.4328
  511TIP3    H122948   1.030   3.689   0.205 -0.4395 -0.4804  0.9944
  511TIP3    H222949   0.897   3.733   0.148  0.2513 -0.5546 -0.7493
  512TIP3   OH222950   6.353   4.948   4.371  0.0091  1.0016 -0.0386
  512TIP3    H122951   6.420   5.016   4.381  0.0393  1.0541 -0.5824
  512TIP3    H222952   6.392   4.884   4.312  0.8261 -0.5816  2.0920
  513TIP3   OH222953   1.528   5.397  14.451  0.4642 -0.7163 -0.7146
  513TIP3    H122954   1.502   5.420  14.361  0.4739  0.9804 -0.3265
  513TIP3    H222955   1.537   5.482  14.495 -1.1235 -1.5292  1.3482
  514TIP3   OH222956   1.259   1.318   3.561  0.0351 -0.5198  0.3090
  514TIP3    H122957   1.303   1.284   3.483  2.7679 -2.4793  2.4703
  514TIP3    H222958   1.321   1.381   3.597 -0.7045 -0.4085  1.4099
  515TIP3   OH222959   3.366   6.672  11.668 -0.4806  0.3824  0.3988
  515TIP3    H122960   3.422   6.738  11.628 -1.8956  0.6607 -1.2044
  515TIP3    H222961   3.397   6.589  11.631 -1.6743  0.6219 -1.2465
  516TIP3   OH222962   1.350   2.909  17.454  0.3524 -0.0452 -0.6085
  516TIP3    H122963   1.324   2.832  17.505  3.6917 -0.4491  0.7611
  516TIP3    H222964   1.269   2.941  17.415 -2.1972 -0.6565  3.6495
  517TIP3   OH222965   2.007   2.612   4.574 -1.1175 -0.3838  0.1812
  517TIP3    H122966   1.913   2.607   4.588 -1.1277 -0.2571  0.1598
  517TIP3    H222967   2.030   2.703   4.595 -0.8185 -0.6984  1.2779
  518TIP3   OH222968   2.040   5.747   1.597  0.0539  0.0980 -0.2423
  518TIP3    H122969   1.946   5.736   1.587 -0.2022  1.4752  0.3830
  518TIP3    H222970   2.051   5.781   1.686  1.0309  0.9067 -0.6462
  519TIP3   OH222971   2.843   4.002  16.088  0.2919 -0.0705  0.1730
  519TIP3    H122972   2.828   3.935  16.154  0.4274 -1.1346 -0.8455
  519TIP3    H222973   2.931   3.985  16.054 -0.2691 -0.3980 -1.2030
  520TIP3   OH222974   3.098   5.334   1.122  0.2119 -0.0723  0.0444
  520TIP3    H122975   3.192   5.348   1.114  0.1562 -0.1061 -0.6976
  520TIP3    H222976   3.082   5.331   1.217  0.9054  0.2474  0.1739
  521TIP3   OH222977   3.161   4.663   2.873 -0.1144  0.0052  0.5317
  521TIP3    H122978   3.096   4.699   2.813  0.4778  0.9867  0.4640
  521TIP3    H222979   3.128   4.683   2.960  0.8347  1.9509  0.5037
  522TIP3   OH222980   1.341   0.114   0.433 -0.5120 -0.0735 -0.2773
  522TIP3    H122981   1.345   0.020   0.414 -0.0128 -0.2969  0.8610
  522TIP3    H222982   1.279   0.149   0.368  0.5830 -0.8803 -1.8154
  523TIP3   OH222983   2.288   4.196  15.730 -0.1211  0.0394 -0.2612
  523TIP3    H122984   2.311   4.277  15.685  2.1116 -1.6214 -2.3274
  523TIP3    H222985   2.208   4.166  15.686  1.6894 -1.2427 -2.9353
  524TIP3   OH222986   4.801   0.071  11.607  0.4438 -0.4420 -0.1216
  524TIP3    H122987   4.785  -0.021  11.589  3.3785 -1.3929  1.4638
  524TIP3    H222988   4.890   0.087  11.577  0.4386  1.5535  0.7387
  525TIP3   OH222989   4.372   4.358  13.442  0.8018 -0.2921 -0.1654
  525TIP3    H122990   4.370   4.311  13.525  0.0244 -0.7177 -0.4088
  525TIP3    H222991   4.395   4.448  13.466 -0.3645 -0.1769  0.6508
  526TIP3   OH222992   1.779   5.374   1.368 -0.2378  0.8413  0.0151
  526TIP3    H122993   1.852   5.377   1.307  0.4222 -0.3495  0.7081
  526TIP3    H222994   1.795   5.446   1.428  0.2289  0.7466  0.0065
  527TIP3   OH222995   4.591   4.532  12.819  0.6578 -0.3311  0.1816
  527TIP3    H122996   4.552   4.616  12.796 -1.5740 -1.2108  0.5490
  527TIP3    H222997   4.665   4.523  12.758 -0.3134  0.9506 -1.2687
  528TIP3   OH222998   1.847   2.772  13.886 -0.0543  0.0115 -0.1993
  528TIP3    H122999   1.848   2.860  13.923  3.9484 -0.6091  1.6424
  528TIP3    H223000   1.849   2.786  13.791 -0.7834  1.8463  0.0249
  529TIP3   OH223001   0.498   5.973  11.756 -0.1700 -0.2879  0.5141
  529TIP3    H123002   0.585   6.009  11.737  0.1129 -1.1890  0.0671
  529TIP3    H223003   0.465   5.945  11.671  0.5755 -3.1772  1.0700
  530TIP3   OH223004   1.719   5.049  14.684  0.0259 -0.3264 -0.2427
  530TIP3    H123005   1.642   5.101  14.663  0.5302  0.7270  0.4407
  530TIP3    H223006   1.793   5.102  14.653  0.6311  0.0096  1.6774
  531TIP3   OH223007   0.378   3.172  13.775 -0.1302  0.4721  0.6638
  531TIP3    H123008   0.294   3.129  13.755  0.1481  0.2858 -0.1303
  531TIP3    H223009   0.393   3.152  13.868 -1.1949  0.9157  0.9453
  532TIP3   OH223010   4.941   4.968  13.291  0.4734 -0.0059  0.3871
  532TIP3    H123011   4.906   4.918  13.217  0.0013  0.1453  0.5081
  532TIP3    H223012   5.016   4.917  13.321 -0.4703 -1.0593  1.0059
  533TIP3   OH223013   4.390   2.976   0.917  0.1527 -0.3453 -0.4694
  533TIP3    H123014   4.383   2.882   0.933  0.3154 -0.4296 -0.8896
  533TIP3    H223015   4.300   3.009   0.923 -0.0299 -0.6833 -1.2960
  534TIP3   OH223016   6.626   2.146  12.528  0.2433 -1.1507  0.6484
  534TIP3    H123017   6.614   2.223  12.584 -0.6495 -0.5389 -0.3456
  534TIP3    H223018   6.563   2.082  12.561  0.4523 -1.1846  0.9921
  535TIP3   OH223019   1.766   2.374  12.046 -0.1466  0.3373  0.4664
  535TIP3    H123020   1.820   2.435  11.997  1.1839 -0.5026  0.8406
  535TIP3    H223021   1.780   2.289  12.004 -1.4495  0.1499  0.3621
  536TIP3   OH223022   0.448   3.262   0.093  0.1723  0.1180  0.2241
  536TIP3    H123023   0.445   3.338   0.151 -0.7531  1.0163 -0.9463
  536TIP3    H223024   0.435   3.298   0.006  1.5777 -1.1876 -0.5790
  537TIP3   OH223025   1.618   4.613  12.625 -0.0760 -0.3722  0.3170
  537TIP3    H123026   1.532   4.575  12.607  0.2770 -1.4059  0.7705
  537TIP3    H223027   1.629   4.680  12.558 -2.0704  1.1634  1.4062
  538TIP3   OH223028   1.533   0.694   2.404  0.1995 -0.2000  0.4369
  538TIP3    H123029   1.526   0.706   2.309  1.4675  1.3680  0.5039
  538TIP3    H223030   1.453   0.647   2.428 -0.1617 -0.5932 -1.3943
  539TIP3   OH223031   2.517   3.075  12.504 -0.0467 -0.0967 -0.5091
  539TIP3    H123032   2.547   3.083  12.413 -0.8944 -0.8273 -0.8662
  539TIP3    H223033   2.518   3.165  12.537  0.2290  0.1878 -1.2560
  540TIP3   OH223034   3.027   3.022  12.442 -0.2488 -0.3888  0.7651
  540TIP3    H123035   2.965   3.048  12.374  0.6310 -0.2007  0.0167
  540TIP3    H223036   3.070   3.104  12.467 -1.3880 -0.2456  2.4221
  541TIP3   OH223037   4.359   5.767  13.650  0.0003 -0.1619  0.0573
  541TIP3    H123038   4.375   5.843  13.707 -0.2083 -0.0776  0.0050
  541TIP3    H223039   4.375   5.692  13.707 -0.4784 -0.0775  0.3115
  542TIP3   OH223040   0.896   5.962  12.585  0.1395  0.6564  0.2205
  542TIP3    H123041   0.966   5.957  12.650  0.7292 -1.9619 -0.5294
  542TIP3    H223042   0.823   5.915  12.625  0.2421 -0.2760 -0.6567
  543TIP3   OH223043   6.406   3.789  13.924 -0.1388 -0.3821 -0.0367
  543TIP3    H123044   6.440   3.871  13.889  1.6431 -1.4593 -1.0180
  543TIP3    H223045   6.369   3.812  14.009  0.1714  1.4439 -0.3679
  544TIP3   OH223046   3.668   4.374   3.276  0.2117  0.0148 -0.2115
  544TIP3    H123047   3.757   4.409   3.271  0.3300 -0.2912 -0.3265
  544TIP3    H223048   3.651   4.341   3.187  0.2113 -0.4658 -0.0376
  545TIP3   OH223049   3.739   6.435  10.717 -0.2722  0.1294  0.0499
  545TIP3    H123050   3.680   6.476  10.780 -0.6516 -1.0210  0.4613
  545TIP3    H223051   3.751   6.346  10.749  0.5050 -0.1052 -0.8449
  546TIP3   OH223052   6.472   2.756  16.343  0.2837  0.4365 -0.0387
  546TIP3    H123053   6.389   2.763  16.296 -0.7092  1.4124  1.7875
  546TIP3    H223054   6.448   2.738  16.433  1.9613  2.2655  0.8475
  547TIP3   OH223055   0.196   6.621   5.931  0.2583 -0.3005 -0.0702
  547TIP3    H123056   0.203   6.695   5.992  1.7102  0.2712 -0.8931
  547TIP3    H223057   0.114   6.637   5.885 -0.4598 -0.3125  1.1458
  548TIP3   OH223058   6.696   3.974   2.363 -0.1245  0.3286 -0.2917
  548TIP3    H123059   6.631   3.998   2.430  1.2640  0.7758  0.9764
  548TIP3    H223060   6.776   3.960   2.413  0.6394 -0.7263 -1.7547
  549TIP3   OH223061   2.599   3.772   3.169 -0.1609  0.4467 -0.3313
  549TIP3    H123062   2.567   3.750   3.257 -0.9550 -0.9365 -0.9387
  549TIP3    H223063   2.545   3.847   3.142 -1.3802 -0.4560 -0.4561
  550TIP3   OH223064   2.020   5.479  16.346  0.7985  0.3775  0.4525
  550TIP3    H123065   1.983   5.391  16.354 -0.4101  0.6325 -1.6961
  550TIP3    H223066   2.109   5.470  16.380  1.1069 -1.9683 -0.7709
  551TIP3   OH223067   3.768   5.339   1.830  0.1907 -0.2023  0.3234
  551TIP3    H123068   3.713   5.383   1.766  0.4767 -0.1632  0.1080
  551TIP3    H223069   3.721   5.350   1.913 -0.3908 -0.6224  0.0535
  552TIP3   OH223070   5.317   3.041   4.654  0.1588  0.1388  0.0757
  552TIP3    H123071   5.330   3.106   4.586  1.2961  0.8744  0.9563
  552TIP3    H223072   5.391   2.980   4.644 -0.9875 -1.1523 -0.8523
  553TIP3   OH223073   2.630   6.047  14.519  0.0379  0.3746  0.1213
  553TIP3    H123074   2.539   6.076  14.525 -0.2130  0.3607 -2.4016
  553TIP3    H223075   2.632   5.964  14.566 -2.3159 -1.6572 -2.9119
  554TIP3   OH223076   0.449   1.080  14.932 -0.5161  0.9512 -0.3449
  554TIP3    H123077   0.422   1.009  14.874 -1.7943  1.2915 -0.2162
  554TIP3    H223078   0.543   1.086  14.922 -0.7764  1.5261 -3.0328
  555TIP3   OH223079   5.167   1.381  17.256 -0.6180 -0.1654 -0.1491
  555TIP3    H123080   5.202   1.383  17.166  0.5963  0.6728  0.3179
  555TIP3    H223081   5.189   1.293  17.287  1.2794  0.3973  0.1855
  556TIP3   OH223082   2.132   5.354   2.617 -0.6880 -0.5515 -0.3455
  556TIP3    H123083   2.080   5.275   2.608  2.2132 -2.6865  0.0922
  556TIP3    H223084   2.158   5.377   2.527 -0.3868 -0.9523 -0.3621
  557TIP3   OH223085   2.631   6.355   1.350 -0.2041  0.2137 -0.4208
  557TIP3    H123086   2.637   6.427   1.288 -4.7141  1.2908  0.0946
  557TIP3    H223087   2.642   6.396   1.436  1.8425 -0.6003 -0.2259
  558TIP3   OH223088   6.495   0.404  11.905  0.3773 -0.6512  0.3744
  558TIP3    H123089   6.411   0.378  11.941  0.3871  0.1175  0.9730
  558TIP3    H223090   6.553   0.410  11.981  0.7484 -0.3323  0.0707
  559TIP3   OH223091   5.393   4.316  11.896  0.4929 -0.0272  0.7387
  559TIP3    H123092   5.472   4.294  11.847 -0.4638  0.6981 -1.2858
  559TIP3    H223093   5.336   4.359  11.831 -1.2802  0.1061  2.2806
  560TIP3   OH223094   4.027   2.575  12.329 -0.5447  0.3949  0.0534
  560TIP3    H123095   4.067   2.530  12.404  1.0530  0.7541 -0.5315
  560TIP3    H223096   3.978   2.506  12.283 -2.3832  0.3745  1.9150
  561TIP3   OH223097   6.486   1.673   1.118 -0.0408  0.1322  0.4011
  561TIP3    H123098   6.448   1.640   1.199 -1.8597  0.7034 -0.1806
  561TIP3    H223099   6.567   1.622   1.108 -0.1577 -0.4886  2.1541
  562TIP3   OH223100   3.206   5.945  16.945 -0.1385 -0.3087  0.2689
  562TIP3    H123101   3.132   5.890  16.919  0.1216 -0.7285  0.4121
  562TIP3    H223102   3.259   5.952  16.866 -0.4472  0.1850  0.1019
  563TIP3   OH223103   3.671   5.360  13.072  0.4657  0.4254 -0.0296
  563TIP3    H123104   3.729   5.426  13.033  3.0148 -1.6460 -0.0418
  563TIP3    H223105   3.657   5.390  13.162 -0.8004  2.3511 -0.8045
  564TIP3   OH223106   5.897   3.068  15.500 -0.8689 -0.1233  0.2988
  564TIP3    H123107   5.970   3.059  15.561 -1.5292  0.1214  1.1492
  564TIP3    H223108   5.829   3.012  15.536 -1.3457  0.1821 -0.1064
  565TIP3   OH223109   5.307   2.436   4.073 -0.5208  0.0664 -0.9541
  565TIP3    H123110   5.248   2.476   4.136 -0.6519 -1.3290 -0.1720
  565TIP3    H223111   5.250   2.396   4.008 -0.4010  0.1677 -1.1245
  566TIP3   OH223112   1.431   3.395   6.442 -0.2176  0.4392 -0.4332
  566TIP3    H123113   1.335   3.400   6.450 -0.2501  1.1155 -1.1133
  566TIP3    H223114   1.447   3.399   6.348  0.4770  0.2181 -0.3257
  567TIP3   OH223115   2.510   3.544  14.803  0.5060 -0.5143 -0.4250
  567TIP3    H123116   2.519   3.495  14.722  0.7060  0.0799 -0.7712
  567TIP3    H223117   2.545   3.631  14.782  0.7349 -0.4153  0.3481
  568TIP3   OH223118   0.399   0.568   0.009  0.2116  0.0506 -0.2872
  568TIP3    H123119   0.304   0.565   0.001  0.1709 -1.0441  0.4050
  568TIP3    H223120   0.428   0.482  -0.019  0.8963 -0.0503  0.6827
  569TIP3   OH223121   0.182   4.492  10.573  0.0899  0.4373 -0.0207
  569TIP3    H123122   0.122   4.534  10.635 -0.3286  1.0151 -0.7967
  569TIP3    H223123   0.137   4.412  10.547  1.1488 -0.8660  1.9124
  570TIP3   OH223124   0.031   3.108  15.345 -0.2940 -0.3382  0.2171
  570TIP3    H123125   0.119   3.070  15.352 -1.2256 -2.8385 -0.5923
  570TIP3    H223126  -0.002   3.078  15.260 -1.8460  0.7656  0.3808
  571TIP3   OH223127   6.174   5.038   5.577  0.2836 -0.2145  0.6548
  571TIP3    H123128   6.209   4.977   5.512 -1.2267 -0.1203 -0.2870
  571TIP3    H223129   6.228   5.023   5.655  0.3372 -2.3347  0.2772
  572TIP3   OH223130   1.445   5.343  12.936  0.0543 -0.1269 -0.1885
  572TIP3    H123131   1.511   5.311  12.998  1.1655  0.0342 -1.2668
  572TIP3    H223132   1.486   5.418  12.893  0.1696 -1.5173 -2.6520
  573TIP3   OH223133   4.921   0.019   5.314 -0.0241  0.4253  0.3799
  573TIP3    H123134   4.848   0.072   5.346 -1.5051 -0.7314 -0.9436
  573TIP3    H223135   4.955   0.067   5.239 -0.7631 -0.0071 -0.2467
  574TIP3   OH223136   6.122   0.188  17.063 -0.0120 -0.6587 -0.1757
  574TIP3    H123137   6.159   0.167  16.977  1.0000 -2.7610  0.6804
  574TIP3    H223138   6.163   0.125  17.122 -1.6739 -0.1428  1.6380
  575TIP3   OH223139   1.776   4.978   4.463 -0.3345  1.0021  0.2685
  575TIP3    H123140   1.715   4.922   4.415  1.7072 -0.1922 -1.0882
  575TIP3    H223141   1.779   5.059   4.412  1.6358 -0.1705 -1.6197
  576TIP3   OH223142   0.869   4.316  12.286  0.2280  0.1701 -0.1706
  576TIP3    H123143   0.841   4.310  12.378  1.0793 -0.3188  0.0622
  576TIP3    H223144   0.959   4.347  12.290  0.8424 -1.4248 -0.7517
  577TIP3   OH223145   1.619   0.877  11.855  0.3217 -0.3646  0.4701
  577TIP3    H123146   1.714   0.890  11.855  0.1929  0.8435 -0.5039
  577TIP3    H223147   1.586   0.947  11.798 -1.2152 -0.3093  1.3770
  578TIP3   OH223148   4.658   1.239   4.686 -0.0524  0.3661  0.3238
  578TIP3    H123149   4.714   1.246   4.608  3.4915  1.7464  2.7171
  578TIP3    H223150   4.573   1.272   4.657 -0.6779 -4.0004 -4.1912
  579TIP3   OH223151   6.174   3.304   3.418  0.4061  0.0739  0.2821
  579TIP3    H123152   6.098   3.315   3.475  1.7562  3.1131  1.7426
  579TIP3    H223153   6.247   3.288   3.479  1.0753 -2.5669 -1.0668
  580TIP3   OH223154   4.487   5.695  14.959 -0.0237 -0.6853 -0.3213
  580TIP3    H123155   4.480   5.754  15.034 -0.4455 -0.2244 -0.7236
  580TIP3    H223156   4.560   5.729  14.908  0.0348 -0.7930 -0.3102
  581TIP3   OH223157   0.960   5.675   3.725  0.1665 -0.1904  0.3551
  581TIP3    H123158   0.872   5.690   3.761  0.6762  1.0681  1.1517
  581TIP3    H223159   0.946   5.614   3.653 -1.4331  0.3263  0.1825
  582TIP3   OH223160   5.060   4.275   0.831  0.2526  0.2356  0.4274
  582TIP3    H123161   5.050   4.261   0.737  0.6320 -0.6052  0.4976
  582TIP3    H223162   5.031   4.192   0.870 -0.2462  0.7065  1.0747
  583TIP3   OH223163   6.573   0.042  16.642 -0.0250  0.5915 -0.1851
  583TIP3    H123164   6.666   0.017  16.638 -0.3604 -0.6370 -0.9422
  583TIP3    H223165   6.536   0.009  16.560 -0.7845  2.6230 -0.7188
  584TIP3   OH223166   0.743   0.048   2.926  0.2916  0.3410  0.2275
  584TIP3    H123167   0.795   0.086   2.997 -0.0705  1.4195 -0.0674
  584TIP3    H223168   0.796  -0.026   2.895  1.1831  0.8040  0.5981
  585TIP3   OH223169   0.710   2.928  16.581 -0.2551 -0.2531  0.6026
  585TIP3    H123170   0.635   2.877  16.611 -0.7598 -0.8253 -1.4616
  585TIP3    H223171   0.674   3.014  16.559 -0.6800 -0.9472 -1.7255
  586TIP3   OH223172   2.850   5.041  13.726 -0.6498 -0.1271 -0.1549
  586TIP3    H123173   2.930   5.053  13.674  0.2042 -3.9010 -0.0316
  586TIP3    H223174   2.880   5.045  13.817 -1.3935  2.3204  0.0359
  587TIP3   OH223175   5.725   3.760  16.035 -0.4698 -0.7458 -0.4243
  587TIP3    H123176   5.788   3.698  15.997  2.0868  1.3899  0.0090
  587TIP3    H223177   5.729   3.837  15.978 -1.3076  0.1482  0.6680
  588TIP3   OH223178   3.167   4.093   0.330  0.5531  0.1899 -0.1462
  588TIP3    H123179   3.212   4.030   0.274  0.3896  0.2251 -0.3201
  588TIP3    H223180   3.167   4.054   0.417  1.8868  0.6689  0.0919
  589TIP3   OH223181   3.038   4.241   5.070 -0.1310  0.3019 -0.2765
  589TIP3    H123182   2.949   4.242   5.105  0.3175 -1.2335  1.0278
  589TIP3    H223183   3.033   4.292   4.989 -1.8197  1.6338  0.6000
  590TIP3   OH223184   1.010   3.437  15.012 -0.2673 -0.3265  0.1030
  590TIP3    H123185   1.047   3.488  15.084 -0.4179 -1.2324  0.8405
  590TIP3    H223186   0.955   3.372  15.055 -2.6842  0.8967 -0.9324
  591TIP3   OH223187   5.378   4.521   2.388  0.1039 -0.7728  0.2612
  591TIP3    H123188   5.304   4.574   2.417  0.0506 -1.3391  1.2028
  591TIP3    H223189   5.428   4.503   2.468  0.5847 -1.4244 -0.1730
  592TIP3   OH223190   6.746   3.624   4.023  0.1251 -0.4554 -0.2892
  592TIP3    H123191   6.759   3.718   4.027 -1.4972 -0.2384  2.3626
  592TIP3    H223192   6.681   3.612   3.953  1.0561  0.2344 -1.3118
  593TIP3   OH223193   2.346   2.684   2.274 -0.4008 -0.3871  0.3561
  593TIP3    H123194   2.309   2.596   2.263 -1.9677  0.3470 -0.5263
  593TIP3    H223195   2.403   2.676   2.351  1.3665 -2.7380 -1.0115
  594TIP3   OH223196   1.044   5.716   4.282 -0.5719  0.1285 -0.4078
  594TIP3    H123197   1.128   5.726   4.237  0.2513  0.2002  1.0762
  594TIP3    H223198   1.043   5.625   4.309 -1.2310 -0.0101 -0.8977
  595TIP3   OH223199   1.959   5.956   0.509 -0.2917 -0.1079 -0.2204
  595TIP3    H123200   1.954   5.939   0.603  0.8962  0.5812 -0.0156
  595TIP3    H223201   2.017   6.032   0.501 -0.9524  0.2975 -1.4670
  596TIP3   OH223202   6.641   2.366  12.199 -0.2125 -0.6763  0.0549
  596TIP3    H123203   6.567   2.424  12.218 -1.2482 -1.9672  0.0357
  596TIP3    H223204   6.693   2.367  12.280  0.0827  0.6604 -0.1160
  597TIP3   OH223205   0.679   5.170  14.457  0.0590 -0.3942  0.2812
  597TIP3    H123206   0.652   5.147  14.545 -1.5000  2.1911  0.5719
  597TIP3    H223207   0.668   5.089  14.406 -1.4469 -1.2750  1.9211
  598TIP3   OH223208   5.869   2.097   5.233  0.2606  0.1321  0.0037
  598TIP3    H123209   5.831   2.031   5.175 -0.4953  0.6486 -0.1033
  598TIP3    H223210   5.831   2.079   5.319 -1.0154  1.2360 -0.2930
  599TIP3   OH223211   6.487   6.035  16.568 -0.1689  0.4235  0.0992
  599TIP3    H123212   6.436   6.012  16.490 -0.8646 -1.6594  1.0894
  599TIP3    H223213   6.427   6.083  16.624 -0.4254 -0.2045  0.3703
  600TIP3   OH223214   4.540   1.303  11.519 -0.1028  0.4796 -0.6784
  600TIP3    H123215   4.586   1.230  11.560 -1.0806 -1.3403 -2.5816
  600TIP3    H223216   4.576   1.306  11.430 -2.1097  0.3433 -1.5526
  601TIP3   OH223217   2.398   2.628   2.543  0.0082  0.2237  0.0198
  601TIP3    H123218   2.363   2.543   2.516 -2.8607  1.3274 -0.0941
  601TIP3    H223219   2.352   2.648   2.624 -0.6615  2.3777 -0.8299
  602TIP3   OH223220   3.092   5.190  16.917  0.2660  0.0277 -0.4015
  602TIP3    H123221   3.040   5.230  16.847  0.1033  1.7211  0.6245
  602TIP3    H223222   3.132   5.264  16.962  2.2126 -1.1347 -0.0873
  603TIP3   OH223223   4.973   2.338  10.711 -0.0279 -0.0184 -0.0837
  603TIP3    H123224   4.972   2.243  10.698 -0.8587 -0.0049 -0.1196
  603TIP3    H223225   4.888   2.368  10.680  0.4152  0.8029 -0.5260
  604TIP3   OH223226   3.332   4.431   1.133 -0.7962 -0.4072 -0.0966
  604TIP3    H123227   3.318   4.343   1.170 -0.6065  0.4765  2.3011
  604TIP3    H223228   3.323   4.490   1.209  1.0997  1.4836 -1.2346
  605TIP3   OH223229   4.172   6.544  11.546 -0.1567 -0.4888 -0.3052
  605TIP3    H123230   4.233   6.545  11.620 -0.2617 -1.5827 -0.1937
  605TIP3    H223231   4.085   6.545  11.586 -0.2324  0.4987 -0.4562
  606TIP3   OH223232   5.571   4.536  12.497 -0.0298  0.1498 -0.4273
  606TIP3    H123233   5.624   4.502  12.570  0.0544 -0.6809 -0.8563
  606TIP3    H223234   5.489   4.563  12.537 -0.8694 -2.3391 -0.2610
  607TIP3   OH223235   3.307   3.619   1.024  0.6339 -0.1540 -0.5046
  607TIP3    H123236   3.225   3.665   1.041  0.5701 -0.4683  0.0706
  607TIP3    H223237   3.343   3.662   0.947 -0.1524 -0.1199 -0.8640
  608TIP3   OH223238   4.891   4.742   5.003 -0.5696 -0.1410  0.0243
  608TIP3    H123239   4.926   4.801   5.070 -0.8465 -0.2161  0.2392
  608TIP3    H223240   4.806   4.780   4.980 -0.1236  0.3382 -0.8817
  609TIP3   OH223241   2.849   5.068  14.268  0.1246 -0.5425  0.0103
  609TIP3    H123242   2.842   5.026  14.354  1.0673 -0.4566  0.1361
  609TIP3    H223243   2.942   5.065  14.248  0.4180  2.4822  0.5379
  610TIP3   OH223244   5.239   2.735  11.174 -0.9072  0.0572 -0.1025
  610TIP3    H123245   5.320   2.779  11.199 -1.0587  0.5441 -0.4431
  610TIP3    H223246   5.247   2.646  11.208 -0.9384  0.5852  1.3204
  611TIP3   OH223247   1.747   5.181  16.900  0.7961  0.1642  0.1614
  611TIP3    H123248   1.776   5.235  16.974 -0.1571 -1.0958  1.5061
  611TIP3    H223249   1.748   5.241  16.825  1.3896  1.5987  1.2670
  612TIP3   OH223250   1.522   1.968  12.820 -0.1670 -0.0538 -0.5229
  612TIP3    H123251   1.451   1.934  12.767 -1.2145 -0.7196  1.2041
  612TIP3    H223252   1.570   2.027  12.763 -0.3979 -1.7538 -2.5860
  613TIP3   OH223253   5.169   3.732   4.797 -0.5889  0.0123  0.2319
  613TIP3    H123254   5.142   3.702   4.884  1.4935  1.1635  1.3305
  613TIP3    H223255   5.173   3.827   4.804  0.4155  0.0733 -0.8846
  614TIP3   OH223256   5.868   2.353   2.931 -0.1767  0.0121  0.0876
  614TIP3    H123257   5.923   2.410   2.983 -0.9591  1.1830 -0.3345
  614TIP3    H223258   5.926   2.283   2.902  0.8459  0.6951  0.4588
  615TIP3   OH223259   3.728   4.870  14.248  0.2344  0.4960  0.1016
  615TIP3    H123260   3.706   4.811  14.176  0.0712  0.0362  0.5218
  615TIP3    H223261   3.786   4.936  14.209 -0.2451  0.5313 -0.5551
  616TIP3   OH223262   1.071   2.937  15.720  0.7938 -0.2051 -0.2982
  616TIP3    H123263   1.047   2.964  15.631 -1.0367 -0.8131 -0.0131
  616TIP3    H223264   1.143   2.996  15.743 -1.4037  2.8403 -0.6365
  617TIP3   OH223265   6.208   3.199   2.192 -0.0350 -0.0981 -0.3915
  617TIP3    H123266   6.130   3.220   2.140  0.7750  0.0737 -1.5642
  617TIP3    H223267   6.247   3.284   2.213 -0.3452 -0.1631  0.5316
  618TIP3   OH223268   1.738   0.653  13.442 -0.2814  0.3312 -0.0380
  618TIP3    H123269   1.676   0.676  13.512 -2.3976  0.8041 -1.9534
  618TIP3    H223270   1.695   0.581  13.396  1.7219 -0.9209 -0.0922
  619TIP3   OH223271   6.400   3.186  16.176 -0.1967 -0.5146  0.1352
  619TIP3    H123272   6.470   3.239  16.215  0.9535 -1.6511 -0.2943
  619TIP3    H223273   6.439   3.098  16.168 -2.0255 -1.4408  0.8284
  620TIP3   OH223274   4.506   1.128   1.391 -0.7561 -0.2522 -0.1761
  620TIP3    H123275   4.548   1.211   1.410 -1.4175  0.0088  0.1892
  620TIP3    H223276   4.412   1.145   1.402 -1.0004 -0.6872 -1.4831
  621TIP3   OH223277   4.690   4.791  16.300 -0.2893 -0.0665  0.0586
  621TIP3    H123278   4.654   4.851  16.235 -0.8379  0.3309  0.7092
  621TIP3    H223279   4.700   4.708  16.254 -3.4680 -0.6295  0.1827
  622TIP3   OH223280   1.481   3.824  16.123  0.0462  0.2051  0.3656
  622TIP3    H123281   1.575   3.807  16.123 -0.2036 -1.3773 -0.3408
  622TIP3    H223282   1.444   3.751  16.174 -0.8783  0.2140 -0.2649
  623TIP3   OH223283   0.688   5.247   4.361  0.7239 -0.0264  0.0147
  623TIP3    H123284   0.653   5.268   4.275 -0.9012  1.3237  0.9296
  623TIP3    H223285   0.687   5.152   4.365  0.1315 -0.0880 -1.1980
  624TIP3   OH223286   0.782   1.605   3.706 -0.4818  0.3346  0.1501
  624TIP3    H123287   0.869   1.582   3.738 -0.8538 -0.1065  0.8595
  624TIP3    H223288   0.779   1.701   3.710  0.2182  0.3919 -0.5531
  625TIP3   OH223289   5.129   3.418  14.566 -0.0631 -0.1199  0.8274
  625TIP3    H123290   5.223   3.406  14.556 -0.2449  0.1535 -2.0530
  625TIP3    H223291   5.115   3.512  14.554 -0.8508 -0.4142 -0.7784
  626TIP3   OH223292   0.936   3.459   2.807 -0.4168 -0.5880  0.1515
  626TIP3    H123293   0.919   3.430   2.896  0.7664  2.0324  1.3101
  626TIP3    H223294   0.958   3.378   2.760 -0.1671 -1.9400  2.4307
  627TIP3   OH223295   5.518   0.789   0.736  0.3548  0.2497  0.3637
  627TIP3    H123296   5.476   0.743   0.809  2.3737  0.5456  1.7967
  627TIP3    H223297   5.579   0.724   0.700  0.5036  0.6219 -0.0575
  628TIP3   OH223298   2.528   0.390  11.455  0.0717  0.3692  0.2140
  628TIP3    H123299   2.471   0.360  11.384 -1.1626  1.3007  0.7772
  628TIP3    H223300   2.557   0.309  11.498 -1.2886 -0.1140  0.2603
  629TIP3   OH223301   6.000   2.327   2.078  0.1212  0.2064  0.5176
  629TIP3    H123302   5.955   2.410   2.063  0.2594  0.1725 -0.1210
  629TIP3    H223303   5.964   2.268   2.012  1.4440  0.3109 -0.3332
  630TIP3   OH223304   2.624   4.924   2.966 -0.3420  0.2695 -0.0286
  630TIP3    H123305   2.537   4.963   2.957  0.2523  1.2981 -1.7224
  630TIP3    H223306   2.665   4.975   3.036 -0.7770  0.3920  0.1421
  631TIP3   OH223307   1.088   2.204  14.421  0.0970  0.2480  0.0125
  631TIP3    H123308   1.171   2.240  14.390  0.7739 -1.4791 -0.2887
  631TIP3    H223309   1.106   2.176  14.511 -0.1394 -0.2215 -0.0854
  632TIP3   OH223310   3.608   3.584  16.249 -0.3771  0.3372 -0.2666
  632TIP3    H123311   3.609   3.527  16.172 -0.1099  1.7951 -1.3798
  632TIP3    H223312   3.693   3.626  16.249 -0.9248  1.4773 -0.0437
  633TIP3   OH223313   4.777   6.084   6.275 -0.2555  0.5438  0.7747
  633TIP3    H123314   4.699   6.085   6.219  0.5832  2.0547 -0.4701
  633TIP3    H223315   4.747   6.119   6.359 -1.0311  0.6185  0.4772
  634TIP3   OH223316   4.821   0.930  13.191 -0.2172 -0.4118 -0.5936
  634TIP3    H123317   4.822   1.020  13.160 -2.2468  0.0784  0.5609
  634TIP3    H223318   4.912   0.912  13.217 -0.0190  1.7993  0.4389
  635TIP3   OH223319   3.872   0.174   5.953  0.2285  0.0447 -0.2922
  635TIP3    H123320   3.918   0.112   5.896  1.3307  0.7997 -0.2402
  635TIP3    H223321   3.809   0.119   6.001  1.2062 -1.0597 -0.2138
  636TIP3   OH223322   2.709   4.941  15.431  0.7807  0.1657 -0.0279
  636TIP3    H123323   2.667   4.928  15.516 -1.4642 -1.0418 -1.2167
  636TIP3    H223324   2.703   5.035  15.415 -4.7404 -0.0444 -1.4650
  637TIP3   OH223325   0.940   2.147   0.638 -0.1352 -0.2691 -0.6476
  637TIP3    H123326   0.950   2.209   0.711  3.2217 -0.3192 -0.8915
  637TIP3    H223327   0.866   2.180   0.588  0.5325  2.6565  0.1156
  638TIP3   OH223328   5.733   0.461   5.209 -0.6358 -0.4930  0.0532
  638TIP3    H123329   5.821   0.485   5.179 -1.1626  1.4022 -0.1330
  638TIP3    H223330   5.675   0.494   5.141 -1.4774 -2.3166 -0.1460
  639TIP3   OH223331   2.520   3.796  16.852  0.5001  0.2776 -0.2435
  639TIP3    H123332   2.523   3.808  16.947  0.0306  1.3475 -0.3443
  639TIP3    H223333   2.437   3.753  16.835  0.6519 -0.0500 -0.1602
  640TIP3   OH223334   5.043   5.139   2.691 -0.4353  0.3806  0.0811
  640TIP3    H123335   5.036   5.053   2.649  2.8864 -0.4289  0.8658
  640TIP3    H223336   5.049   5.200   2.617 -1.1486 -0.2457 -0.5168
  641TIP3   OH223337   4.483   4.691  10.862  0.0912  0.0346  0.2952
  641TIP3    H123338   4.399   4.729  10.888  0.1902  0.5032 -0.0557
  641TIP3    H223339   4.522   4.757  10.805 -0.1993 -1.0135 -1.1742
  642TIP3   OH223340   4.074   6.010   3.692 -0.3904  0.3359 -0.0476
  642TIP3    H123341   4.119   6.092   3.670 -3.8481  1.7991 -2.6550
  642TIP3    H223342   3.999   6.037   3.745 -0.7131 -1.3803  0.4176
  643TIP3   OH223343   3.491   5.511   2.752  0.2218 -0.3283  0.0678
  643TIP3    H123344   3.538   5.475   2.677 -1.2214 -1.5912 -0.2980
  643TIP3    H223345   3.493   5.442   2.817 -0.2328 -0.0044  0.4352
  644TIP3   OH223346   4.701   3.140  12.567 -0.2635 -0.2086  0.1140
  644TIP3    H123347   4.725   3.099  12.650 -0.5777 -1.8733 -0.5726
  644TIP3    H223348   4.720   3.073  12.500 -0.8623  0.7435 -1.0588
  645TIP3   OH223349   1.936   4.791   6.438 -0.3840  0.3643  0.2952
  645TIP3    H123350   1.889   4.711   6.413 -3.0797  1.9062  0.0115
  645TIP3    H223351   1.963   4.830   6.355 -0.5496  0.5692  0.3372
  646TIP3   OH223352   6.602   4.859   3.359  0.7215 -0.1021 -0.3920
  646TIP3    H123353   6.645   4.942   3.377  3.3211 -1.4704  0.1666
  646TIP3    H223354   6.600   4.853   3.264  0.9369  0.3875 -0.4292
  647TIP3   OH223355   3.162   1.470   3.974  0.0614 -0.4506  0.0449
  647TIP3    H123356   3.126   1.558   3.988 -0.8268 -0.6607 -0.7836
  647TIP3    H223357   3.163   1.430   4.061  2.5600  1.1041  0.8425
  648TIP3   OH223358   5.091   3.524  17.401 -0.5753  0.5618 -0.0312
  648TIP3    H123359   5.116   3.579  17.328 -0.4835  2.1222  1.1310
  648TIP3    H223360   5.174   3.492  17.437 -0.5405  0.9724  0.2602
  649TIP3   OH223361   3.913   4.132  11.222  0.4108 -0.2530  0.1406
  649TIP3    H123362   3.969   4.113  11.146  0.8057 -1.2155  0.6640
  649TIP3    H223363   3.848   4.194  11.188 -0.1720 -1.5863 -1.3245
  650TIP3   OH223364   3.404   2.136  13.967  0.0845  0.2091 -0.4918
  650TIP3    H123365   3.475   2.182  13.921 -0.1497  0.1380 -0.9308
  650TIP3    H223366   3.377   2.067  13.907 -0.8070  0.6542 -0.6203
  651TIP3   OH223367   3.663   5.527   5.700  0.1798  0.3146  0.1308
  651TIP3    H123368   3.646   5.619   5.680 -1.5987  0.2028  0.9407
  651TIP3    H223369   3.740   5.528   5.755 -1.1399  1.5772  2.0792
  652TIP3   OH223370   5.459   1.694  12.974  0.3789  0.5905 -0.5401
  652TIP3    H123371   5.418   1.776  12.947  0.6167  0.5624 -1.0059
  652TIP3    H223372   5.387   1.631  12.979  0.2175  0.7913 -0.3296
  653TIP3   OH223373   5.440   6.408   0.614  0.1033 -0.0339 -0.0456
  653TIP3    H123374   5.526   6.374   0.589  0.8578  1.0412  0.9707
  653TIP3    H223375   5.396   6.426   0.531  1.3299  0.5238 -0.5916
  654TIP3   OH223376   4.016   5.145   2.232  0.2224  0.2149  0.4895
  654TIP3    H123377   4.032   5.066   2.283  1.3037  1.1432  1.6833
  654TIP3    H223378   4.103   5.177   2.209 -0.2266  0.3984 -1.0601
  655TIP3   OH223379   5.478   5.410  16.752 -0.3464 -0.0821 -0.4536
  655TIP3    H123380   5.424   5.332  16.762 -1.2748  0.6152  0.0946
  655TIP3    H223381   5.443   5.454  16.676 -0.0616 -0.0016 -0.5418
  656TIP3   OH223382   0.329   4.799  16.850 -0.0745  0.5043  0.1450
  656TIP3    H123383   0.383   4.767  16.777  0.7432 -0.5890  1.1791
  656TIP3    H223384   0.248   4.829  16.809  0.4475  0.1079 -1.2295
  657TIP3   OH223385   3.223   2.539  13.229 -0.5977 -0.5485 -0.0777
  657TIP3    H123386   3.268   2.476  13.173 -0.8832 -0.0789 -0.8429
  657TIP3    H223387   3.132   2.508  13.232 -0.2546 -1.5636  1.5603
  658TIP3   OH223388   5.233   6.161  12.615 -0.5639  0.3640  0.0284
  658TIP3    H123389   5.301   6.220  12.582 -1.4116  0.7688 -1.0888
  658TIP3    H223390   5.242   6.081  12.562 -0.4801  0.1363  0.3866
  659TIP3   OH223391   0.744   2.121   5.439  0.8844 -0.5503 -0.4564
  659TIP3    H123392   0.726   2.098   5.347 -1.2897  0.6312 -0.3856
  659TIP3    H223393   0.747   2.216   5.439  2.6865 -0.5758  0.4409
  660TIP3   OH223394   3.078   6.519  13.560 -0.0010 -0.2343 -0.1743
  660TIP3    H123395   3.113   6.512  13.649 -0.4081 -0.5955 -0.0377
  660TIP3    H223396   2.987   6.489  13.568 -0.6918  1.7133 -0.3102
  661TIP3   OH223397   6.470   2.960   4.101 -0.3970  0.0095  0.0559
  661TIP3    H123398   6.507   2.986   4.186 -0.0237 -0.1177 -0.0662
  661TIP3    H223399   6.512   3.018   4.038  0.6069 -1.0290 -0.2471
  662TIP3   OH223400   1.377   2.178   3.483 -0.5437 -0.0599  0.3030
  662TIP3    H123401   1.312   2.117   3.520 -0.8515  0.2790  0.3189
  662TIP3    H223402   1.326   2.245   3.439 -0.1856 -0.2175 -0.3712
  663TIP3   OH223403   0.513   4.368  11.604  0.2303  0.2500  0.1533
  663TIP3    H123404   0.463   4.296  11.565 -0.0905  0.5210  0.0541
  663TIP3    H223405   0.590   4.378  11.549  0.6646 -0.5198  0.6101
  664TIP3   OH223406   0.834   0.301   4.608  0.0585  0.1539 -0.1373
  664TIP3    H123407   0.865   0.269   4.524  1.5810 -4.8836  1.9605
  664TIP3    H223408   0.902   0.361   4.638  0.6237  0.2196 -1.4826
  665TIP3   OH223409   3.828   1.632  14.518 -0.0767 -0.0332  0.3586
  665TIP3    H123410   3.749   1.686  14.517  0.4380  0.7936 -2.2188
  665TIP3    H223411   3.900   1.695  14.528  0.4173 -0.4375 -0.5151
  666TIP3   OH223412   0.536   0.832   1.774 -0.0044  0.2477 -0.0164
  666TIP3    H123413   0.475   0.906   1.774 -1.1574 -0.6596 -1.0260
  666TIP3    H223414   0.508   0.778   1.847 -0.2560 -0.0303 -0.3130
  667TIP3   OH223415   0.731   4.071  16.857  0.1183 -0.7568  0.2206
  667TIP3    H123416   0.666   4.136  16.883  1.0507  0.7272 -1.0188
  667TIP3    H223417   0.711   4.053  16.765  1.3737 -0.3597 -0.1459
  668TIP3   OH223418   4.704   2.174  13.131  0.7048  0.3109  0.5024
  668TIP3    H123419   4.708   2.255  13.181  1.8120  1.6464 -1.5680
  668TIP3    H223420   4.791   2.166  13.091  0.1907 -1.1543 -0.4137
  669TIP3   OH223421   3.824   3.443   3.806  0.5122 -0.5996 -0.4148
  669TIP3    H123422   3.857   3.491   3.882 -0.5988  0.6158 -0.6585
  669TIP3    H223423   3.888   3.459   3.737  0.1157  0.6474 -0.5198
  670TIP3   OH223424   3.136   0.106  14.694  0.5793 -0.2041  0.2962
  670TIP3    H123425   3.225   0.122  14.726  0.9650 -1.1864 -0.2684
  670TIP3    H223426   3.147   0.082  14.602 -0.4634  1.8857 -0.4513
  671TIP3   OH223427   0.402   5.547  12.805  0.3789  0.4191 -0.6596
  671TIP3    H123428   0.492   5.561  12.835  0.2976 -0.9954  0.3582
  671TIP3    H223429   0.382   5.457  12.831 -1.6698  1.0199  0.0337
  672TIP3   OH223430   1.749   1.208   1.758  0.1190  0.0925 -0.3274
  672TIP3    H123431   1.719   1.122   1.728 -0.2394  0.3079 -0.5889
  672TIP3    H223432   1.706   1.220   1.843  0.0132  0.1030 -0.3830
  673TIP3   OH223433   4.066   3.928  15.943  0.0634 -0.0378  0.8180
  673TIP3    H123434   4.041   3.944  15.852  0.6535 -0.6782  0.5370
  673TIP3    H223435   4.075   4.016  15.981  1.9000  0.3414 -0.3317
  674TIP3   OH223436   5.620   3.463  16.798 -0.0150  0.7491 -0.2358
  674TIP3    H123437   5.613   3.409  16.877 -1.7135 -1.4309 -1.7756
  674TIP3    H223438   5.600   3.552  16.829 -2.8744 -0.3466  1.4859
  675TIP3   OH223439   2.619   1.289   4.864  0.7345 -0.2918 -0.1225
  675TIP3    H123440   2.667   1.369   4.887 -0.9015  0.2609  1.6893
  675TIP3    H223441   2.569   1.313   4.786 -0.3288  0.7807  0.8294
  676TIP3   OH223442   3.609   3.695   0.462  0.0095 -0.0422 -0.7867
  676TIP3    H123443   3.693   3.659   0.491 -0.5019 -0.3140  0.4327
  676TIP3    H223444   3.575   3.631   0.400  0.2994 -0.3700 -0.6057
  677TIP3   OH223445   1.901   0.249  13.688  0.1016 -0.1813 -0.2143
  677TIP3    H123446   1.924   0.185  13.620  0.3900 -0.6828  0.3434
  677TIP3    H223447   1.983   0.265  13.735 -0.1254  0.0478  0.1104
  678TIP3   OH223448   4.589   2.597  15.316  0.2064  0.1607  0.0749
  678TIP3    H123449   4.505   2.573  15.355  0.1129  1.1877  0.5474
  678TIP3    H223450   4.629   2.514  15.290 -1.3345 -0.2894 -0.9690
  679TIP3   OH223451   4.685   0.935  11.340  0.0405 -0.0274  0.0274
  679TIP3    H123452   4.664   1.021  11.302  1.3812  0.1198 -0.4286
  679TIP3    H223453   4.766   0.909  11.297 -1.5311 -2.6249 -1.6204
  680TIP3   OH223454   1.263   1.213   1.924 -0.2681 -0.0870 -0.3218
  680TIP3    H123455   1.300   1.206   1.836  4.9637  1.1460  1.4094
  680TIP3    H223456   1.297   1.137   1.972 -0.5018  0.8162  1.3765
  681TIP3   OH223457   5.589   3.572   2.545 -0.1995 -0.4740  0.4967
  681TIP3    H123458   5.606   3.648   2.490 -2.1219 -0.1103  0.3291
  681TIP3    H223459   5.667   3.563   2.599 -0.1023  1.8972  0.8337
  682TIP3   OH223460   3.252   0.606  13.384 -0.1351  0.2489  0.0323
  682TIP3    H123461   3.237   0.583  13.292 -0.1795  0.4484 -0.0109
  682TIP3    H223462   3.172   0.653  13.410 -0.2445 -0.0543  0.2550
  683TIP3   OH223463   5.764   6.636   2.146 -0.3441 -0.4224 -0.3048
  683TIP3    H123464   5.723   6.623   2.060 -0.2029  0.1875 -0.4728
  683TIP3    H223465   5.766   6.549   2.185  1.7433 -1.1547 -1.8661
  684TIP3   OH223466   1.001   0.342  16.761  0.2329  0.4244 -0.1860
  684TIP3    H123467   0.910   0.355  16.737 -0.2639 -1.0866  0.7080
  684TIP3    H223468   0.997   0.310  16.851  1.5219 -1.3612 -0.7171
  685TIP3   OH223469   2.752   0.006  14.306  0.5393  0.3874 -0.0333
  685TIP3    H123470   2.746  -0.065  14.242 -0.9771 -0.6584  1.1865
  685TIP3    H223471   2.824  -0.019  14.363  2.7992  1.9950 -2.0196
  686TIP3   OH223472   2.566   0.506  16.872  0.0361 -0.5479  0.3202
  686TIP3    H123473   2.654   0.477  16.896  0.0835 -0.2658  0.4917
  686TIP3    H223474   2.578   0.593  16.834  0.0143 -1.1773 -1.1906
  687TIP3   OH223475   3.374   5.541   1.932 -0.1801 -0.0786 -0.1776
  687TIP3    H123476   3.338   5.459   1.897 -2.5869  1.2250 -0.9876
  687TIP3    H223477   3.319   5.559   2.008  1.4365 -0.0311  1.0298
  688TIP3   OH223478   5.207   4.487  12.356  0.7117  0.0265 -0.1566
  688TIP3    H123479   5.216   4.421  12.425  0.8741  0.8941  0.6796
  688TIP3    H223480   5.190   4.437  12.277 -0.8563 -0.9518  0.7427
  689TIP3   OH223481   0.610   4.479  17.238 -0.3028 -0.1397  0.5304
  689TIP3    H123482   0.594   4.533  17.315  0.0572  1.0161 -0.1788
  689TIP3    H223483   0.701   4.451  17.247  0.3739  1.5805 -0.3748
  690TIP3   OH223484   0.384   5.154   1.859 -0.4572  0.2452 -0.0827
  690TIP3    H123485   0.385   5.076   1.914 -1.3157 -0.1436 -0.6078
  690TIP3    H223486   0.299   5.195   1.877 -0.5763  0.3330 -0.8224
  691TIP3   OH223487   3.836   4.605  13.967  0.2910 -0.1125  0.6249
  691TIP3    H123488   3.797   4.568  13.888  1.7579 -2.4062  0.8898
  691TIP3    H223489   3.913   4.652  13.936 -2.2110  4.1898  0.1358
  692TIP3   OH223490   6.504   3.434  14.658 -0.0040  0.4671  0.3598
  692TIP3    H123491   6.555   3.407  14.735  0.5857 -2.1356 -0.8486
  692TIP3    H223492   6.567   3.475  14.600  0.1716 -0.2696  0.0236
  693TIP3   OH223493   4.219   5.743   0.319  0.4963 -0.2909  0.2037
  693TIP3    H123494   4.313   5.739   0.300  0.2842  1.0141 -1.3889
  693TIP3    H223495   4.191   5.826   0.281 -1.5843 -1.3329 -0.6823
  694TIP3   OH223496   4.720   4.205  15.535  0.3629 -0.3097  0.0995
  694TIP3    H123497   4.671   4.182  15.456  1.3449  1.5056 -1.1361
  694TIP3    H223498   4.812   4.198  15.509  0.7417  2.7934  0.1693
  695TIP3   OH223499   4.046   2.852   4.788 -0.2715  0.2161  0.6382
  695TIP3    H123500   3.960   2.894   4.783 -0.7857 -0.7546  1.1963
  695TIP3    H223501   4.081   2.879   4.873 -0.6466 -0.5480  1.0431
  696TIP3   OH223502   0.849   3.418  16.509 -0.6974 -0.1293  0.2554
  696TIP3    H123503   0.926   3.384  16.554 -2.4621 -1.7426  2.2646
  696TIP3    H223504   0.880   3.497  16.464  1.7604  0.1710  2.2816
  697TIP3   OH223505   5.918   6.444   0.291  0.1786  0.6096 -0.3885
  697TIP3    H123506   5.950   6.378   0.230  0.7855 -0.7018  1.2668
  697TIP3    H223507   5.994   6.466   0.345 -0.4850  1.2195  0.3367
  698TIP3   OH223508   2.976   1.767  12.281 -0.0889 -0.3162  0.1642
  698TIP3    H123509   3.058   1.718  12.280 -0.3214 -0.6998 -0.7992
  698TIP3    H223510   2.923   1.726  12.213 -1.0161  0.0451  0.6593
  699TIP3   OH223511   0.733   4.816   3.536  0.0360  0.2184 -0.1822
  699TIP3    H123512   0.703   4.904   3.512 -2.7269 -0.5438  0.0671
  699TIP3    H223513   0.828   4.819   3.526 -0.0421  2.9823 -0.9387
  700TIP3   OH223514   0.923   2.972   0.097  0.0461 -0.5146 -0.1303
  700TIP3    H123515   0.841   2.926   0.079  0.5695 -1.4589 -0.1428
  700TIP3    H223516   0.938   2.957   0.190  0.1529 -0.2505 -0.1053
  701TIP3   OH223517   4.480   3.261   1.334 -0.0846  0.3183  0.4803
  701TIP3    H123518   4.505   3.205   1.260  1.8778  0.2812  1.1032
  701TIP3    H223519   4.504   3.349   1.306 -0.2443  0.4302  0.6996
  702TIP3   OH223520   5.242   5.278   6.019  0.6661  0.4818 -0.5169
  702TIP3    H123521   5.297   5.219   6.070  1.8568  2.1994  0.2673
  702TIP3    H223522   5.213   5.225   5.944  3.1830 -0.5732 -0.8330
  703TIP3   OH223523   2.502   5.559   4.252  0.4404  0.0778  0.5067
  703TIP3    H123524   2.421   5.562   4.303 -0.1896  0.3602 -0.4862
  703TIP3    H223525   2.528   5.651   4.244  0.3851  0.0544  0.0777
  704TIP3   OH223526   0.043   1.040  16.642 -0.5394  0.1700 -0.5518
  704TIP3    H123527   0.126   1.029  16.688 -0.6908 -1.1119 -0.5274
  704TIP3    H223528   0.008   1.123  16.674  0.4061  0.3872 -0.0492
  705TIP3   OH223529   4.945   4.723   0.427 -0.0174 -0.4879 -0.2678
  705TIP3    H123530   4.997   4.693   0.352  0.9204  0.8300 -0.1599
  705TIP3    H223531   4.858   4.738   0.390  0.4672  0.2714 -1.1341
  706TIP3   OH223532   5.097   3.269   0.440 -0.0437 -1.1452 -0.1330
  706TIP3    H123533   5.012   3.312   0.431  0.4581 -0.2210 -0.5483
  706TIP3    H223534   5.096   3.232   0.529 -0.6982 -0.7657  0.0218
  707TIP3   OH223535   4.783   6.620   1.692 -0.9002 -0.0846  0.5042
  707TIP3    H123536   4.765   6.663   1.608  1.0508 -0.9407 -0.4149
  707TIP3    H223537   4.703   6.571   1.711 -1.2691 -0.1385 -1.0497
  708TIP3   OH223538   4.132   6.409   1.383 -0.2241  0.6162 -0.2290
  708TIP3    H123539   4.039   6.393   1.399 -0.7160  2.4797 -0.9715
  708TIP3    H223540   4.135   6.496   1.343  1.8925  0.7983  0.2107
  709TIP3   OH223541   5.386   5.858   3.772 -0.7422 -0.4109 -0.1869
  709TIP3    H123542   5.443   5.854   3.695 -0.2751 -0.3310  0.1525
  709TIP3    H223543   5.361   5.950   3.778  0.1138 -0.2052  0.3951
  710TIP3   OH223544   0.083   2.871  15.854 -0.4091 -0.2294 -0.1066
  710TIP3    H123545   0.115   2.852  15.942 -1.1209  0.9811  0.4232
  710TIP3    H223546   0.153   2.922  15.813 -0.5554  0.1883  0.1591
  711TIP3   OH223547   6.475   5.710   2.037 -0.0134 -0.4455 -0.2924
  711TIP3    H123548   6.509   5.621   2.028  3.0886  0.7511 -2.6587
  711TIP3    H223549   6.449   5.734   1.948  2.4520  2.0167 -0.4961
  712TIP3   OH223550   5.254   3.216  14.825 -0.6453  0.3498  0.0428
  712TIP3    H123551   5.333   3.218  14.771 -0.4932  0.7614  0.2736
  712TIP3    H223552   5.187   3.257  14.771 -0.9004 -0.6691 -0.4455
  713TIP3   OH223553   2.923   0.513  17.125 -0.3768 -0.0259  0.0367
  713TIP3    H123554   2.959   0.585  17.073 -1.2745  0.9477  0.7415
  713TIP3    H223555   3.000   0.472  17.165  0.1041  0.8639  0.0523
  714TIP3   OH223556   5.223   0.604   0.554 -0.5868  0.0698  0.3043
  714TIP3    H123557   5.284   0.616   0.481 -0.6184 -0.2413  0.2241
  714TIP3    H223558   5.171   0.527   0.529 -1.4384  0.7000  0.0766
  715TIP3   OH223559   0.041   1.387  17.175 -0.2391  0.2803  0.6180
  715TIP3    H123560   0.015   1.306  17.220  2.3675  0.3785  2.4978
  715TIP3    H223561   0.047   1.362  17.082 -0.7494 -1.3285  0.9819
  716TIP3   OH223562   1.304   1.518   6.828  0.2174 -0.5944 -0.4502
  716TIP3    H123563   1.382   1.549   6.781 -0.6569 -0.1416 -1.6246
  716TIP3    H223564   1.231   1.559   6.783 -0.6026  1.2971  2.3688
  717TIP3   OH223565   2.755   4.660   0.606  0.7516 -0.0962 -0.5618
  717TIP3    H123566   2.791   4.748   0.593  0.2501  0.2498  0.3000
  717TIP3    H223567   2.683   4.673   0.668  0.6763 -1.1189 -0.4252
  718TIP3   OH223568   1.957   3.551   3.230 -0.1992  0.4885  0.7471
  718TIP3    H123569   1.947   3.630   3.176 -0.2058  0.5959  0.9033
  718TIP3    H223570   1.867   3.525   3.251 -0.1834  0.8630  1.3025
  719TIP3   OH223571   4.244   0.186   3.503  0.7693 -0.4845  0.2482
  719TIP3    H123572   4.268   0.114   3.560 -2.1863 -1.2832  0.6275
  719TIP3    H223573   4.256   0.151   3.414  1.4970 -0.6354  0.3987
  720TIP3   OH223574   6.115   3.346  16.649  0.0766 -0.1700  0.6813
  720TIP3    H123575   6.022   3.346  16.627 -0.3747 -0.4481  2.4492
  720TIP3    H223576   6.158   3.317  16.569 -1.3765 -0.3613 -0.0689
  721TIP3   OH223577   5.272   4.050   1.100  0.1606  0.0198 -0.0299
  721TIP3    H123578   5.253   4.028   1.192  1.2082 -0.0467  0.1808
  721TIP3    H223579   5.190   4.087   1.068 -0.3079 -0.1953  0.8567
  722TIP3   OH223580   4.791   2.981  11.390  0.5804  0.0883 -0.1393
  722TIP3    H123581   4.865   2.921  11.400  0.4345 -0.0533  0.0859
  722TIP3    H223582   4.827   3.066  11.416  0.2857 -0.2262  1.3559
  723TIP3   OH223583   3.760   6.651  11.655 -0.0332  0.2392 -0.1407
  723TIP3    H123584   3.685   6.683  11.604 -0.4331  0.0696  0.3330
  723TIP3    H223585   3.810   6.729  11.676  0.0559  0.3287 -0.6616
  724TIP3   OH223586   0.283   2.030   0.567  0.7437 -0.7345  0.1160
  724TIP3    H123587   0.239   2.053   0.649  0.3075 -0.9788 -0.0487
  724TIP3    H223588   0.349   2.098   0.556  0.9884 -0.8516  0.8104
  725TIP3   OH223589   6.699   1.981  14.998  0.1021 -0.8244  0.7507
  725TIP3    H123590   6.657   1.896  15.011 -0.2033 -0.6118  1.1529
  725TIP3    H223591   6.753   1.993  15.076  1.0780 -1.1821  0.1590
  726TIP3   OH223592   6.743   2.198   1.332 -0.4939 -0.0310  0.2593
  726TIP3    H123593   6.837   2.203   1.346 -0.5248  1.3037  0.1214
  726TIP3    H223594   6.704   2.228   1.415 -0.7230  2.8330 -0.7797
  727TIP3   OH223595   5.529   6.247   6.629  0.1323 -0.5996 -0.5517
  727TIP3    H123596   5.614   6.287   6.647  0.1108 -0.6550 -0.3273
  727TIP3    H223597   5.550   6.166   6.582  0.1627 -0.1648 -1.3001
  728TIP3   OH223598   6.121   3.453  16.924  0.0569 -0.7944  0.0295
  728TIP3    H123599   6.031   3.429  16.943  0.0403 -0.2641  0.6931
  728TIP3    H223600   6.152   3.387  16.863 -0.7812 -0.9772 -0.2061
  729TIP3   OH223601   0.252   5.672   0.309 -0.1346 -0.4887 -0.0302
  729TIP3    H123602   0.207   5.754   0.331  0.5613 -0.0399 -0.2531
  729TIP3    H223603   0.332   5.700   0.266 -0.3967 -1.3157 -1.0809
  730TIP3   OH223604   4.068   0.906  12.735  0.3289 -0.1185 -0.2447
  730TIP3    H123605   4.092   0.871  12.649  0.5599 -1.1766  0.2362
  730TIP3    H223606   4.029   0.832  12.780 -1.1235  0.8073  0.0604
  731TIP3   OH223607   2.530   5.251  16.919 -0.0450  0.7917 -0.2722
  731TIP3    H123608   2.504   5.250  16.827  0.3510  0.2132 -0.3849
  731TIP3    H223609   2.462   5.201  16.964 -1.5886  3.1228  0.1556
  732TIP3   OH223610   2.876   2.899  15.867  0.1519 -0.0396 -0.4438
  732TIP3    H123611   2.952   2.880  15.812  1.4403  1.3152  0.7876
  732TIP3    H223612   2.864   2.993  15.861 -2.4879 -0.3682 -1.8487
  733TIP3   OH223613   2.747   6.147  12.084 -0.0831 -0.2364 -0.7032
  733TIP3    H123614   2.732   6.060  12.047 -0.2636 -0.1154 -0.9167
  733TIP3    H223615   2.838   6.145  12.113 -0.0833 -0.4931 -0.7140
  734TIP3   OH223616   5.425   2.374  12.036 -0.2385  0.2975  0.4241
  734TIP3    H123617   5.444   2.386  11.943 -2.2201 -0.1150 -0.0817
  734TIP3    H223618   5.477   2.298  12.061 -2.2760 -1.8293 -1.3120
  735TIP3   OH223619   3.240   4.050   0.010 -0.5090  0.6719 -0.0774
  735TIP3    H123620   3.167   3.989   0.001 -0.4608  0.4526  0.9117
  735TIP3    H223621   3.240   4.100  -0.072 -0.5339 -0.6630 -0.9124
  736TIP3   OH223622   3.256   1.449  15.327 -0.2011  0.0113 -0.0683
  736TIP3    H123623   3.264   1.475  15.419 -0.5280  0.3033 -0.1185
  736TIP3    H223624   3.338   1.479  15.287  0.0156 -0.2695  0.1616
  737TIP3   OH223625   1.071   3.976  12.069  0.1403  0.4525 -0.4441
  737TIP3    H123626   0.989   3.982  12.118 -0.3921  0.8773 -1.3615
  737TIP3    H223627   1.050   3.922  11.993  0.5607  1.0058 -0.9676
  738TIP3   OH223628   4.312   3.668   6.022  0.4034  0.1243  0.4858
  738TIP3    H123629   4.313   3.726   6.097  1.8638 -0.6088  1.0655
  738TIP3    H223630   4.348   3.585   6.054 -2.1418 -1.3609 -0.1563
  739TIP3   OH223631   1.720   3.417  16.823 -0.3192 -0.3809  0.5562
  739TIP3    H123632   1.639   3.375  16.794 -0.3266 -1.3743  1.8843
  739TIP3    H223633   1.750   3.362  16.896  1.2733  0.2731  0.4238
  740TIP3   OH223634   5.619   5.081  15.176 -0.0065  0.1519  0.1233
  740TIP3    H123635   5.664   5.158  15.143 -2.2054  1.5555  0.1735
  740TIP3    H223636   5.577   5.043  15.099 -0.6285  0.2428  0.4047
  741TIP3   OH223637   0.660   1.017   5.223 -0.0753 -0.1769 -0.2281
  741TIP3    H123638   0.750   1.016   5.253 -0.1115 -1.2139 -0.1266
  741TIP3    H223639   0.666   1.023   5.127  0.0650  1.1911 -0.1499
  742TIP3   OH223640   2.952   3.595  16.062  0.4074 -0.2221  0.4608
  742TIP3    H123641   2.859   3.576  16.044  0.6832 -2.9250  1.3739
  742TIP3    H223642   2.989   3.618  15.977 -0.9187 -0.0482 -0.0928
  743TIP3   OH223643   4.774   5.464   1.906 -0.4449  0.0485 -0.2902
  743TIP3    H123644   4.745   5.525   1.838 -0.6921  0.1231 -0.1187
  743TIP3    H223645   4.708   5.394   1.906 -0.9680  0.5191  0.5076
  744TIP3   OH223646   4.916   5.489   3.078 -0.1103  0.6197 -0.1157
  744TIP3    H123647   4.890   5.397   3.066 -2.8056  1.3705 -0.5057
  744TIP3    H223648   4.924   5.499   3.173  0.0483  0.0555 -0.0594
  745TIP3   OH223649   5.830   6.691   1.830  0.0201  0.0190 -0.0816
  745TIP3    H123650   5.880   6.706   1.911 -0.5415  1.6202 -0.0136
  745TIP3    H223651   5.739   6.680   1.859 -0.1670  0.4732 -0.4893
  746TIP3   OH223652   4.944   4.446  10.550  0.1469 -0.2717 -0.3888
  746TIP3    H123653   4.943   4.505  10.625  0.6040 -1.8292  0.8752
  746TIP3    H223654   4.855   4.411  10.546  0.2833 -0.6412 -0.2036
  747TIP3   OH223655   2.851   6.090  13.603 -0.5067  0.8416 -0.5319
  747TIP3    H123656   2.862   6.032  13.679 -0.4588  1.0401 -0.3864
  747TIP3    H223657   2.920   6.063  13.542 -3.4065 -2.6921 -2.6965
  748TIP3   OH223658   1.988   5.649  15.958  0.3122 -0.1466 -0.0318
  748TIP3    H123659   2.056   5.702  15.919  1.5637 -1.0316  0.8450
  748TIP3    H223660   1.925   5.633  15.888  0.8413  0.9588 -0.7692
  749TIP3   OH223661   0.581   4.740  11.721  0.3621 -0.1469  0.2436
  749TIP3    H123662   0.570   4.835  11.716 -3.0422 -0.3047  1.7389
  749TIP3    H223663   0.609   4.724  11.811  0.2869 -0.6074  0.1879
  750TIP3   OH223664   1.503   0.441  12.662 -0.2764  0.1571  0.6119
  750TIP3    H123665   1.538   0.521  12.701 -2.0209  0.5087  1.5710
  750TIP3    H223666   1.444   0.406  12.728 -0.6561 -1.1401 -0.3731
  751TIP3   OH223667   2.726   5.393  12.104 -0.2034 -0.4380 -0.4970
  751TIP3    H123668   2.761   5.340  12.033  2.0142 -0.4681  0.5189
  751TIP3    H223669   2.780   5.370  12.180  0.4161  2.6922  0.1612
  752TIP3   OH223670   5.508   3.739   3.812 -0.2699 -0.0070  0.6224
  752TIP3    H123671   5.415   3.735   3.792 -0.1516 -1.1302  0.1817
  752TIP3    H223672   5.526   3.657   3.858  0.4760  0.2395  0.7887
  753TIP3   OH223673   5.016   6.237  12.760  0.7161  0.3629 -0.0036
  753TIP3    H123674   5.089   6.237  12.698  1.1592 -0.0817  0.4973
  753TIP3    H223675   5.048   6.289  12.834  0.5926  0.0433  0.2814
  754TIP3   OH223676   3.758   0.107   5.057  0.4871 -0.4009 -0.7481
  754TIP3    H123677   3.693   0.164   5.098  0.1177 -1.3837  0.0629
  754TIP3    H223678   3.830   0.166   5.033  0.5587  0.2788  0.9973
  755TIP3   OH223679   1.148   2.459  16.857  0.5323 -0.2081  0.0793
  755TIP3    H123680   1.194   2.427  16.780 -0.7806 -1.7656 -0.1151
  755TIP3    H223681   1.187   2.545  16.875  0.3640  0.5648 -2.7522
  756TIP3   OH223682   4.475   1.723   4.989  1.1243 -0.0959  0.2885
  756TIP3    H123683   4.385   1.721   4.956  1.1981  1.2857 -0.0825
  756TIP3    H223684   4.527   1.752   4.913  1.2693  3.4694  1.5656
  757TIP3   OH223685   5.060   0.883   6.003  0.0440 -0.0283  0.3069
  757TIP3    H123686   5.005   0.920   6.072  0.9438  1.3064  0.3518
  757TIP3    H223687   5.002   0.876   5.927 -0.3888  0.6570  0.5652
  758TIP3   OH223688   1.311   3.045  15.815 -0.1302  0.0432  0.1285
  758TIP3    H123689   1.308   3.002  15.901 -0.4668 -1.4054 -0.5776
  758TIP3    H223690   1.368   3.121  15.828  1.3159 -1.1611  1.2064
  759TIP3   OH223691   5.870   3.175   4.743 -0.0482 -0.2774  0.0246
  759TIP3    H123692   5.897   3.264   4.720  0.4463 -0.7098 -1.1593
  759TIP3    H223693   5.949   3.122   4.735 -0.1437 -0.6966  1.5710
  760TIP3   OH223694   5.202   3.252   3.106 -0.5851 -0.6009 -0.5988
  760TIP3    H123695   5.193   3.256   3.202  0.7667  0.0409 -0.4708
  760TIP3    H223696   5.156   3.172   3.081 -2.0569 -0.1353  0.4327
  761TIP3   OH223697   0.390   0.237   2.192 -0.3003 -0.1954 -0.2063
  761TIP3    H123698   0.341   0.215   2.270 -0.7793 -0.6956 -0.6442
  761TIP3    H223699   0.324   0.251   2.124  0.1034  0.2917 -0.5102
  762TIP3   OH223700   4.627   3.844   2.703  0.0482  0.5398 -1.2288
  762TIP3    H123701   4.570   3.777   2.667 -0.8393  0.4959  0.1855
  762TIP3    H223702   4.690   3.863   2.633 -1.3813  0.2303 -2.6327
  763TIP3   OH223703   2.927   5.844   6.332 -0.3524 -0.0888  0.4476
  763TIP3    H123704   2.943   5.836   6.426  1.3356 -0.6692  0.1383
  763TIP3    H223705   2.944   5.756   6.298 -1.8254 -0.1062 -0.3019
  764TIP3   OH223706   2.693   2.710  13.950  0.1878 -0.0937  0.0305
  764TIP3    H123707   2.705   2.617  13.969  1.2106 -0.2191 -1.1646
  764TIP3    H223708   2.648   2.712  13.865 -0.0451  0.5096  0.1616
  765TIP3   OH223709   3.682   6.673   4.652 -0.2888 -0.1662  0.2107
  765TIP3    H123710   3.661   6.652   4.743  0.5357 -0.2157  0.3972
  765TIP3    H223711   3.778   6.675   4.650 -0.3041  1.6124 -0.2523
  766TIP3   OH223712   0.078   6.623  13.236  0.3191  0.2597 -0.3035
  766TIP3    H123713   0.139   6.597  13.305  2.3035  0.4154 -1.8833
  766TIP3    H223714   0.102   6.568  13.161 -0.8663  1.0026 -1.2686
  767TIP3   OH223715   2.180   6.018   5.664 -0.0807  0.5636 -0.7194
  767TIP3    H123716   2.227   6.032   5.582  1.9905 -1.1281  0.0861
  767TIP3    H223717   2.181   6.103   5.708  2.8734  0.4921 -0.4736
  768TIP3   OH223718   2.062   3.512   3.648 -0.7515  0.2868  0.1400
  768TIP3    H123719   2.156   3.521   3.666  0.1258 -0.4523 -3.2343
  768TIP3    H223720   2.022   3.585   3.695  1.5557  0.8789  1.3782
  769TIP3   OH223721   6.113   4.491   2.520  0.1969 -0.2907  0.1596
  769TIP3    H123722   6.177   4.527   2.459  0.4839 -0.3866  0.4066
  769TIP3    H223723   6.075   4.416   2.473 -0.2239  0.1681 -0.2551
  770TIP3   OH223724   5.655   4.704  14.882  0.2913  0.2358  0.3683
  770TIP3    H123725   5.673   4.654  14.802  1.3137 -0.2685  0.8971
  770TIP3    H223726   5.604   4.644  14.937  2.2443 -0.5835  1.3534
  771TIP3   OH223727   5.476   1.149  16.331  0.7326  0.3127  0.0778
  771TIP3    H123728   5.560   1.187  16.307  0.5735 -0.3572 -1.7003
  771TIP3    H223729   5.481   1.058  16.301 -0.9369  0.5006 -0.9771
  772TIP3   OH223730   3.458   0.929   3.763 -0.6503  0.8367 -0.7067
  772TIP3    H123731   3.405   1.006   3.743 -2.0193 -0.2860 -1.5818
  772TIP3    H223732   3.401   0.854   3.746  1.0806 -0.4327 -1.3325
  773TIP3   OH223733   1.786   0.775   1.176  0.7623  0.1689  0.5783
  773TIP3    H123734   1.833   0.743   1.099 -0.0332 -1.1291  0.6141
  773TIP3    H223735   1.833   0.736   1.250 -0.1953 -0.9412  0.6217
  774TIP3   OH223736   4.969   3.250  15.178 -0.1100 -0.1665 -0.3122
  774TIP3    H123737   5.016   3.190  15.120 -0.9768 -1.9898  0.7669
  774TIP3    H223738   4.902   3.195  15.219  0.3900  1.0282  2.3039
  775TIP3   OH223739   3.222   6.196  12.520 -0.3633  0.1287  0.2619
  775TIP3    H123740   3.252   6.215  12.431 -0.5815 -1.8097 -0.2680
  775TIP3    H223741   3.199   6.281  12.556 -1.2392  0.8676 -1.8910
  776TIP3   OH223742   5.553   0.142  15.261  0.6362 -0.4295 -0.1519
  776TIP3    H123743   5.580   0.087  15.334  0.7999 -0.6438 -0.3727
  776TIP3    H223744   5.546   0.082  15.187  1.0660 -0.1112 -0.4548
  777TIP3   OH223745   4.251   2.205  16.999 -0.0600 -0.1688  0.1086
  777TIP3    H123746   4.280   2.114  17.008  0.6780 -0.0301 -0.6920
  777TIP3    H223747   4.280   2.248  17.079 -0.3129 -0.6134  0.4408
  778TIP3   OH223748   0.761   4.798   4.299  0.0261  0.1031 -0.0322
  778TIP3    H123749   0.682   4.753   4.328 -0.4624  0.3319 -0.9501
  778TIP3    H223750   0.805   4.735   4.241  0.2051  0.1959  0.0019
  779TIP3   OH223751   0.041   3.604   5.302 -0.0575 -0.2717 -0.0289
  779TIP3    H123752   0.021   3.679   5.358 -0.2049  0.0827 -0.5500
  779TIP3    H223753  -0.034   3.598   5.243 -0.3367 -1.2141  0.4069
  780TIP3   OH223754   3.061   2.807   2.455  0.1780 -0.6921  0.0287
  780TIP3    H123755   3.055   2.892   2.412 -1.3815 -0.4104  0.7402
  780TIP3    H223756   2.972   2.773   2.455 -0.1302 -0.3019  3.6722
  781TIP3   OH223757   0.453   5.167  17.014 -0.0893 -0.1980  0.0724
  781TIP3    H123758   0.399   5.123  17.079  0.8996  0.2269  1.2110
  781TIP3    H223759   0.480   5.249  17.056  0.9344 -0.1193 -0.6920
  782TIP3   OH223760   2.915   5.428   2.143 -0.0577 -0.0217  0.8609
  782TIP3    H123761   2.971   5.450   2.217  1.3308 -0.8291  0.0975
  782TIP3    H223762   2.884   5.513   2.111 -1.6553  0.2745  3.0471
  783TIP3   OH223763   6.666   4.815   1.987  0.2283 -0.8386  0.1066
  783TIP3    H123764   6.751   4.850   2.014  0.1824 -0.9345  0.3804
  783TIP3    H223765   6.612   4.820   2.066  0.2677 -1.6779  0.1986
  784TIP3   OH223766   3.149   3.641  14.230  0.6864  0.0995  0.1214
  784TIP3    H123767   3.211   3.698  14.276 -0.7276  0.1079  2.0940
  784TIP3    H223768   3.205   3.573  14.191  1.9837  0.0719  1.8841
  785TIP3   OH223769   2.963   2.668  13.984 -0.4315 -0.4068 -0.3069
  785TIP3    H123770   2.876   2.708  13.974  0.0961  0.9317  0.2264
  785TIP3    H223771   2.967   2.642  14.076  0.2425  0.8476  0.0419
  786TIP3   OH223772   0.370   3.461  15.400 -0.0937  0.1502  0.4334
  786TIP3    H123773   0.298   3.523  15.410 -1.6097 -1.6057  0.8948
  786TIP3    H223774   0.447   3.516  15.382 -1.3122  2.1433  1.0368
  787TIP3   OH223775   6.524   4.840  17.093 -0.0126 -0.1035  0.1309
  787TIP3    H123776   6.478   4.756  17.086 -1.2265  0.5996 -0.4407
  787TIP3    H223777   6.490   4.893  17.022 -0.2112  1.3300  1.2434
  788TIP3   OH223778   2.260   0.163  10.646  0.3745  0.0230 -0.5259
  788TIP3    H123779   2.209   0.228  10.694 -0.8282 -0.7464 -0.7327
  788TIP3    H223780   2.214   0.153  10.562  0.3024 -1.3765 -0.3371
  789TIP3   OH223781   5.907   1.056  16.251  0.0324  0.2614  0.0666
  789TIP3    H123782   5.830   1.054  16.196 -0.6378 -3.5247  0.8582
  789TIP3    H223783   5.979   1.076  16.192 -1.2501  1.3936 -1.1513
  790TIP3   OH223784   5.857   1.375  13.904 -0.3219 -0.9842  0.6525
  790TIP3    H123785   5.901   1.424  13.974 -0.1376  1.1481 -0.8693
  790TIP3    H223786   5.853   1.286  13.937 -1.1889  0.0955  3.8341
  791TIP3   OH223787   3.059   3.197  12.776 -0.7023  0.4322 -0.2067
  791TIP3    H123788   3.040   3.198  12.683  0.2074 -1.2199 -0.4520
  791TIP3    H223789   3.136   3.140  12.784 -0.4497  0.9537  1.4950
  792TIP3   OH223790   1.553   1.250  12.424 -0.4225 -0.3001 -0.6051
  792TIP3    H123791   1.536   1.344  12.416 -1.2916 -0.1652  1.9389
  792TIP3    H223792   1.467   1.212  12.444  0.3358 -1.2086  1.2002
  793TIP3   OH223793   4.657   3.703  16.559 -0.1314  0.0164 -0.4121
  793TIP3    H123794   4.748   3.726  16.536  1.2566 -3.7139  0.6388
  793TIP3    H223795   4.660   3.691  16.654 -1.1626 -2.0576 -0.5956
  794TIP3   OH223796   6.447   1.742  13.087  0.0987 -0.3286  0.0409
  794TIP3    H123797   6.494   1.778  13.163 -0.2044  0.0763  0.0395
  794TIP3    H223798   6.364   1.789  13.086  0.1986 -0.1584 -0.6845
  795TIP3   OH223799   2.892   0.144  12.949  0.3608  0.5595 -0.0305
  795TIP3    H123800   2.976   0.125  12.991  0.5109  1.8663  0.3316
  795TIP3    H223801   2.880   0.239  12.962 -1.3241  0.3485  0.2253
  796TIP3   OH223802   2.208   0.243   2.356  0.1835 -0.0354 -0.0448
  796TIP3    H123803   2.231   0.231   2.263  0.8850  1.9208 -0.1731
  796TIP3    H223804   2.113   0.237   2.358  0.1310  0.2809 -0.9892
  797TIP3   OH223805   4.861   2.482   2.147 -0.0924 -0.2183  0.1565
  797TIP3    H123806   4.843   2.388   2.140  0.5331 -0.3984  0.9022
  797TIP3    H223807   4.905   2.493   2.231  0.6028  0.6280 -0.2974
  798TIP3   OH223808   0.141   3.825  17.459 -0.3059  0.0417 -0.5419
  798TIP3    H123809   0.154   3.819  17.364  1.6607  1.2860 -0.4055
  798TIP3    H223810   0.048   3.846  17.469 -0.3793  0.6971 -2.2239
  799TIP3   OH223811   6.698   0.729   0.296 -0.3300 -0.3868  0.2802
  799TIP3    H123812   6.780   0.779   0.291 -1.0692  0.7957 -0.4320
  799TIP3    H223813   6.669   0.740   0.387 -0.0058 -0.3063  0.3761
  800TIP3   OH223814   6.371   5.764   0.717 -0.3815 -0.3207  0.5398
  800TIP3    H123815   6.392   5.815   0.639  0.9076  0.2894  1.2573
  800TIP3    H223816   6.299   5.708   0.690 -2.1431  2.1115 -0.2134
  801TIP3   OH223817   1.559   5.751  14.564 -0.4023 -0.1669 -0.6078
  801TIP3    H123818   1.569   5.724  14.473  0.4069 -1.1218 -0.2565
  801TIP3    H223819   1.465   5.745  14.581 -0.4545 -0.8607 -1.1261
  802TIP3   OH223820   3.304   0.673   2.215  0.0678 -0.2973 -0.3745
  802TIP3    H123821   3.302   0.627   2.132  0.8808 -2.2671  0.6230
  802TIP3    H223822   3.246   0.622   2.272  1.0488 -0.1411  0.7957
  803TIP3   OH223823   3.546   1.976  16.618  0.3990  0.9087  0.9004
  803TIP3    H123824   3.620   1.938  16.570 -2.5000 -1.6889 -2.0266
  803TIP3    H223825   3.549   2.069  16.596  2.6945  0.8935  0.8578
  804TIP3   OH223826   0.273   2.488   3.055 -0.3071  0.4100  0.3000
  804TIP3    H123827   0.285   2.576   3.019  0.7386  0.4827  0.7849
  804TIP3    H223828   0.357   2.467   3.095 -0.5367 -0.8152  0.1888
  805TIP3   OH223829   1.896   6.304  17.178  0.1666  0.0237  0.5661
  805TIP3    H123830   1.870   6.288  17.087  1.5438 -0.1260  0.1746
  805TIP3    H223831   1.987   6.273  17.182  0.5894  1.3336  1.6262
  806TIP3   OH223832   2.986   0.431   1.903 -0.0954 -0.5558 -0.2507
  806TIP3    H123833   2.924   0.501   1.883  1.8667  1.7170  1.0535
  806TIP3    H223834   3.035   0.418   1.822 -1.5005 -1.6226 -0.9695
  807TIP3   OH223835   1.259   2.848   5.890  0.4767  0.0548 -0.6149
  807TIP3    H123836   1.275   2.892   5.807  0.5071  0.5547 -0.3516
  807TIP3    H223837   1.333   2.872   5.945 -1.1433  2.5168  0.6650
  808TIP3   OH223838   6.034   5.922  14.220 -0.2904 -0.2340 -0.3105
  808TIP3    H123839   6.031   5.883  14.308 -0.8723 -0.5688 -0.4722
  808TIP3    H223840   5.957   5.887  14.176  0.6783 -1.0971 -1.3880
  809TIP3   OH223841   1.172   4.491   3.827 -0.0405  0.3407 -0.2003
  809TIP3    H123842   1.146   4.427   3.894  1.8565 -0.8318 -0.5181
  809TIP3    H223843   1.094   4.501   3.772 -1.2387  0.4096  1.4456
  810TIP3   OH223844   0.389   5.793   6.607 -0.8737 -0.1953  0.4563
  810TIP3    H123845   0.338   5.867   6.574  2.9410  1.3354 -2.8165
  810TIP3    H223846   0.445   5.831   6.675  0.6635 -0.0932 -0.8067
  811TIP3   OH223847   1.495   2.936   6.010 -0.3854  0.7115 -0.2380
  811TIP3    H123848   1.535   2.861   6.053 -0.1868  0.2380 -1.2234
  811TIP3    H223849   1.499   3.006   6.075 -0.5575 -0.1173  0.6902
  812TIP3   OH223850   2.708   2.932  14.528 -0.4916 -0.4059 -0.3011
  812TIP3    H123851   2.615   2.955  14.524 -0.1737  0.8234 -1.6732
  812TIP3    H223852   2.725   2.887  14.445  0.9730  3.2067 -2.2372
  813TIP3   OH223853   6.125   3.296  12.337 -0.3517 -0.5971  0.1266
  813TIP3    H123854   6.169   3.343  12.409  1.3891 -1.6259 -0.2005
  813TIP3    H223855   6.035   3.284  12.367  0.0386  0.0125  1.6298
  814TIP3   OH223856   2.117   1.501   5.755  0.4252  0.2091  0.1632
  814TIP3    H123857   2.161   1.416   5.762  1.2583  0.6172  0.0466
  814TIP3    H223858   2.189   1.564   5.745 -0.1956  0.8871 -0.1116
  815TIP3   OH223859   1.335   0.258  13.198  0.4598  0.5089 -0.1660
  815TIP3    H123860   1.304   0.176  13.160  1.0852 -0.0439  0.4880
  815TIP3    H223861   1.379   0.303  13.125  1.5725 -0.4970 -0.1515
  816TIP3   OH223862   2.383   0.526  15.119 -0.3017  0.2312 -0.3344
  816TIP3    H123863   2.350   0.615  15.102 -1.7530 -0.1449  0.3389
  816TIP3    H223864   2.414   0.496  15.034 -1.7027  0.6588 -1.0359
  817TIP3   OH223865   0.053   5.884   4.673  0.5461  0.4854 -0.2505
  817TIP3    H123866   0.026   5.898   4.582 -0.0289  2.2851  0.1491
  817TIP3    H223867   0.002   5.948   4.723  0.4556 -0.8316  1.4190
  818TIP3   OH223868   0.047   3.426   4.500  0.7837  1.0559 -0.6465
  818TIP3    H123869  -0.015   3.498   4.512 -0.7133 -0.1434 -0.9343
  818TIP3    H223870   0.064   3.424   4.405 -1.5674 -0.8093 -1.1170
  819TIP3   OH223871   0.098   5.162   1.570 -0.0348  0.0778  0.2244
  819TIP3    H123872   0.068   5.139   1.658 -0.8785 -0.1033 -0.0972
  819TIP3    H223873   0.144   5.084   1.540  1.0795  0.4712  0.8452
  820TIP3   OH223874   2.166   2.551  15.330  0.0482 -0.0167 -0.3867
  820TIP3    H123875   2.252   2.592  15.322  0.3150  0.0002  1.8631
  820TIP3    H223876   2.110   2.599  15.269  1.4976  0.2740 -1.5485
  821TIP3   OH223877   0.998   5.717  15.144 -0.4057 -0.3350 -0.5752
  821TIP3    H123878   1.017   5.803  15.181 -0.8440  0.2416 -1.6651
  821TIP3    H223879   0.988   5.732  15.050 -0.4872 -1.5745 -0.7837
  822TIP3   OH223880   3.895   4.723   0.019 -0.0561 -0.5323  0.4456
  822TIP3    H123881   3.824   4.753   0.075 -2.8276 -0.5994 -2.7394
  822TIP3    H223882   3.899   4.629   0.034 -1.2561 -0.6579  0.0166
  823TIP3   OH223883   0.279   3.696  14.855  0.0562  0.1853 -0.8154
  823TIP3    H123884   0.329   3.766  14.896 -1.7738  0.9773  0.1493
  823TIP3    H223885   0.267   3.726  14.764  1.7050 -0.2691 -1.2316
  824TIP3   OH223886   2.145   1.973   0.414  0.2703 -0.0791 -0.3776
  824TIP3    H123887   2.080   1.939   0.476  2.4406 -1.8734  1.0937
  824TIP3    H223888   2.147   1.909   0.344 -0.7997  0.9550 -1.4053
  825TIP3   OH223889   5.069   3.018  13.685  0.5365  0.0092 -0.4304
  825TIP3    H123890   4.985   3.055  13.658 -0.3526  1.1811  3.3456
  825TIP3    H223891   5.057   2.923  13.676 -0.5092  0.2263 -1.6300
  826TIP3   OH223892   5.916   6.654   3.342 -0.1225  0.1876 -0.0874
  826TIP3    H123893   5.858   6.595   3.390 -1.7975  2.6462  1.1190
  826TIP3    H223894   5.974   6.691   3.408  0.5618  0.2769 -0.7236
  827TIP3   OH223895   4.271   6.652   6.692  0.0079 -0.2210  0.4754
  827TIP3    H123896   4.356   6.696   6.694 -0.2955  0.3926  0.0273
  827TIP3    H223897   4.209   6.717   6.724 -0.1942 -0.9208  1.5691
  828TIP3   OH223898   0.474   4.663  13.502 -0.4899 -0.3701  0.2089
  828TIP3    H123899   0.471   4.571  13.474  1.9089  0.2001 -2.2780
  828TIP3    H223900   0.419   4.709  13.438 -0.6130  0.0985  0.6480
  829TIP3   OH223901   0.376   3.663  14.180 -0.3101 -0.0884  0.2222
  829TIP3    H123902   0.420   3.579  14.188 -0.4848 -0.3298 -1.0719
  829TIP3    H223903   0.430   3.712  14.118  0.2397  1.0735  1.5714
  830TIP3   OH223904   4.009   2.427  15.648 -0.1752  0.8554  0.1450
  830TIP3    H123905   4.025   2.346  15.697 -1.1389  0.1678 -0.6487
  830TIP3    H223906   4.058   2.494  15.696 -0.4276  0.0539  1.5811
  831TIP3   OH223907   0.309   3.269   2.034  1.1139 -0.1139 -0.0339
  831TIP3    H123908   0.330   3.282   1.941  0.0138  0.4792 -0.2177
  831TIP3    H223909   0.241   3.202   2.034  2.6669 -1.7561  0.5227
  832TIP3   OH223910   6.595   2.250   1.095  0.4097  0.5314 -0.3742
  832TIP3    H123911   6.659   2.230   1.163  0.1777  2.4549  0.4824
  832TIP3    H223912   6.575   2.166   1.055  0.4993 -0.7135  2.0187
  833TIP3   OH223913   5.341   0.838  16.015 -0.3424  0.0167  0.3603
  833TIP3    H123914   5.255   0.880  16.010  0.3629  1.4495 -0.3139
  833TIP3    H223915   5.356   0.826  16.108 -0.2920  1.9228  0.6389
  834TIP3   OH223916   2.373   4.328  14.523 -0.5674 -0.0282  0.2238
  834TIP3    H123917   2.402   4.407  14.478  2.1334 -0.2019  1.4487
  834TIP3    H223918   2.310   4.287  14.463  0.7599  1.1529 -2.0943
  835TIP3   OH223919   2.863   1.240   3.058 -0.2619 -0.0989  0.1964
  835TIP3    H123920   2.787   1.258   3.003  0.5946  0.7043 -0.7727
  835TIP3    H223921   2.917   1.181   3.006  2.0923  3.0827 -1.3622
  836TIP3   OH223922   3.649   2.170  16.456 -0.4746  0.4114  0.0964
  836TIP3    H123923   3.616   2.259  16.443 -0.2024  0.5731  0.4952
  836TIP3    H223924   3.660   2.136  16.367  0.2537  1.0892 -0.0928
  837TIP3   OH223925   1.472   4.824  11.484 -0.2398 -0.6869  0.1757
  837TIP3    H123926   1.406   4.891  11.503  1.8890  1.9368 -0.9219
  837TIP3    H223927   1.433   4.769  11.416 -2.5137 -1.3828  1.9584
  838TIP3   OH223928   4.346   6.199  15.965  0.0856  0.2609  0.1444
  838TIP3    H123929   4.434   6.180  15.996  0.4886  0.2037 -0.9902
  838TIP3    H223930   4.294   6.123  15.991  0.3591  0.3040  0.8319
  839TIP3   OH223931   0.584   5.508   2.892  0.4444  0.2229  0.0490
  839TIP3    H123932   0.534   5.428   2.904  0.7555 -0.1988 -1.2746
  839TIP3    H223933   0.537   5.556   2.824  0.9435  0.5781 -0.0576
  840TIP3   OH223934   0.032   1.000   4.897  0.0046  0.2460 -0.1664
  840TIP3    H123935   0.058   0.928   4.954 -1.4365  0.0424  0.2798
  840TIP3    H223936   0.099   1.002   4.829  0.1071 -1.4811 -0.1652
  841TIP3   OH223937   3.751   6.171   4.939 -0.0000 -0.2473 -0.0008
  841TIP3    H123938   3.838   6.131   4.943  0.9685  1.4585 -2.0569
  841TIP3    H223939   3.732   6.179   4.846 -2.8537 -1.4227  0.3616
  842TIP3   OH223940   5.941   1.614   3.755  0.6162  0.6924 -0.3079
  842TIP3    H123941   5.854   1.605   3.795  0.2185  2.6301 -0.6061
  842TIP3    H223942   5.955   1.532   3.708 -1.0322  0.3136 -0.1955
  843TIP3   OH223943   6.368   5.687   1.472  0.3100  0.7256  0.0483
  843TIP3    H123944   6.432   5.752   1.442  1.5309 -0.0732  0.8400
  843TIP3    H223945   6.405   5.603   1.445 -0.4322  0.2467  0.4908
  844TIP3   OH223946   1.462   3.798  16.610  0.3063 -0.8191  0.2621
  844TIP3    H123947   1.500   3.883  16.632  1.0736 -0.8023 -1.0502
  844TIP3    H223948   1.367   3.812  16.615  0.3836  0.5521 -1.4335
  845TIP3   OH223949   2.207   2.078  15.090  0.3246 -0.0972  0.1817
  845TIP3    H123950   2.111   2.079  15.080  0.4319 -0.5661 -1.0163
  845TIP3    H223951   2.240   2.057  15.003  1.3850 -3.7528  1.2773
  846TIP3   OH223952   0.804   3.692  13.821 -0.5042 -0.2305  0.3266
  846TIP3    H123953   0.857   3.640  13.881 -0.7994 -0.8101  0.0900
  846TIP3    H223954   0.744   3.629  13.781 -1.0428  0.3339  0.2300
  847TIP3   OH223955   0.264   0.536   2.151 -0.1584 -0.3509 -0.0511
  847TIP3    H123956   0.261   0.446   2.119 -0.5713  0.2194 -1.7211
  847TIP3    H223957   0.172   0.557   2.171  0.0388 -0.5509  1.1602
  848TIP3   OH223958   4.625   3.708   3.156 -0.0771  0.2102  0.3439
  848TIP3    H123959   4.554   3.673   3.102 -0.9247  0.2740  1.3999
  848TIP3    H223960   4.641   3.640   3.221 -0.9511  1.2595  1.7066
  849TIP3   OH223961   3.660   3.064  12.938 -0.4744 -0.0122 -0.2221
  849TIP3    H123962   3.671   2.969  12.939  1.4636  0.1280 -1.6271
  849TIP3    H223963   3.640   3.087  13.028 -0.3206 -1.6847  0.2774
  850TIP3   OH223964   0.429   5.112  13.097  0.0828 -0.0269  0.3983
  850TIP3    H123965   0.344   5.073  13.078  1.5339 -3.2136 -0.2104
  850TIP3    H223966   0.438   5.105  13.192 -0.5187  0.7914  0.5226
  851TIP3   OH223967   5.133   3.918   4.222 -0.6789  0.1477 -0.0041
  851TIP3    H123968   5.093   3.856   4.160 -0.1779 -1.4574  1.2085
  851TIP3    H223969   5.086   4.000   4.208 -1.5122 -0.5596 -1.5335
  852TIP3   OH223970   3.489   5.164  13.135  0.2486 -0.6045  0.1678
  852TIP3    H123971   3.518   5.241  13.086 -2.0545 -0.8767 -1.7798
  852TIP3    H223972   3.528   5.175  13.222 -0.2783  2.9297  0.0926
  853TIP3   OH223973   5.153   3.268  17.076  0.3891  0.3151 -0.0793
  853TIP3    H123974   5.127   3.271  17.168  1.2676  1.1151  0.1591
  853TIP3    H223975   5.085   3.217  17.034 -0.1094  0.0596  0.9892
  854TIP3   OH223976   5.239   0.061   2.456  0.4966  0.1721 -0.7155
  854TIP3    H123977   5.203  -0.018   2.417  1.2641 -0.3072 -0.4707
  854TIP3    H223978   5.164   0.120   2.465 -0.4797 -1.2023  0.8127
  855TIP3   OH223979   4.097   1.377  11.908 -0.0233  0.1655 -0.7442
  855TIP3    H123980   4.130   1.330  11.831  0.2020 -0.1213 -0.4782
  855TIP3    H223981   4.002   1.368  11.902  0.0279 -0.5162 -0.5817
  856TIP3   OH223982   4.804   4.414   4.508  0.4537  0.5891 -0.4815
  856TIP3    H123983   4.868   4.403   4.578 -2.2921 -1.0603  2.0004
  856TIP3    H223984   4.803   4.508   4.491  3.0672  0.7259 -0.2451
  857TIP3   OH223985   5.421   4.655   0.129 -0.0580 -0.3899 -0.1546
  857TIP3    H123986   5.407   4.604   0.208  1.3792  0.1918  0.5180
  857TIP3    H223987   5.460   4.737   0.160 -0.6040  0.3588 -1.3619
  858TIP3   OH223988   2.676   4.324   1.425  0.1495  0.3200 -0.2454
  858TIP3    H123989   2.762   4.280   1.426  0.3682  0.7065 -1.0880
  858TIP3    H223990   2.642   4.312   1.513  1.2472  0.4937  0.2190
  859TIP3   OH223991   3.340   1.036   5.728  0.1415 -0.2873 -0.1076
  859TIP3    H123992   3.317   0.946   5.704 -0.8544 -0.5962  1.8679
  859TIP3    H223993   3.400   1.027   5.802  0.3911  0.6980 -0.1711
  860TIP3   OH223994   4.093   6.440   5.605  0.0694 -0.0839 -0.2348
  860TIP3    H123995   4.085   6.344   5.606  2.0922 -0.2901 -0.7850
  860TIP3    H223996   4.090   6.463   5.512 -0.4935  0.4145 -0.0985
  861TIP3   OH223997   3.035   3.317   4.138 -0.1721  0.1373 -0.3372
  861TIP3    H123998   2.956   3.353   4.177  0.2607  0.7737 -0.0436
  861TIP3    H223999   3.081   3.276   4.211 -0.3498 -0.4580 -0.5533
  862TIP3   OH224000   6.536   0.635  14.682  0.3064 -0.5502 -0.3635
  862TIP3    H124001   6.534   0.717  14.731 -0.0247 -0.9452  0.2943
  862TIP3    H224002   6.495   0.656  14.598  0.2040 -0.0484 -0.1905
  863TIP3   OH224003   3.896   1.067   0.852  0.4505  0.1436  1.0793
  863TIP3    H124004   3.914   1.015   0.773  0.5486  0.6191  0.7835
  863TIP3    H224005   3.857   1.005   0.913 -3.8641  0.5953 -0.8718
  864TIP3   OH224006   5.298   3.110   2.431 -0.0345  0.6134  0.6414
  864TIP3    H124007   5.346   3.060   2.497  0.2435  0.4452  0.3165
  864TIP3    H224008   5.337   3.083   2.348 -1.0170  0.1179  0.3242
  865TIP3   OH224009   4.032   4.904  14.191 -0.1297 -0.6670  0.9096
  865TIP3    H124010   4.060   4.936  14.277 -0.6062 -0.6362  1.0568
  865TIP3    H224011   4.077   4.820  14.181  1.0378 -0.0306  0.5753
  866TIP3   OH224012   5.424   5.872  11.614 -0.1720 -0.1536  0.2998
  866TIP3    H124013   5.380   5.890  11.531  0.8781 -0.1170 -0.2705
  866TIP3    H224014   5.448   5.779  11.609  0.2489 -0.0526  0.3793
  867TIP3   OH224015   1.298   5.069  14.202  0.2701  0.4638  0.3591
  867TIP3    H124016   1.382   5.082  14.159  0.2174 -2.8155 -0.9711
  867TIP3    H224017   1.321   5.056  14.294  1.1989  0.0099  0.0811
  868TIP3   OH224018   5.125   1.109   1.855 -0.0976  0.3059  0.0576
  868TIP3    H124019   5.196   1.085   1.915 -0.9562 -1.6878  0.3509
  868TIP3    H224020   5.155   1.077   1.769 -0.7147 -0.7394  0.2226
  869TIP3   OH224021   1.537   2.991   2.157 -0.1430 -0.0952  0.7015
  869TIP3    H124022   1.481   2.984   2.234 -1.0846 -0.6905 -0.0231
  869TIP3    H224023   1.530   2.906   2.113  0.6860  0.0978  0.1615
  870TIP3   OH224024   5.118   6.663  15.344 -0.0143  0.2002 -0.3812
  870TIP3    H124025   5.046   6.727  15.339  0.1554  0.6850  1.8899
  870TIP3    H224026   5.194   6.710  15.310 -0.2922  0.5520 -0.5253
  871TIP3   OH224027   4.252   2.440   1.878 -0.5463 -0.1151  0.4232
  871TIP3    H124028   4.191   2.470   1.810  0.2522  1.7694  0.4687
  871TIP3    H224029   4.232   2.495   1.954  2.3383  1.9520 -0.1323
  872TIP3   OH224030   3.390   0.063  13.937  0.1817 -0.0522  0.6119
  872TIP3    H124031   3.394  -0.030  13.916 -1.3665  0.1183 -0.5782
  872TIP3    H224032   3.386   0.107  13.852  1.0102  1.1262  1.1457
  873TIP3   OH224033   3.485   5.184   5.388  0.5666 -0.0750  0.3560
  873TIP3    H124034   3.547   5.252   5.363  0.2970  2.0272  4.5567
  873TIP3    H224035   3.530   5.134   5.455 -0.1508 -2.6536 -0.9376
  874TIP3   OH224036   0.640   5.521   1.084 -0.0820  0.6377 -0.4275
  874TIP3    H124037   0.690   5.592   1.044 -2.5741  2.1229 -1.1815
  874TIP3    H224038   0.587   5.486   1.012 -0.6889 -0.3166  0.4637
  875TIP3   OH224039   1.793   1.696  14.976 -0.3981  0.0962  0.0210
  875TIP3    H124040   1.779   1.607  15.010  2.6768 -0.6676 -0.4057
  875TIP3    H224041   1.707   1.737  14.982 -1.6197 -2.4003  1.6568
  876TIP3   OH224042   4.763   0.348  15.416 -0.5803 -0.1521 -0.0447
  876TIP3    H124043   4.839   0.319  15.467  0.7878  1.1896 -1.1905
  876TIP3    H224044   4.693   0.358  15.480  0.9667  1.1366  1.5619
  877TIP3   OH224045   4.743   4.278  11.822 -0.0904 -0.4734 -0.3196
  877TIP3    H124046   4.747   4.361  11.868 -2.0177 -0.9522  0.8286
  877TIP3    H224047   4.835   4.256  11.802  0.6183  0.7917  1.3832
  878TIP3   OH224048   4.901   4.600   3.044 -0.3504  0.2955  0.6991
  878TIP3    H124049   4.816   4.570   3.013 -0.6133 -0.4419  2.0801
  878TIP3    H224050   4.904   4.693   3.021 -1.4143  0.2668  0.4278
  879TIP3   OH224051   2.235   3.178   1.956 -0.1205 -0.0015  0.2067
  879TIP3    H124052   2.307   3.155   2.015 -0.1372 -0.8895 -0.1040
  879TIP3    H224053   2.235   3.274   1.954 -1.3167  0.1782  3.1696
  880TIP3   OH224054   4.439   4.776   4.618  0.1864  0.6122 -0.3527
  880TIP3    H124055   4.455   4.683   4.633  1.1223  0.1799 -3.3354
  880TIP3    H224056   4.378   4.801   4.687 -0.1007 -2.2040  0.5515
  881TIP3   OH224057   6.093   1.126  14.552 -0.0430 -0.3054 -0.2917
  881TIP3    H124058   6.067   1.218  14.545 -0.5620 -0.2222  1.9401
  881TIP3    H224059   6.069   1.088  14.468 -1.9238  1.1307 -0.4776
  882TIP3   OH224060   5.309   5.286   5.646 -0.8119 -1.0404  0.7788
  882TIP3    H124061   5.249   5.226   5.689  0.5828 -2.4666  0.8299
  882TIP3    H224062   5.301   5.265   5.553 -2.7706  1.0536  0.4031
  883TIP3   OH224063   0.562   4.833  12.962  0.4824 -0.4702  0.2881
  883TIP3    H124064   0.476   4.836  12.921  0.3728  1.2777  0.5910
  883TIP3    H224065   0.544   4.821  13.056  0.5348  0.3129  0.4052
  884TIP3   OH224066   3.834   0.116  15.279 -0.4822  0.5409 -0.0174
  884TIP3    H124067   3.864   0.045  15.221 -0.6573  0.2096  0.2911
  884TIP3    H224068   3.833   0.194  15.223 -1.0430  0.1489 -0.5677
  885TIP3   OH224069   3.217   3.873  16.876 -0.5308  0.4984 -0.2062
  885TIP3    H124070   3.190   3.947  16.930  0.9013  0.2979  0.8648
  885TIP3    H224071   3.279   3.911  16.813 -0.5913  0.3954 -0.3259
  886TIP3   OH224072   5.646   0.893  13.435  0.1911  0.1253 -0.5045
  886TIP3    H124073   5.579   0.896  13.503 -0.6711  0.8606 -1.3599
  886TIP3    H224074   5.728   0.882  13.483 -0.3948  0.6206  0.6583
  887TIP3   OH224075   5.523   1.697   0.699 -0.3563  0.8523  0.0133
  887TIP3    H124076   5.575   1.632   0.745  0.0908  0.9022 -0.4137
  887TIP3    H224077   5.433   1.666   0.707 -0.0472 -0.4375 -1.1663
  888TIP3   OH224078   2.502   3.413   4.570 -0.8394  0.2254 -0.1681
  888TIP3    H124079   2.509   3.507   4.555  1.2981  0.9363  3.7521
  888TIP3    H224080   2.415   3.390   4.538 -1.9384  3.7959 -0.2453
  889TIP3   OH224081   1.981   1.131   2.110  0.3548  0.0188 -0.0485
  889TIP3    H124082   1.917   1.098   2.173  0.9763 -1.4835 -0.1661
  889TIP3    H224083   2.017   1.210   2.150  0.8915 -1.0173  1.5866
  890TIP3   OH224084   0.017   3.047  17.044 -0.1536  0.4282  0.0631
  890TIP3    H124085  -0.054   3.109  17.030 -0.7041  0.4444  2.5262
  890TIP3    H224086  -0.005   3.002  17.126  1.3429 -1.4798 -0.4964
  891TIP3   OH224087   5.055   6.237   3.088 -0.2090  0.4226  0.1954
  891TIP3    H124088   5.124   6.304   3.090 -0.3163  0.8397 -3.0648
  891TIP3    H224089   4.973   6.288   3.086 -0.3885  0.1214 -0.2530
  892TIP3   OH224090   6.267   6.157   2.805 -0.1209 -0.0521 -0.0053
  892TIP3    H124091   6.253   6.250   2.785 -0.6257 -0.2881 -0.8107
  892TIP3    H224092   6.356   6.138   2.774 -0.6428 -0.2426 -1.4652
  893TIP3   OH224093   5.027   6.684  13.596  0.2074 -1.3327 -0.4005
  893TIP3    H124094   4.998   6.765  13.554 -0.8114  0.0246  2.5949
  893TIP3    H224095   5.114   6.703  13.629  0.0545 -1.5084  0.1245
  894TIP3   OH224096   2.090   5.400  13.391 -0.3664  0.3060 -0.5129
  894TIP3    H124097   2.052   5.317  13.362 -0.4067  0.1741 -0.0954
  894TIP3    H224098   2.098   5.452  13.311  1.5567 -0.8316 -1.1050
  895TIP3   OH224099   2.350   3.846   0.581  0.6122  0.6262 -0.1325
  895TIP3    H124100   2.376   3.761   0.544  0.8256  0.4712  0.3703
  895TIP3    H224101   2.428   3.901   0.571  0.7533  0.5107  0.3038
  896TIP3   OH224102   6.481   2.334  17.362  0.5616 -0.5162  0.2971
  896TIP3    H124103   6.536   2.347  17.285  1.1734  1.7811  1.0591
  896TIP3    H224104   6.542   2.313  17.432  0.1797 -0.7462  0.5687
  897TIP3   OH224105   6.379   2.752   5.052 -0.0383  0.1283 -0.1313
  897TIP3    H124106   6.433   2.747   4.974 -0.4363  0.3416 -0.4212
  897TIP3    H224107   6.441   2.770   5.123  0.3380 -0.2047 -0.3710
  898TIP3   OH224108   5.287   1.131  16.499 -0.1354  0.5448  0.2728
  898TIP3    H124109   5.379   1.134  16.475 -0.2995  0.9840 -0.3375
  898TIP3    H224110   5.240   1.144  16.416 -0.7464  0.0949  0.5409
  899TIP3   OH224111   2.703   5.387  12.459 -0.1355 -0.3199 -1.0543
  899TIP3    H124112   2.639   5.425  12.399  0.1304  1.2858 -0.3771
  899TIP3    H224113   2.784   5.434  12.442 -0.2768  0.8667  1.1623
  900TIP3   OH224114   0.074   3.412  12.578  0.1651 -0.3281 -0.0083
  900TIP3    H124115   0.020   3.383  12.504 -1.9567 -1.6493  1.8999
  900TIP3    H224116   0.033   3.493  12.608  0.9926  0.1864 -0.2389
  901TIP3   OH224117   3.037   0.408   4.105  0.1262 -0.0327  0.0749
  901TIP3    H124118   3.034   0.343   4.176  0.0043  2.3568  2.4347
  901TIP3    H224119   3.123   0.395   4.064  0.5021 -1.0519  1.1321
  902TIP3   OH224120   1.736   1.832  11.293  0.0709  0.8145  0.8389
  902TIP3    H124121   1.807   1.849  11.354 -0.2850  2.0549  0.9297
  902TIP3    H224122   1.776   1.839  11.206  0.0972  1.3566  0.8926
  903TIP3   OH224123   5.263   2.677   2.604 -0.2859  0.2945  0.1692
  903TIP3    H124124   5.324   2.609   2.636  0.6416  1.1973  0.3740
  903TIP3    H224125   5.269   2.747   2.669 -0.0072  1.2498 -0.8515
  904TIP3   OH224126   6.368   4.557  11.550  0.3043 -0.6305 -0.2644
  904TIP3    H124127   6.348   4.467  11.578 -2.8773  0.4798  1.5594
  904TIP3    H224128   6.326   4.566  11.465  0.9407 -0.9495 -0.6180
  905TIP3   OH224129   2.810   3.633   5.022 -0.4855 -0.3970  0.1281
  905TIP3    H124130   2.855   3.639   5.106 -0.2496  1.4934 -0.0857
  905TIP3    H224131   2.743   3.701   5.026 -0.1422  0.0658 -1.3917
  906TIP3   OH224132   0.960   6.685   2.566 -0.5354 -0.1040  0.0993
  906TIP3    H124133   0.875   6.645   2.581 -1.7451  2.1081 -0.3481
  906TIP3    H224134   0.943   6.753   2.500  1.1983  1.5499  1.2318
  907TIP3   OH224135   6.167   2.218  12.875 -0.4069 -0.0947  0.0429
  907TIP3    H124136   6.096   2.276  12.905 -1.4245 -2.2220  2.0618
  907TIP3    H224137   6.206   2.185  12.955  1.8382 -0.2686 -1.0644
  908TIP3   OH224138   1.886   3.111  15.645 -0.2247  0.0606  0.2451
  908TIP3    H124139   1.815   3.090  15.583 -2.1158 -0.7310  2.5304
  908TIP3    H224140   1.966   3.083  15.600 -1.4045  0.2383 -2.1277
  909TIP3   OH224141   2.045   6.392  15.847 -0.2764  0.1987  0.3702
  909TIP3    H124142   2.113   6.330  15.823 -0.8500 -0.5882  0.7148
  909TIP3    H224143   2.033   6.379  15.941 -0.0115  1.2417  0.5614
  910TIP3   OH224144   1.764   5.011  12.495  0.3493 -0.0305 -0.3803
  910TIP3    H124145   1.733   4.933  12.451  1.3215 -0.9517  0.4918
  910TIP3    H224146   1.708   5.020  12.572 -0.1617  0.5033 -0.8083
  911TIP3   OH224147   4.662   2.524   2.515 -0.2564 -0.5684  0.2034
  911TIP3    H124148   4.664   2.586   2.587  0.5572 -1.1116  0.6663
  911TIP3    H224149   4.639   2.576   2.438  1.2779  0.4640  0.4172
  912TIP3   OH224150   5.932   2.463  15.784 -0.0473  0.1605  0.6815
  912TIP3    H124151   5.850   2.460  15.735  0.6473  1.0129 -0.5640
  912TIP3    H224152   5.919   2.532  15.849 -0.9789 -0.9927  1.7881
  913TIP3   OH224153   5.255   1.720  14.787  0.0340 -0.1138 -0.1494
  913TIP3    H124154   5.196   1.647  14.805  3.4655 -2.5871  2.6083
  913TIP3    H224155   5.235   1.784  14.856 -0.3529 -0.2784 -0.1064
  914TIP3   OH224156   1.021   3.675   4.296 -0.2075  0.3653  0.2504
  914TIP3    H124157   0.993   3.632   4.216  0.2074 -1.5586  1.0875
  914TIP3    H224158   1.102   3.721   4.271  0.0984 -0.4851 -0.3520
  915TIP3   OH224159   3.703   3.515  16.616 -0.2211 -0.1196 -0.8975
  915TIP3    H124160   3.740   3.499  16.703 -1.5676  0.2184 -0.2338
  915TIP3    H224161   3.678   3.608  16.618 -2.7771 -0.7581 -0.6132
  916TIP3   OH224162   2.456   5.997   4.992  0.5999  0.1828  0.0957
  916TIP3    H124163   2.472   6.020   5.084  1.1233 -1.1380  0.3451
  916TIP3    H224164   2.434   5.904   4.993 -0.2909  0.3564 -1.0316
  917TIP3   OH224165   2.479   3.037  15.986 -0.3095 -0.0512 -0.1699
  917TIP3    H124166   2.543   2.966  15.978 -0.6849 -0.5767  1.3399
  917TIP3    H224167   2.419   3.024  15.912  1.2314  0.4052 -1.5798
  918TIP3   OH224168   1.250   6.486   1.600  0.1544 -0.2840  0.7188
  918TIP3    H124169   1.338   6.468   1.567  0.3756  2.1127 -0.1246
  918TIP3    H224170   1.205   6.401   1.596  1.6837 -1.0667 -1.0956
  919TIP3   OH224171   5.194   6.239   0.112 -0.0120 -0.3082  0.2778
  919TIP3    H124172   5.167   6.209   0.199 -4.1977 -0.9672 -1.0183
  919TIP3    H224173   5.169   6.332   0.111 -0.0242 -0.3178 -0.2228
  920TIP3   OH224174   0.380   1.408   5.430 -0.0990  0.1952 -0.4897
  920TIP3    H124175   0.437   1.484   5.428 -0.9074  1.0343  2.3937
  920TIP3    H224176   0.422   1.349   5.493 -0.5243 -0.8562 -1.1629
  921TIP3   OH224177   0.163   0.254  15.777 -0.2247 -0.6549 -0.1554
  921TIP3    H124178   0.223   0.315  15.733 -0.1242  0.1660  1.0610
  921TIP3    H224179   0.195   0.167  15.752  1.3972 -0.2382  0.3120
  922TIP3   OH224180   1.730   3.943   4.639  0.3986 -0.0476 -0.3874
  922TIP3    H124181   1.660   3.985   4.588  0.5523  0.5487 -0.1104
  922TIP3    H224182   1.794   4.012   4.654 -0.5030  0.3523  2.2460
  923TIP3   OH224183   2.806   1.746   3.105 -0.0426 -0.3850  0.0608
  923TIP3    H124184   2.849   1.707   3.182 -1.3078 -0.6994  0.6246
  923TIP3    H224185   2.862   1.820   3.082  0.8545 -0.8288  0.7149
  924TIP3   OH224186   5.108   0.960  11.461  0.1903  0.1048  0.1455
  924TIP3    H124187   5.044   1.008  11.408  1.1941 -0.7751 -1.9698
  924TIP3    H224188   5.173   1.026  11.485  0.4141  0.2802 -0.8851
  925TIP3   OH224189   0.592   4.327   5.180 -0.5757  0.3810 -0.3550
  925TIP3    H124190   0.514   4.306   5.129 -1.0360 -3.7248  1.6200
  925TIP3    H224191   0.664   4.287   5.132  0.1509  2.6079 -1.2420
  926TIP3   OH224192   6.683   3.488   1.413  0.2663 -0.0257  0.1114
  926TIP3    H124193   6.756   3.549   1.424  1.8389 -1.9242  0.8160
  926TIP3    H224194   6.606   3.539   1.438  1.4733  1.7169  0.5097
  927TIP3   OH224195   5.737   4.440  14.809  0.3192  0.1310 -0.1198
  927TIP3    H124196   5.756   4.346  14.813  1.2521  0.3404  0.6923
  927TIP3    H224197   5.714   4.464  14.899 -1.3395  0.4148 -0.5874
  928TIP3   OH224198   5.314   0.357   6.187  0.2832 -0.3475 -0.0907
  928TIP3    H124199   5.363   0.440   6.195 -0.9637  0.4275 -0.2202
  928TIP3    H224200   5.302   0.328   6.277 -0.7433  0.5236  0.0724
  929TIP3   OH224201   1.510   0.431  16.140 -0.1655  0.5051  0.2039
  929TIP3    H124202   1.598   0.434  16.178 -0.2737  1.4810  0.3888
  929TIP3    H224203   1.452   0.422  16.216 -0.2546  0.2020  0.1030
  930TIP3   OH224204   5.952   5.134  11.795 -0.1156 -0.0607  0.0218
  930TIP3    H124205   5.919   5.200  11.856  1.2462  0.4385  0.2498
  930TIP3    H224206   5.895   5.142  11.718  0.0180  1.4004  0.0362
  931TIP3   OH224207   0.390   1.081  13.298  0.1087 -0.4418  0.1954
  931TIP3    H124208   0.342   1.156  13.332 -1.3340 -1.4802  0.4885
  931TIP3    H224209   0.337   1.005  13.320  0.8727 -1.4583 -1.2590
  932TIP3   OH224210   6.336   1.825  14.572  0.2226  0.7936  0.1789
  932TIP3    H124211   6.392   1.839  14.649 -0.0884 -1.5847  0.9080
  932TIP3    H224212   6.397   1.798  14.503  0.0999 -1.6052  0.9186
  933TIP3   OH224213   0.309   3.041  12.181 -0.1031 -0.5109 -0.8014
  933TIP3    H124214   0.255   2.965  12.158 -0.8002  0.2759 -1.8935
  933TIP3    H224215   0.250   3.098  12.231  0.4112 -0.6882  0.0065
  934TIP3   OH224216   5.059   2.474   5.403 -0.2710  0.2238  0.7019
  934TIP3    H124217   5.039   2.548   5.461 -0.8098  0.0397  0.7551
  934TIP3    H224218   5.030   2.504   5.316  0.7956  0.6096  0.4643
  935TIP3   OH224219   3.628   3.191   0.073 -0.3024  0.8661 -0.2417
  935TIP3    H124220   3.701   3.145   0.114 -1.5711  0.5502  1.8805
  935TIP3    H224221   3.598   3.133   0.004 -0.3368 -0.3985  0.7958
  936TIP3   OH224222   4.216   5.858   4.963 -0.1836 -0.1324  0.1266
  936TIP3    H124223   4.149   5.893   4.905 -2.7800  1.1743  3.5944
  936TIP3    H224224   4.172   5.789   5.012  1.9469 -1.3358  0.4566
  937TIP3   OH224225   1.512   6.733  13.083  0.4511  0.6446  0.7465
  937TIP3    H124226   1.556   6.693  13.158  0.6687 -1.8177 -0.5724
  937TIP3    H224227   1.433   6.772  13.120  1.1882  0.6728  2.4116
  938TIP3   OH224228   3.363   4.516   1.790  0.0277  0.0985  0.2567
  938TIP3    H124229   3.321   4.576   1.728 -2.6815 -1.3397  0.5495
  938TIP3    H224230   3.307   4.518   1.868  2.5435  0.7635  2.2263
  939TIP3   OH224231   5.381   4.702  15.032  0.0490 -0.4222  0.1149
  939TIP3    H124232   5.356   4.611  15.022  0.4491 -0.5240  0.0034
  939TIP3    H224233   5.302   4.752  15.013 -0.3665 -0.7644  0.9123
  940TIP3   OH224234   2.947   0.329  13.293 -0.5776 -0.1664 -0.4334
  940TIP3    H124235   2.994   0.352  13.213  1.1943  0.6274  0.7455
  940TIP3    H224236   2.895   0.407  13.314  0.8684  0.6203  0.4327
  941TIP3   OH224237   1.362   6.587   6.162 -0.5589  0.0943 -0.4905
  941TIP3    H124238   1.349   6.552   6.250  2.5351  1.0176  0.4532
  941TIP3    H224239   1.423   6.526   6.120  1.5045  1.9294 -0.3350
  942TIP3   OH224240   2.972   4.473  15.102  0.2802 -0.1985 -0.1814
  942TIP3    H124241   2.998   4.520  15.022 -0.6220  0.2770 -0.2111
  942TIP3    H224242   2.989   4.381  15.082  0.9355 -0.0071 -0.5710
  943TIP3   OH224243   0.019   0.209   5.278 -0.1633  0.3541  0.3517
  943TIP3    H124244   0.006   0.264   5.201  0.5995  1.2957  0.8791
  943TIP3    H224245   0.060   0.130   5.243  0.8595  1.0725 -0.1403
  944TIP3   OH224246   0.632   4.451   5.625 -0.5581 -0.1386  0.0647
  944TIP3    H124247   0.670   4.513   5.688 -1.2304  1.2352 -0.8297
  944TIP3    H224248   0.591   4.507   5.558 -2.0102 -1.5472 -0.2912
  945TIP3   OH224249   3.092   6.590   0.600  0.0060  0.1094  0.2162
  945TIP3    H124250   3.000   6.615   0.609 -0.6569 -2.1612  0.5483
  945TIP3    H224251   3.098   6.507   0.647  2.0615 -0.1595 -0.4355
  946TIP3   OH224252   3.834   2.633  14.622  0.0350 -0.0540 -0.4698
  946TIP3    H124253   3.907   2.573  14.610  0.7158  0.5196  0.7006
  946TIP3    H224254   3.796   2.643  14.534  1.4502 -0.2389 -1.1220
  947TIP3   OH224255   5.804   3.463   2.324  0.0435 -0.5484  0.6207
  947TIP3    H124256   5.767   3.441   2.238  0.8895  0.3016 -0.0009
  947TIP3    H224257   5.746   3.531   2.359 -1.6006 -2.4574  1.7819
  948TIP3   OH224258   1.577   5.147   6.033 -0.1168  0.0439 -0.1933
  948TIP3    H124259   1.591   5.242   6.027 -0.3192  0.2344  1.8869
  948TIP3    H224260   1.654   5.110   5.989  1.0347  1.1804  0.7643
  949TIP3   OH224261   1.432   2.881  12.916 -0.0460  0.2133 -0.5383
  949TIP3    H124262   1.436   2.974  12.895  0.2165  0.6511  1.2533
  949TIP3    H224263   1.376   2.843  12.849  1.7278  1.2118 -2.7006
  950TIP3   OH224264   1.344   0.274  14.792 -0.0952 -0.0392  0.2368
  950TIP3    H124265   1.249   0.270  14.779  0.1519 -3.0786 -1.8576
  950TIP3    H224266   1.377   0.318  14.713  0.2798  0.7961  0.8452
  951TIP3   OH224267   4.605   3.233  11.353 -0.0029 -0.0009  0.2136
  951TIP3    H124268   4.514   3.252  11.376 -0.4604  0.4655 -1.8409
  951TIP3    H224269   4.609   3.138  11.351 -0.6602 -0.0264 -0.4091
  952TIP3   OH224270   5.848   5.605  11.017 -0.0187 -0.4378  0.1585
  952TIP3    H124271   5.776   5.542  11.012 -1.4039  1.1110 -0.0755
  952TIP3    H224272   5.899   5.589  10.937  0.0465 -1.6756  0.4181
  953TIP3   OH224273   2.523   3.444   3.810  0.1039 -0.7580  0.6171
  953TIP3    H124274   2.497   3.477   3.724  2.7389 -0.1868 -0.0382
  953TIP3    H224275   2.456   3.478   3.869 -0.2211  1.2992 -0.8142
  954TIP3   OH224276   3.779   2.895   4.161  0.3031 -0.6372 -0.0385
  954TIP3    H124277   3.776   2.981   4.202 -1.2665 -0.8192  0.2641
  954TIP3    H224278   3.720   2.902   4.086 -1.2012 -1.9183  0.9582
  955TIP3   OH224279   2.348   6.249  12.843  0.2046 -0.1796 -0.5403
  955TIP3    H124280   2.356   6.154  12.842 -1.2210 -0.3219 -2.0550
  955TIP3    H224281   2.387   6.277  12.760  1.5314  0.6897  0.3214
  956TIP3   OH224282   1.437   5.969  12.193  0.1135 -0.4216  0.1683
  956TIP3    H124283   1.347   5.983  12.222  0.3631 -0.3610  0.9256
  956TIP3    H224284   1.430   5.900  12.127 -0.6228  0.3670 -0.6177
  957TIP3   OH224285   2.164   1.288   1.750  0.4522 -0.3615 -0.5820
  957TIP3    H124286   2.244   1.323   1.789  1.5006 -1.6944 -1.4229
  957TIP3    H224287   2.142   1.350   1.680  1.8229 -0.8942 -1.5339
  958TIP3   OH224288   5.323   1.227   4.686  0.1068 -0.2446 -0.2397
  958TIP3    H124289   5.316   1.140   4.724 -2.3695  0.9618  2.4864
  958TIP3    H224290   5.259   1.228   4.615 -0.3597 -0.4498  0.1764
  959TIP3   OH224291   1.046   2.476  14.622 -1.5587  0.0984  0.1482
  959TIP3    H124292   1.053   2.381  14.631  0.3596 -0.2154 -3.1774
  959TIP3    H224293   0.971   2.489  14.564 -2.2301  0.7221  1.1177
  960TIP3   OH224294   4.451   4.452   0.330  0.3171  0.2660 -0.1598
  960TIP3    H124295   4.507   4.445   0.253  1.0610 -1.3562  0.4659
  960TIP3    H224296   4.380   4.390   0.314  0.1945  0.3095  0.2075
  961TIP3   OH224297   4.849   1.999  16.660  0.4231  0.2828  0.0540
  961TIP3    H124298   4.895   1.933  16.607  0.1568 -0.4370  0.6962
  961TIP3    H224299   4.871   2.082  16.619  1.1027 -0.1706 -0.5297
  962TIP3   OH224300   3.966   5.793  16.399 -0.0185  0.2288  0.6382
  962TIP3    H124301   3.986   5.833  16.314 -1.2279  0.8523  0.6210
  962TIP3    H224302   4.044   5.744  16.422 -0.0112 -0.7266 -1.2836
  963TIP3   OH224303   0.931   2.368   2.202 -0.0104  0.2327  0.2240
  963TIP3    H124304   0.880   2.390   2.124 -1.1051 -0.4844  0.7109
  963TIP3    H224305   0.942   2.273   2.197  0.6612  0.2883  0.5149
  964TIP3   OH224306   0.284   0.451  15.629  0.4294 -0.3898 -0.0672
  964TIP3    H124307   0.335   0.527  15.598 -0.6846  1.5063  2.4297
  964TIP3    H224308   0.203   0.455  15.578  0.7593 -0.5046 -0.6142
  965TIP3   OH224309   5.024   4.293  11.219 -0.5186  0.2142 -0.2971
  965TIP3    H124310   4.992   4.320  11.133  1.9023  0.5277 -1.1674
  965TIP3    H224311   4.966   4.338  11.281 -1.8213  0.6132 -1.7461
  966TIP3   OH224312   3.663   0.561  16.900 -0.2114  0.0573 -0.3604
  966TIP3    H124313   3.652   0.474  16.861 -1.7723  0.8334 -1.7707
  966TIP3    H224314   3.621   0.555  16.985  1.4541 -1.0892  0.4539
  967TIP3   OH224315   6.142   4.627   3.865 -0.4669  0.4033  0.0728
  967TIP3    H124316   6.161   4.633   3.771  0.1074 -1.4424  0.0344
  967TIP3    H224317   6.104   4.712   3.887  0.2817  1.2246 -1.6185
  968TIP3   OH224318   6.483   4.019  12.942  0.3263  0.6395 -0.2099
  968TIP3    H124319   6.458   4.108  12.964  2.1968  0.8129  1.5335
  968TIP3    H224320   6.466   3.968  13.021  2.3872  0.1818  0.0079
  969TIP3   OH224321   1.608   3.145   5.507  0.4342 -0.3650 -0.3670
  969TIP3    H124322   1.679   3.091   5.473 -0.3863 -0.6451 -1.7323
  969TIP3    H224323   1.621   3.231   5.466  0.1100 -0.3655 -0.4765
  970TIP3   OH224324   0.320   4.002  17.031  0.4395 -0.9721 -0.3686
  970TIP3    H124325   0.352   4.074  16.976  0.4234 -0.9855 -0.3957
  970TIP3    H224326   0.374   4.006  17.110  2.5018 -2.8155 -1.5860
  971TIP3   OH224327   6.084   5.360  11.428 -0.0607 -0.4890  0.1272
  971TIP3    H124328   6.149   5.372  11.359 -0.9587  0.4243 -0.5825
  971TIP3    H224329   6.001   5.380  11.386 -0.4424  2.4154  2.0476
  972TIP3   OH224330   2.582   5.187  14.603 -0.0020 -0.1737 -0.1042
  972TIP3    H124331   2.504   5.192  14.549 -0.8710  1.3671  1.2032
  972TIP3    H224332   2.594   5.276  14.637  1.6156 -0.6495  0.6858
  973TIP3   OH224333   6.437   0.136  15.675  0.2277 -0.8122 -0.1104
  973TIP3    H124334   6.425   0.041  15.679 -1.4894 -0.5874  1.2220
  973TIP3    H224335   6.353   0.172  15.701  0.6397  1.1073 -1.2532
  974TIP3   OH224336   6.663   6.526   4.676  0.0201 -0.8223 -0.3732
  974TIP3    H124337   6.690   6.610   4.712  1.5762 -1.2971 -0.3881
  974TIP3    H224338   6.568   6.524   4.690  0.1600  0.2917  0.9766
  975TIP3   OH224339   4.004   2.867   1.205 -0.2349 -0.0284 -0.0981
  975TIP3    H124340   4.041   2.786   1.170 -1.0211 -0.0090 -1.0040
  975TIP3    H224341   4.011   2.930   1.133 -2.0518 -0.0393 -0.3424
  976TIP3   OH224342   2.568   1.240  11.123  0.1618  0.5836  0.5665
  976TIP3    H124343   2.622   1.162  11.132  1.3378  1.1837 -0.9954
  976TIP3    H224344   2.599   1.299  11.191  0.5448  0.4072  0.5429
  977TIP3   OH224345   0.605   5.447  15.093  0.0711  0.2922 -0.5567
  977TIP3    H124346   0.701   5.456  15.095  0.1428 -0.4752  0.6094
  977TIP3    H224347   0.572   5.536  15.100  0.7107  0.5117 -0.2607
  978TIP3   OH224348   3.984   6.459   5.364 -0.0135  0.1492  0.2411
  978TIP3    H124349   4.037   6.433   5.289  1.1081 -0.6614  1.2867
  978TIP3    H224350   3.956   6.548   5.343  0.5824  0.0725 -0.9721
  979TIP3   OH224351   2.812   5.441   5.325 -0.3241 -0.3069  0.2854
  979TIP3    H124352   2.728   5.443   5.278 -0.3360  0.1591  0.3302
  979TIP3    H224353   2.860   5.369   5.283 -1.3195 -1.5866  1.2497
  980TIP3   OH224354   4.792   5.902   0.426  0.2428  0.1463  0.0816
  980TIP3    H124355   4.739   5.830   0.460  0.2215  0.4821  0.7921
  980TIP3    H224356   4.847   5.862   0.358 -0.4299 -0.3434 -0.1842
  981TIP3   OH224357   5.683   6.126   2.302 -0.0066 -0.3097 -0.0664
  981TIP3    H124358   5.742   6.053   2.281  2.2571  0.8236  1.8933
  981TIP3    H224359   5.596   6.094   2.275  1.1585 -2.8868 -1.1805
  982TIP3   OH224360   6.499   0.765   1.829  0.0275 -0.1293 -0.2679
  982TIP3    H124361   6.416   0.806   1.804 -0.2264 -0.6499 -0.2959
  982TIP3    H224362   6.510   0.694   1.765 -0.2577 -1.0126  0.6332
  983TIP3   OH224363   6.476   5.383   3.442 -0.0363  0.0810  0.0707
  983TIP3    H124364   6.420   5.411   3.514  0.9769  0.8763  0.5801
  983TIP3    H224365   6.456   5.443   3.371  0.5382  0.7163  0.4324
  984TIP3   OH224366   4.125   5.246   4.360  0.4807 -0.3425  0.4792
  984TIP3    H124367   4.152   5.318   4.417  2.7564 -0.2816 -0.5738
  984TIP3    H224368   4.207   5.208   4.329 -0.6144 -0.2963 -2.8510
  985TIP3   OH224369   1.946   6.487   6.377 -0.1468  0.4737 -0.2734
  985TIP3    H124370   2.027   6.535   6.396  0.1011 -0.0682  0.0391
  985TIP3    H224371   1.878   6.555   6.374  0.0687  0.7540  0.9519
  986TIP3   OH224372   3.659   3.270   1.976 -1.1898  0.4880 -0.1188
  986TIP3    H124373   3.576   3.317   1.968 -0.8176  1.2867  0.4572
  986TIP3    H224374   3.717   3.313   1.913 -1.3781 -0.4726 -0.9642
  987TIP3   OH224375   2.609   1.712   4.059 -0.0956 -0.1673 -0.2087
  987TIP3    H124376   2.592   1.676   3.973  0.0185  0.1104 -0.3497
  987TIP3    H224377   2.702   1.696   4.074 -0.0481  0.0484 -0.2648
  988TIP3   OH224378   5.153   3.347   2.398  0.2897 -0.3953 -0.0111
  988TIP3    H124379   5.199   3.268   2.426  3.2131  0.9928 -0.5564
  988TIP3    H224380   5.216   3.418   2.411 -1.5664  1.6193 -1.2553
  989TIP3   OH224381   4.089   4.358   1.647 -0.0615  0.2645 -0.0037
  989TIP3    H124382   4.059   4.356   1.556  1.0055 -0.5655 -0.3609
  989TIP3    H224383   4.176   4.319   1.644 -0.6195 -1.2197  1.6122
  990TIP3   OH224384   2.935   4.857   2.227 -0.5459  0.1369 -0.2643
  990TIP3    H124385   2.907   4.843   2.137 -0.4374 -1.3362 -0.0979
  990TIP3    H224386   2.874   4.807   2.280  2.2593 -3.2869  0.1016
  991TIP3   OH224387   2.256   0.229  15.677  0.1125  0.5264 -0.2775
  991TIP3    H124388   2.201   0.230  15.598  1.9363  1.4258 -1.6002
  991TIP3    H224389   2.343   0.254  15.646  1.6788 -2.2668  1.4735
  992TIP3   OH224390   6.243   0.747  17.215 -0.0275  0.3131 -0.6490
  992TIP3    H124391   6.320   0.801  17.234 -0.7682  1.1241  0.1382
  992TIP3    H224392   6.279   0.661  17.191  1.1652  1.0429 -1.6148
  993TIP3   OH224393   0.999   6.099   6.392  0.2298 -0.5181 -0.1571
  993TIP3    H124394   1.065   6.119   6.327  0.4436  0.2960  0.3045
  993TIP3    H224395   0.917   6.132   6.355 -0.1491 -2.4631 -1.2069
  994TIP3   OH224396   3.727   4.762  16.610  0.1538 -0.4251  0.2231
  994TIP3    H124397   3.803   4.727  16.657 -0.4313  0.5089  1.9755
  994TIP3    H224398   3.732   4.856  16.622  0.1053 -0.1097 -1.9055
  995TIP3   OH224399   5.955   3.507  13.827 -0.2889 -0.4093 -0.0966
  995TIP3    H124400   6.021   3.508  13.758  0.2218  0.7890  0.3822
  995TIP3    H224401   5.957   3.417  13.860  2.2962 -0.0588  0.9818
  996TIP3   OH224402   4.460   2.697   5.547 -0.3808 -0.4741  0.1946
  996TIP3    H124403   4.427   2.642   5.618  0.6708 -1.5449 -0.1223
  996TIP3    H224404   4.472   2.783   5.588  0.4730 -1.1410  1.4300
  997TIP3   OH224405   0.819   1.212  10.876 -0.1692 -0.1038 -0.1104
  997TIP3    H124406   0.797   1.222  10.969  2.8241 -1.1448  0.8331
  997TIP3    H224407   0.900   1.263  10.866  1.0943 -2.2456 -1.4241
  998TIP3   OH224408   3.880   6.024  11.878  0.2382 -0.5486  0.0142
  998TIP3    H124409   3.836   6.079  11.943 -0.3145 -0.2849 -0.5688
  998TIP3    H224410   3.951   6.078  11.845  0.8020 -0.8484  0.7101
  999TIP3   OH224411   1.155   5.503   3.119  0.1269 -0.4709 -0.1883
  999TIP3    H124412   1.091   5.517   3.050 -0.2617  1.4946  0.5120
  999TIP3    H224413   1.103   5.489   3.198  0.5521 -0.3762  0.1112
 1000TIP3   OH224414   5.106   4.467  14.848 -0.3749 -0.0427 -0.0743
 1000TIP3    H124415   5.045   4.501  14.913 -1.5853 -2.4375  0.1551
 1000TIP3    H224416   5.192   4.476  14.889 -0.8415  0.8297  0.7657
 1001TIP3   OH224417   4.562   6.146   6.981 -0.4849  0.0663 -0.6485
 1001TIP3    H124418   4.534   6.233   7.009 -2.1089 -0.6979  0.2490
 1001TIP3    H224419   4.616   6.114   7.052 -1.5042 -0.4031 -0.0685
 1002TIP3   OH224420   5.720   2.284   3.933 -0.2107  0.0421 -0.8273
 1002TIP3    H124421   5.796   2.266   3.988 -1.5848 -0.9742  0.8213
 1002TIP3    H224422   5.670   2.202   3.932 -0.8028  0.3708 -2.7012
 1003TIP3   OH224423   4.024   0.643  16.728  0.1501  0.0740 -0.0261
 1003TIP3    H124424   4.021   0.663  16.821  0.6261  1.6438 -0.3042
 1003TIP3    H224425   4.111   0.608  16.713  0.3828  0.6208  0.0013
 1004TIP3   OH224426   2.711   4.569  16.838  0.1555  0.2098  0.7567
 1004TIP3    H124427   2.794   4.608  16.809 -1.2723  2.1559 -1.0840
 1004TIP3    H224428   2.691   4.614  16.921  0.7075  0.0936  0.9505
 1005TIP3   OH224429   5.386   4.060  16.442 -0.2876  0.3357 -0.0612
 1005TIP3    H124430   5.382   4.064  16.538 -1.8396 -0.0270 -0.0897
 1005TIP3    H224431   5.457   3.998  16.424  0.3901  0.8208  0.8308
 1006TIP3   OH224432   4.423   3.812  14.048  0.6714 -0.2496  0.9780
 1006TIP3    H124433   4.442   3.743  14.113  0.8882 -0.7732  0.3708
 1006TIP3    H224434   4.329   3.802  14.030  0.9957 -1.4518 -0.2726
 1007TIP3   OH224435   1.821   0.555   0.095 -1.1642  0.0069  0.1331
 1007TIP3    H124436   1.882   0.629   0.098  0.8659 -1.5939  1.0398
 1007TIP3    H224437   1.742   0.588   0.136  0.1685  1.2868  1.8233
 1008TIP3   OH224438   4.629   4.614   0.869 -0.0374 -0.3819  0.0274
 1008TIP3    H124439   4.605   4.620   0.776  0.9945 -0.8268 -0.2789
 1008TIP3    H224440   4.647   4.705   0.895 -0.0282 -0.2950 -0.2814
 1009TIP3   OH224441   0.502   3.126  12.550  0.1528  0.3918  0.5129
 1009TIP3    H124442   0.434   3.184  12.584  0.1522  1.6082 -1.4126
 1009TIP3    H224443   0.481   3.040  12.586 -2.7725  0.6082 -0.4614
 1010TIP3   OH224444   0.765   2.062  14.439 -0.1651 -0.2193  0.5498
 1010TIP3    H124445   0.843   2.077  14.493  0.9956 -1.5374 -0.6704
 1010TIP3    H224446   0.701   2.024  14.500 -0.9990  3.4676  2.2469
 1011TIP3   OH224447   2.382   1.786   4.669 -0.2371  0.2244  0.1287
 1011TIP3    H124448   2.361   1.865   4.718 -1.5808 -0.4426  0.6957
 1011TIP3    H224449   2.314   1.781   4.601  0.1102 -0.1880 -0.1944
 1012TIP3   OH224450   1.325   0.179   5.677 -0.2589  0.7295 -0.6517
 1012TIP3    H124451   1.291   0.148   5.593  0.1347  2.0721 -1.3392
 1012TIP3    H224452   1.330   0.100   5.731 -3.3165  0.2823 -0.8814
 1013TIP3   OH224453   1.730   1.118   4.194  0.0680 -0.3196  0.5051
 1013TIP3    H124454   1.747   1.179   4.122  2.4970  0.0152  1.2589
 1013TIP3    H224455   1.686   1.044   4.153  2.0737 -0.4987 -1.5570
 1014TIP3   OH224456   1.150   3.639  16.845  0.5162 -0.9899 -0.0931
 1014TIP3    H124457   1.175   3.697  16.917  2.1693 -2.3144  0.4541
 1014TIP3    H224458   1.068   3.599  16.875 -1.2733  1.7570 -0.9497
 1015TIP3   OH224459   4.736   4.023   4.973 -0.3144 -0.4294 -0.6502
 1015TIP3    H124460   4.725   3.963   4.899  1.9330 -0.5026 -0.9732
 1015TIP3    H224461   4.739   4.110   4.933  2.3712 -0.5559 -0.9072
 1016TIP3   OH224462   6.058   6.047  12.668  0.2546 -0.0577 -0.6710
 1016TIP3    H124463   6.061   6.142  12.658 -1.6970  0.3909  1.8808
 1016TIP3    H224464   6.116   6.029  12.743 -0.3773 -0.6974 -0.3235
 1017TIP3   OH224465   2.875   3.603  15.805 -0.3327  0.4013 -0.2078
 1017TIP3    H124466   2.918   3.682  15.773 -0.2840  0.2322 -0.5656
 1017TIP3    H224467   2.870   3.546  15.728  2.2754 -1.1475  0.6352
 1018TIP3   OH224468   4.469   3.071  15.713 -0.1232  0.0511 -0.6738
 1018TIP3    H124469   4.403   3.004  15.731  1.1280 -1.6054 -1.9125
 1018TIP3    H224470   4.545   3.044  15.765  0.6689 -0.0014 -1.8155
 1019TIP3   OH224471   2.307   0.864   0.371 -0.7924  0.1882  0.0776
 1019TIP3    H124472   2.303   0.883   0.277 -0.3047 -0.9373 -0.1786
 1019TIP3    H224473   2.287   0.948   0.413  1.6899  1.4016 -1.0035
 1020TIP3   OH224474   5.285   1.270  15.390 -0.3416 -0.1494 -0.2608
 1020TIP3    H124475   5.285   1.174  15.380  0.4771 -0.2685  0.7644
 1020TIP3    H224476   5.367   1.290  15.435 -0.9612  0.9413  0.4293
 1021TIP3   OH224477   3.511   6.450  15.581  0.0528 -0.2009  0.0607
 1021TIP3    H124478   3.499   6.403  15.499 -1.0059 -0.3363  0.2846
 1021TIP3    H224479   3.540   6.384  15.643 -4.3067 -1.4009  1.1927
 1022TIP3   OH224480   1.975   4.289  12.316 -0.1205 -0.3797 -0.1166
 1022TIP3    H124481   1.945   4.330  12.397 -0.6269  1.3159 -1.0982
 1022TIP3    H224482   1.956   4.196  12.327 -3.6866  0.2621  0.2857
 1023TIP3   OH224483   3.454   4.195   0.301  0.2722  0.2478 -0.4619
 1023TIP3    H124484   3.494   4.123   0.350  1.5821  0.7917 -0.6862
 1023TIP3    H224485   3.361   4.176   0.303  0.7264 -3.0834 -3.0519
 1024TIP3   OH224486   4.988   6.544   3.821 -0.7059  0.4405 -0.0698
 1024TIP3    H124487   5.024   6.628   3.848 -0.9618  0.5731 -0.1376
 1024TIP3    H224488   4.932   6.564   3.746 -1.2624  0.3039  0.2970
 1025TIP3   OH224489   2.831   3.094  12.261  0.6359  0.7659 -0.3966
 1025TIP3    H124490   2.794   3.134  12.183 -0.5165 -0.4659 -0.5102
 1025TIP3    H224491   2.793   3.006  12.264  1.1709  0.5531  1.1852
 1026TIP3   OH224492   4.502   5.842  11.223  0.1936 -0.6356  0.2928
 1026TIP3    H124493   4.415   5.881  11.214  0.0662 -1.1491 -1.0222
 1026TIP3    H224494   4.552   5.876  11.148 -0.6131 -4.5791 -2.3752
 1027TIP3   OH224495   1.799   2.008  15.225 -0.5246  0.0166 -0.0255
 1027TIP3    H124496   1.796   2.012  15.129  0.6025  0.0988 -0.0715
 1027TIP3    H224497   1.886   2.041  15.247  0.0965 -2.0876  0.9000
 1028TIP3   OH224498   2.218   1.584   4.186 -0.1608  0.3473  0.3224
 1028TIP3    H124499   2.204   1.503   4.235  0.3175 -0.0073 -0.1121
 1028TIP3    H224500   2.302   1.571   4.141  0.2308  1.3375  0.7399
 1029TIP3   OH224501   2.361   1.522   1.493  0.1350 -0.1970  0.1793
 1029TIP3    H124502   2.267   1.530   1.510  0.1940 -2.0095  1.6974
 1029TIP3    H224503   2.369   1.446   1.436  0.7193 -0.7355  0.9490
 1030TIP3   OH224504   5.386   6.607  12.273 -0.0325 -0.1944 -0.2437
 1030TIP3    H124505   5.447   6.547  12.315 -0.5552 -0.7113 -0.2157
 1030TIP3    H224506   5.422   6.622  12.186 -0.4593 -1.4107 -0.6486
 1031TIP3   OH224507   0.118   4.750   3.451  0.4096  0.5090  0.2123
 1031TIP3    H124508   0.147   4.658   3.450  0.7351  0.6100  0.5424
 1031TIP3    H224509   0.025   4.745   3.476  0.4177  0.2715  0.1995
 1032TIP3   OH224510   5.981   5.820  11.765  0.2460 -0.5415  0.3608
 1032TIP3    H124511   6.000   5.874  11.689  2.2435 -1.7008 -0.0360
 1032TIP3    H224512   6.048   5.845  11.830 -1.3726  0.3816  1.7628
 1033TIP3   OH224513   4.882   3.815  15.950 -0.1362  0.2714  0.1263
 1033TIP3    H124514   4.891   3.908  15.926  0.6134  0.2207  0.2079
 1033TIP3    H224515   4.866   3.817  16.045 -0.6748  0.3411  0.0391
 1034TIP3   OH224516   4.781   4.320  14.150 -0.2775  0.3165 -0.0197
 1034TIP3    H124517   4.823   4.281  14.074  0.8948  0.6391  0.4385
 1034TIP3    H224518   4.687   4.321  14.129 -0.0640 -0.4464 -1.0537
 1035TIP3   OH224519   3.459   3.787  13.854  0.2443 -0.2332  0.1420
 1035TIP3    H124520   3.546   3.806  13.887  0.0157  0.9465  0.1192
 1035TIP3    H224521   3.445   3.695  13.873  0.3811  0.2114  2.7632
 1036TIP3   OH224522   4.584   1.274  12.768 -0.2658  0.2136 -0.6975
 1036TIP3    H124523   4.500   1.314  12.743 -0.7405 -0.4390 -0.1831
 1036TIP3    H224524   4.584   1.189  12.722  0.6756  0.7182 -1.6845
 1037TIP3   OH224525   2.662   5.273   4.690  0.5994  0.3190  0.2043
 1037TIP3    H124526   2.570   5.299   4.697  0.3515  0.0425 -1.5764
 1037TIP3    H224527   2.708   5.354   4.668  0.6190  0.2367 -0.0531
 1038TIP3   OH224528   5.333   1.241  16.813 -0.0463 -0.4141  0.1543
 1038TIP3    H124529   5.382   1.250  16.731 -0.8973 -2.7876 -0.6969
 1038TIP3    H224530   5.250   1.200  16.787 -1.4147  1.0836  1.8943
 1039TIP3   OH224531   2.738   5.372   4.995  0.1370 -0.2309 -0.3233
 1039TIP3    H124532   2.788   5.293   4.972 -1.0882 -1.2153  0.2839
 1039TIP3    H224533   2.799   5.444   4.977  1.5645 -1.3420 -0.1688
 1040TIP3   OH224534   6.151   6.422  15.026 -0.2766 -0.0650  0.3746
 1040TIP3    H124535   6.116   6.447  15.112  0.5337  0.9218  0.4347
 1040TIP3    H224536   6.240   6.455  15.026  0.0484 -0.9035 -0.4936
 1041TIP3   OH224537   4.738   4.796  12.512  0.2305 -0.4378 -0.4679
 1041TIP3    H124538   4.666   4.733  12.507 -0.7518  0.6684 -0.8467
 1041TIP3    H224539   4.777   4.794  12.425  0.4334 -0.7758 -0.3714
 1042TIP3   OH224540   2.530   2.055   3.017 -0.4842 -0.0174 -0.1322
 1042TIP3    H124541   2.515   1.977   2.963 -1.4280 -0.3901  0.6418
 1042TIP3    H224542   2.562   2.020   3.101 -1.3818  0.3797  0.3885
 1043TIP3   OH224543   4.793   2.472  13.652  0.7350 -0.0540 -0.5514
 1043TIP3    H124544   4.707   2.499  13.619 -0.0772 -2.0042 -0.1909
 1043TIP3    H224545   4.840   2.554  13.668 -0.7940  1.0429 -1.4300
 1044TIP3   OH224546   1.578   3.107   0.572 -0.0400 -0.0318  0.4477
 1044TIP3    H124547   1.663   3.086   0.534  0.8250  1.0856  1.6754
 1044TIP3    H224548   1.547   3.025   0.610  1.0978 -0.1665  1.1177
 1045TIP3   OH224549   3.614   2.502  11.885  0.4951  0.3279  0.0934
 1045TIP3    H124550   3.581   2.493  11.796 -0.0297  1.4028  0.1674
 1045TIP3    H224551   3.592   2.419  11.927 -1.8307  0.8443  0.0335
 1046TIP3   OH224552   0.216   3.686  13.568  0.3719  0.0356 -0.3723
 1046TIP3    H124553   0.216   3.698  13.473  1.0719 -0.7897 -0.4886
 1046TIP3    H224554   0.124   3.677  13.591  0.2633 -1.0145 -1.1536
 1047TIP3   OH224555   5.625   3.407   2.121  0.4231  0.2452  0.8131
 1047TIP3    H124556   5.537   3.424   2.155  0.2045 -0.5245  0.6436
 1047TIP3    H224557   5.616   3.418   2.026  0.3232 -0.5882  0.7194
 1048TIP3   OH224558   3.876   0.353  10.826 -0.2265  0.1273  0.1625
 1048TIP3    H124559   3.927   0.422  10.868 -0.7780  0.1635  0.7934
 1048TIP3    H224560   3.791   0.394  10.807 -0.5845 -0.3927  0.6100
 1049TIP3   OH224561   3.870   3.142  14.523  0.2330 -0.5294 -0.1523
 1049TIP3    H124562   3.934   3.173  14.459 -1.1352  0.5919 -1.0513
 1049TIP3    H224563   3.815   3.218  14.540 -1.3442 -1.6573 -0.0266
 1050TIP3   OH224564   5.093   0.963  13.224 -0.0317  0.1961 -0.6005
 1050TIP3    H124565   5.089   1.058  13.219 -0.8139  0.2039 -0.1282
 1050TIP3    H224566   5.136   0.945  13.308  1.8544  0.1097 -1.5339
 1051TIP3   OH224567   5.404   2.323  16.096 -0.9201 -0.1075 -0.3023
 1051TIP3    H124568   5.448   2.271  16.029 -1.4879 -2.1721  0.8289
 1051TIP3    H224569   5.473   2.350  16.156 -0.9185 -2.4373  0.8846
 1052TIP3   OH224570   4.266   3.145   2.302  0.5552 -0.2604 -0.1946
 1052TIP3    H124571   4.249   3.053   2.325 -1.0343 -0.0249 -0.3229
 1052TIP3    H224572   4.354   3.144   2.267  2.7580 -0.9050  4.5443
 1053TIP3   OH224573   2.494   2.659  15.684  0.7748 -0.2898  0.6756
 1053TIP3    H124574   2.590   2.664  15.687  0.7620 -0.2389  1.1304
 1053TIP3    H224575   2.474   2.572  15.719  0.6831 -0.5794 -0.0898
 1054TIP3   OH224576   1.179   2.557  11.567  0.1310  0.1923 -0.1777
 1054TIP3    H124577   1.106   2.537  11.508 -0.0609  0.3136  0.0157
 1054TIP3    H224578   1.230   2.623  11.520  1.0030 -1.0264 -1.0016
 1055TIP3   OH224579   2.474   1.847  14.385  1.1396 -0.2137 -0.1104
 1055TIP3    H124580   2.534   1.779  14.415  2.3360  0.0190 -1.8782
 1055TIP3    H224581   2.423   1.805  14.316  0.7345  0.2076 -0.0751
 1056TIP3   OH224582   3.022   5.692  11.079  0.4517 -0.0346 -0.3077
 1056TIP3    H124583   2.991   5.732  11.161  1.1440  1.0775 -0.5639
 1056TIP3    H224584   3.044   5.767  11.023  0.7526 -0.7889 -1.2171
 1057TIP3   OH224585   4.547   5.059  11.625  0.7975 -0.5774 -0.4256
 1057TIP3    H124586   4.568   4.997  11.556  0.7320 -1.0403 -0.0384
 1057TIP3    H224587   4.451   5.055  11.632  0.7678 -0.2002 -0.6111
 1058TIP3   OH224588   2.077   5.487   2.389  0.3036  0.1681 -0.2432
 1058TIP3    H124589   2.055   5.571   2.348 -0.5095 -0.3939 -0.9863
 1058TIP3    H224590   2.173   5.484   2.385  0.4793  1.8537  1.4479
 1059TIP3   OH224591   3.624   0.899   3.972  0.2390  0.1306 -0.4690
 1059TIP3    H124592   3.611   0.950   4.052  0.4687 -0.9638  0.2924
 1059TIP3    H224593   3.560   0.934   3.910 -0.0168  0.9246  0.2349
 1060TIP3   OH224594   0.606   0.441  12.357 -0.0398  0.2400 -0.0227
 1060TIP3    H124595   0.581   0.513  12.414 -0.4512  0.2846 -0.2603
 1060TIP3    H224596   0.529   0.424  12.303 -0.5560 -1.4473  1.1338
 1061TIP3   OH224597   3.758   6.023  12.456 -0.1656 -0.2621 -0.0174
 1061TIP3    H124598   3.684   5.964  12.470  0.6176 -0.9756  1.2560
 1061TIP3    H224599   3.825   5.993  12.517  0.8128  1.0077 -0.4228
 1062TIP3   OH224600   2.250   4.500  16.653 -0.4222  0.2714  0.1058
 1062TIP3    H124601   2.288   4.438  16.715 -1.0334 -0.7840 -0.5440
 1062TIP3    H224602   2.324   4.529  16.600 -0.2378 -0.4413 -0.0394
 1063TIP3   OH224603   0.102   1.311  15.861 -0.8650  0.0468 -0.4448
 1063TIP3    H124604   0.170   1.361  15.816  0.8339  1.0525  2.9128
 1063TIP3    H224605   0.116   1.221  15.833  1.9774  0.2061  0.1581
 1064TIP3   OH224606   4.320   2.363  14.762 -0.8813 -0.0517  0.3018
 1064TIP3    H124607   4.323   2.428  14.692 -1.3661 -0.6382 -0.2745
 1064TIP3    H224608   4.299   2.280  14.718 -0.0550 -0.6534  0.9872
 1065TIP3   OH224609   1.899   3.478   0.220 -0.2098  0.0397 -0.5102
 1065TIP3    H124610   1.860   3.507   0.138  0.9618  0.7053 -0.8521
 1065TIP3    H224611   1.851   3.398   0.242 -0.2239 -0.4193 -2.0881
 1066TIP3   OH224612   0.976   5.942   1.684 -0.0754  0.5421  0.1557
 1066TIP3    H124613   0.997   5.948   1.777  0.7839  3.1575 -0.1305
 1066TIP3    H224614   1.060   5.934   1.640 -0.4534 -0.3235 -0.4333
 1067TIP3   OH224615   5.417   5.936  13.320 -0.2050  0.1608 -0.6484
 1067TIP3    H124616   5.452   6.009  13.268  2.1529 -1.6190 -1.7357
 1067TIP3    H224617   5.408   5.864  13.257 -0.6013 -1.0551  0.7552
 1068TIP3   OH224618   5.164   5.804   4.520  0.0522 -0.1580  0.3436
 1068TIP3    H124619   5.172   5.763   4.605  0.0027 -1.5498 -0.3003
 1068TIP3    H224620   5.247   5.788   4.476 -0.8999 -2.0319 -0.9312
 1069TIP3   OH224621   1.729   4.679   0.715 -0.0859  0.1865  0.1133
 1069TIP3    H124622   1.809   4.641   0.680 -0.1098  0.4054 -0.1812
 1069TIP3    H224623   1.663   4.610   0.704  0.1093 -0.0833  0.5758
 1070TIP3   OH224624   3.946   4.471  15.968 -0.8438 -0.0505  0.5196
 1070TIP3    H124625   3.865   4.477  16.018 -0.5834 -0.7756  1.0473
 1070TIP3    H224626   3.942   4.384  15.928 -2.0519  1.2671 -2.5015
 1071TIP3   OH224627   2.290   4.672  15.656 -0.0288  0.4998 -0.6579
 1071TIP3    H124628   2.331   4.722  15.726 -0.0984  0.8894 -0.8909
 1071TIP3    H224629   2.225   4.731  15.619 -1.4223 -0.4004  0.2584
 1072TIP3   OH224630   3.445   1.497  13.382  0.5830  0.0520 -0.2761
 1072TIP3    H124631   3.393   1.417  13.373 -1.0244  1.2263 -2.1910
 1072TIP3    H224632   3.511   1.490  13.313  1.1530 -0.0976  0.2738
 1073TIP3   OH224633   5.689   6.302   2.753  0.0363  0.3286 -0.4113
 1073TIP3    H124634   5.714   6.269   2.839 -1.3142  1.0086  0.2847
 1073TIP3    H224635   5.596   6.278   2.745 -0.4086  2.0447 -0.7785
 1074TIP3   OH224636   5.042   5.816  14.060 -0.0013  0.2167  0.4106
 1074TIP3    H124637   5.087   5.786  14.140  2.2438  0.0503 -0.8102
 1074TIP3    H224638   4.990   5.891  14.088  1.6901  0.9331  1.8368
 1075TIP3   OH224639   1.883   1.185  15.423 -0.0175 -0.3259 -0.1133
 1075TIP3    H124640   1.948   1.157  15.487 -0.0918  0.5491  0.3662
 1075TIP3    H224641   1.895   1.280  15.416 -1.3850 -0.0997  0.1842
 1076TIP3   OH224642   6.280   3.023   5.147 -0.1091 -0.6618 -0.3237
 1076TIP3    H124643   6.189   3.052   5.136  0.4649  1.2780 -0.3823
 1076TIP3    H224644   6.281   2.934   5.113 -1.5179  0.0623 -2.5046
 1077TIP3   OH224645   4.058   5.725   5.578 -0.0515  0.2851  0.5757
 1077TIP3    H124646   4.096   5.660   5.637  1.3371  0.7925  0.2751
 1077TIP3    H224647   3.991   5.677   5.530  0.9485 -0.9415  0.3573
 1078TIP3   OH224648   5.286   1.114  11.210  0.2109 -0.3845  0.5277
 1078TIP3    H124649   5.370   1.118  11.255  0.1998 -1.3499  0.6642
 1078TIP3    H224650   5.304   1.065  11.130  0.0383  0.5187 -0.0844
 1079TIP3   OH224651   2.998   2.860  17.411  0.3863  0.1369  0.4925
 1079TIP3    H124652   3.020   2.831  17.322  0.7314 -1.2229  0.9865
 1079TIP3    H224653   2.989   2.955  17.404  1.9146  0.2380 -0.6818
 1080TIP3   OH224654   1.866   0.913  16.687  0.3919 -0.0911  0.3032
 1080TIP3    H124655   1.877   0.882  16.777  2.9884 -0.6241 -0.1349
 1080TIP3    H224656   1.874   0.834  16.634 -1.2326  0.2034 -0.4342
 1081TIP3   OH224657   1.176   3.202   5.844  0.8599  0.2176  0.4369
 1081TIP3    H124658   1.219   3.214   5.929  0.9606  1.4306  0.2338
 1081TIP3    H224659   1.239   3.237   5.781  0.4564  0.0290 -0.0722
 1082TIP3   OH224660   4.342   1.153  17.146  0.2083 -0.1945 -0.2959
 1082TIP3    H124661   4.384   1.192  17.223 -1.9616  1.4000  0.1745
 1082TIP3    H224662   4.327   1.062  17.171  0.3434  0.0725  0.8253
 1083TIP3   OH224663   6.220   4.753  12.093  0.1300 -0.0570 -0.5022
 1083TIP3    H124664   6.310   4.744  12.062  0.3015  0.3073 -0.1315
 1083TIP3    H224665   6.181   4.819  12.036 -0.2378 -0.9870 -1.3518
 1084TIP3   OH224666   4.256   3.826   4.765 -0.0482  0.3601 -0.5706
 1084TIP3    H124667   4.296   3.847   4.681 -0.7308 -0.0636 -1.0087
 1084TIP3    H224668   4.319   3.768   4.808  0.9872  1.7307 -0.1410
 1085TIP3   OH224669   5.344   2.233  15.670  0.0184 -0.5142 -0.6269
 1085TIP3    H124670   5.351   2.142  15.643  0.0251 -1.5311  2.5020
 1085TIP3    H224671   5.435   2.265  15.671 -0.0955  0.2331 -3.5253
 1086TIP3   OH224672   3.117   2.549   2.600 -0.2611 -0.4699  0.1177
 1086TIP3    H124673   3.104   2.549   2.695 -0.9605 -2.5608  0.0846
 1086TIP3    H224674   3.111   2.641   2.574 -0.1009  0.1319  2.0809
 1087TIP3   OH224675   0.657   0.344  15.867 -0.2247  0.0971  0.3319
 1087TIP3    H124676   0.719   0.400  15.819 -1.6148  0.6637 -0.8821
 1087TIP3    H224677   0.702   0.323  15.949  0.5829  2.5391  0.5959
 1088TIP3   OH224678   3.081   1.158  12.008 -0.6723 -0.4737 -0.7146
 1088TIP3    H124679   3.141   1.114  11.947 -1.0499 -1.2043 -0.5678
 1088TIP3    H224680   2.995   1.146  11.969 -0.7137  0.7969 -1.0543
 1089TIP3   OH224681   0.036   5.853   2.675 -0.2469  0.6258  0.2550
 1089TIP3    H124682   0.109   5.844   2.614 -2.0794  0.1185 -2.0269
 1089TIP3    H224683  -0.042   5.858   2.619 -2.0779  0.0366  2.5617
 1090TIP3   OH224684   5.596   1.372  12.773 -0.0250 -0.2675 -0.2376
 1090TIP3    H124685   5.501   1.362  12.773  0.0987 -1.6328  0.0798
 1090TIP3    H224686   5.622   1.357  12.682 -0.1008  0.0307 -0.3091
 1091TIP3   OH224687   0.064   0.005  13.837  0.1223  0.1153  0.2495
 1091TIP3    H124688  -0.020   0.047  13.854 -0.0108 -0.0022 -0.1244
 1091TIP3    H224689   0.096  -0.021  13.924 -1.1298 -1.6107  0.2448
 1092TIP3   OH224690   5.327   4.134   2.273 -0.0350 -0.2150  0.3652
 1092TIP3    H124691   5.329   4.192   2.197  0.7372 -0.9610 -0.2000
 1092TIP3    H224692   5.342   4.192   2.348 -1.1354  0.5742 -0.0050
 1093TIP3   OH224693   5.101   4.529   0.549  0.5627  0.4582  0.0065
 1093TIP3    H124694   5.100   4.452   0.492 -0.0313  0.8880 -0.5842
 1093TIP3    H224695   5.031   4.585   0.515 -0.1010  0.5337  1.4342
 1094TIP3   OH224696   3.913   2.290  14.071  0.0975  0.1445  0.0166
 1094TIP3    H124697   3.926   2.298  14.165 -1.5753  2.1234  0.1498
 1094TIP3    H224698   3.998   2.265  14.036  1.1055  0.8132  1.8949
 1095TIP3   OH224699   3.672   3.854  13.116  0.1692 -0.7549  0.3340
 1095TIP3    H124700   3.612   3.791  13.156 -1.3680  1.2389  1.3666
 1095TIP3    H224701   3.638   3.868  13.028 -2.4358  2.0090  1.5999
 1096TIP3   OH224702   4.853   4.263  12.239  0.2341  0.1197 -0.0383
 1096TIP3    H124703   4.904   4.263  12.321 -0.1232 -0.7144  0.1900
 1096TIP3    H224704   4.903   4.207  12.180 -0.2343 -0.4181  0.0731
 1097TIP3   OH224705   3.472   4.378  15.702  0.6807 -0.0007 -0.0792
 1097TIP3    H124706   3.462   4.435  15.778 -0.0350  0.0216 -0.1813
 1097TIP3    H224707   3.437   4.430  15.629  0.2990 -0.4564 -0.2244
 1098TIP3   OH224708   4.249   4.633  12.916 -0.4309 -0.5344  0.4509
 1098TIP3    H124709   4.301   4.653  12.994  0.4754 -0.7839 -0.0709
 1098TIP3    H224710   4.217   4.544  12.931  0.6936 -1.0214  0.0466
 1099TIP3   OH224711   0.802   1.700   4.092  0.0583  0.0333  0.3849
 1099TIP3    H124712   0.771   1.677   4.179 -0.1947 -0.2742  0.2183
 1099TIP3    H224713   0.723   1.702   4.038  0.4313 -2.4903 -0.4332
 1100TIP3   OH224714   0.204   4.727  11.166  0.0212 -0.0645 -0.2604
 1100TIP3    H124715   0.209   4.790  11.094 -1.8795  0.2977 -0.1235
 1100TIP3    H224716   0.242   4.773  11.241 -1.2975  0.9441 -0.1741
 1101TIP3   OH224717   0.118   2.811  13.850 -0.3571 -0.1424  0.0052
 1101TIP3    H124718   0.136   2.738  13.790  1.4097 -2.0364  2.6188
 1101TIP3    H224719   0.160   2.785  13.932 -0.2404  3.5851  1.2901
 1102TIP3   OH224720   0.870   0.836  16.972  0.2777 -0.2495  0.0702
 1102TIP3    H124721   0.819   0.902  17.020  0.6999  0.8287 -0.9088
 1102TIP3    H224722   0.808   0.801  16.907  0.3010 -0.1666  0.0025
 1103TIP3   OH224723   1.413   0.315  16.859  0.0911  0.4089 -0.2246
 1103TIP3    H124724   1.336   0.361  16.892 -0.9634 -2.6776  2.1140
 1103TIP3    H224725   1.378   0.246  16.803  1.5143  1.3128 -2.3727
 1104TIP3   OH224726   0.477   1.501   4.007  0.3780  0.5260 -0.2472
 1104TIP3    H124727   0.520   1.432   3.957 -2.0886 -0.6636 -0.9108
 1104TIP3    H224728   0.525   1.580   3.986  1.5058 -0.5215 -1.7985
 1105TIP3   OH224729   0.097   3.035  16.388 -0.0838 -0.5632 -0.1098
 1105TIP3    H124730   0.082   2.989  16.305  1.0538 -1.8279  0.3451
 1105TIP3    H224731   0.138   2.969  16.444 -0.8616  0.2622  1.4808
 1106TIP3   OH224732   5.377   6.229   5.855 -0.5693  0.7160 -0.0343
 1106TIP3    H124733   5.466   6.237   5.821 -0.6854 -1.2387 -0.9616
 1106TIP3    H224734   5.379   6.272   5.940  2.1729 -2.0534  1.4884
 1107TIP3   OH224735   0.244   1.456   4.245 -0.0887  0.2947 -0.4903
 1107TIP3    H124736   0.305   1.383   4.244 -0.6521 -0.1741 -0.7023
 1107TIP3    H224737   0.283   1.521   4.186 -0.3274 -0.4488 -1.4958
 1108TIP3   OH224738   4.551   4.666   0.081  0.3980  0.6399  0.3445
 1108TIP3    H124739   4.502   4.720   0.019 -0.7380 -1.3115 -0.5407
 1108TIP3    H224740   4.499   4.586   0.091  1.2223  0.3059  2.8085
 1109TIP3   OH224741   5.196   1.940  16.367 -0.2357 -0.1580 -0.0662
 1109TIP3    H124742   5.217   1.903  16.453  1.7270  1.7143  0.3559
 1109TIP3    H224743   5.120   1.995  16.383 -0.5747 -0.6929  0.2044
 1110TIP3   OH224744   0.938   1.016  16.761  0.2120  0.1097 -0.1496
 1110TIP3    H124745   0.917   0.984  16.849  1.9658  0.8560  0.5946
 1110TIP3    H224746   0.913   1.109  16.762 -0.3293 -0.0213 -0.6639
 1111TIP3   OH224747   2.884   4.293  13.571  0.0079 -0.3970  0.6111
 1111TIP3    H124748   2.795   4.307  13.538  1.0195 -0.5722 -2.4903
 1111TIP3    H224749   2.937   4.358  13.524  2.1132 -2.9820 -0.8200
 1112TIP3   OH224750   4.494   0.148   2.765 -0.2744  0.6435 -0.2945
 1112TIP3    H124751   4.563   0.185   2.820  2.2984 -1.9608 -1.4548
 1112TIP3    H224752   4.441   0.095   2.824 -0.3975  1.4813  0.3632
 1113TIP3   OH224753   1.707   2.710   3.702 -0.2526  0.0392  0.1135
 1113TIP3    H124754   1.623   2.673   3.673  0.8301 -2.0628 -0.5303
 1113TIP3    H224755   1.683   2.767   3.775 -2.5165  1.5912 -1.6695
 1114TIP3   OH224756   4.804   5.567  10.532  0.5217  0.1877  0.2347
 1114TIP3    H124757   4.823   5.474  10.522 -0.8363 -0.0133 -0.7117
 1114TIP3    H224758   4.889   5.611  10.519  1.1432 -0.8815  0.5566
 1115TIP3   OH224759   5.317   2.881  14.347 -0.3471  0.0745  0.1085
 1115TIP3    H124760   5.292   2.790  14.337  0.4221 -0.3565  1.7716
 1115TIP3    H224761   5.310   2.898  14.441  0.3087  1.4908 -0.0679
 1116TIP3   OH224762   2.810   4.654  11.903 -0.5700 -0.3111  0.5239
 1116TIP3    H124763   2.796   4.628  11.812 -0.0417 -0.1620  0.3982
 1116TIP3    H224764   2.892   4.612  11.928 -0.4397  0.0818  0.7652
 1117TIP3   OH224765   4.729   2.333   4.899 -0.4787  0.0871 -0.3159
 1117TIP3    H124766   4.805   2.383   4.929  0.7599 -1.2752 -1.1079
 1117TIP3    H224767   4.762   2.245   4.884 -2.9010 -1.5224  2.5965
 1118TIP3   OH224768   6.415   5.089   0.453 -0.1323 -0.3235 -0.4788
 1118TIP3    H124769   6.456   5.156   0.507  0.4361  1.4605 -2.9564
 1118TIP3    H224770   6.323   5.090   0.480  0.6192 -1.8721  2.6585
 1119TIP3   OH224771   4.207   0.113  14.164 -0.0896  0.0525 -0.3111
 1119TIP3    H124772   4.147   0.038  14.161 -1.4626  1.1169 -0.7268
 1119TIP3    H224773   4.151   0.186  14.189  1.1620  1.0085 -0.2539
 1120TIP3   OH224774   5.551   4.757  17.271 -0.2718  0.4503 -0.0887
 1120TIP3    H124775   5.599   4.729  17.194  1.1934  1.8523  0.2750
 1120TIP3    H224776   5.601   4.724  17.345 -1.8211 -1.1401  0.3128
 1121TIP3   OH224777   2.557   0.676  14.694  0.8321  0.0094 -0.5208
 1121TIP3    H124778   2.649   0.702  14.688  0.8083  0.1157 -0.4391
 1121TIP3    H224779   2.508   0.758  14.685  0.6690 -0.2440 -2.3995
 1122TIP3   OH224780   4.537   1.874  16.168  0.5149 -0.2170 -0.2772
 1122TIP3    H124781   4.629   1.878  16.197  1.3583 -0.6177 -2.6903
 1122TIP3    H224782   4.532   1.792  16.118 -0.9771  0.1761 -0.8081
 1123TIP3   OH224783   0.550   2.887  15.918 -0.6176 -0.0507  0.0957
 1123TIP3    H124784   0.582   2.811  15.869 -1.9932 -0.2095 -0.5959
 1123TIP3    H224785   0.630   2.929  15.951  0.3840  0.0529 -2.2690
 1124TIP3   OH224786   5.364   2.798   1.378  0.1497  0.1112 -0.6228
 1124TIP3    H124787   5.290   2.742   1.352  0.8183 -0.3590 -1.5564
 1124TIP3    H224788   5.441   2.744   1.362  0.6819  0.2899  1.1402
 1125TIP3   OH224789   5.014   4.009   0.832 -0.2112 -0.3308  0.0534
 1125TIP3    H124790   4.966   3.943   0.783 -1.8586  0.1012  0.9951
 1125TIP3    H224791   5.105   3.997   0.807 -0.9044 -0.4405 -2.7161
 1126TIP3   OH224792   2.778   2.432  17.407  0.6686  0.0749 -0.5312
 1126TIP3    H124793   2.728   2.382  17.472 -2.0979  0.2895 -2.2948
 1126TIP3    H224794   2.820   2.502  17.457 -1.6654  0.4785  1.0597
 1127TIP3   OH224795   2.481   4.603   3.110 -0.2222 -0.3796  0.1146
 1127TIP3    H124796   2.551   4.621   3.047  1.4832  1.1019  2.2710
 1127TIP3    H224797   2.408   4.658   3.082  0.7582  0.8041 -0.2001
 1128TIP3   OH224798   2.976   6.630  15.203  0.1166 -0.7877 -0.6333
 1128TIP3    H124799   2.887   6.637  15.239  0.1303  1.0037 -0.9032
 1128TIP3    H224800   3.026   6.696  15.250  1.4766 -2.1633 -0.0793
 1129TIP3   OH224801   5.907   0.419  17.325  0.3342 -0.0774 -0.0079
 1129TIP3    H124802   5.921   0.331  17.359  1.1584  0.1706  0.3297
 1129TIP3    H224803   5.877   0.406  17.236  0.2160 -0.7070  0.1204
 1130TIP3   OH224804   0.488   5.312   2.108 -0.0490 -0.2421  0.0559
 1130TIP3    H124805   0.492   5.303   2.203 -2.8198  0.7207  0.3460
 1130TIP3    H224806   0.395   5.325   2.088  0.5903  0.9562 -2.6720
 1131TIP3   OH224807   0.617   2.217  13.276  0.2387  0.1364 -0.1185
 1131TIP3    H124808   0.615   2.161  13.198 -1.4659 -0.5210  0.3628
 1131TIP3    H224809   0.692   2.185  13.326  0.2830 -0.6105 -0.6443
 1132TIP3   OH224810   2.894   1.840   2.264 -0.8900 -0.2213 -0.4611
 1132TIP3    H124811   2.876   1.928   2.297 -1.3303  0.1159 -1.5674
 1132TIP3    H224812   2.812   1.811   2.224 -0.8636 -1.3003  0.2179
 1133TIP3   OH224813   5.210   1.667  17.207  0.6692 -0.1784  0.2676
 1133TIP3    H124814   5.284   1.647  17.265  0.7415 -0.1570  0.1817
 1133TIP3    H224815   5.161   1.585  17.202  1.3046 -0.5157 -0.5755
 1134TIP3   OH224816   4.827   6.376   5.097  0.4096  0.3450 -0.8164
 1134TIP3    H124817   4.786   6.446   5.147 -1.8244 -0.5203 -1.3067
 1134TIP3    H224818   4.898   6.419   5.048 -0.2250  2.0294 -0.3082
 1135TIP3   OH224819   3.935   0.350   1.226 -0.0452 -0.7546  0.4729
 1135TIP3    H124820   3.938   0.445   1.234  0.9024 -0.7838  0.5416
 1135TIP3    H224821   3.841   0.329   1.225 -0.2638  0.0236  2.1190
 1136TIP3   OH224822   6.719   4.193  12.457  0.1407  0.5508 -0.5035
 1136TIP3    H124823   6.625   4.210  12.463  0.0818  0.3203 -0.7456
 1136TIP3    H224824   6.730   4.107  12.497  0.1568  0.2974 -1.0479
 1137TIP3   OH224825   0.038   2.408   0.170  0.5107 -0.2009 -0.2793
 1137TIP3    H124826  -0.019   2.361   0.108 -0.8612  2.4529 -1.2282
 1137TIP3    H224827   0.050   2.347   0.243 -1.1279 -1.9842 -1.3853
 1138TIP3   OH224828   5.057   6.572   2.318 -0.4242  0.0076 -0.1323
 1138TIP3    H124829   4.992   6.521   2.269 -1.2586  1.1454 -0.2401
 1138TIP3    H224830   5.012   6.597   2.399 -0.0510  0.6640 -0.1248
 1139TIP3   OH224831   4.100   3.932  13.713 -0.0863  0.2489  0.2640
 1139TIP3    H124832   4.140   3.914  13.628  2.1185  3.8977  0.3285
 1139TIP3    H224833   4.007   3.915  13.700  0.3745 -0.7416 -2.3879
 1140TIP3   OH224834   4.614   6.347  17.123 -0.2321  0.4301  0.3080
 1140TIP3    H124835   4.591   6.268  17.171 -0.0111  0.8655  1.1401
 1140TIP3    H224836   4.702   6.369  17.152 -0.1189  0.7447 -0.2490
 1141TIP3   OH224837   0.116   4.241  11.841  0.2205 -0.1043  0.8681
 1141TIP3    H124838   0.121   4.332  11.810 -1.9281 -0.2357 -0.1128
 1141TIP3    H224839   0.176   4.237  11.915  0.7442  1.9819  0.6241
 1142TIP3   OH224840   0.862   5.941  15.770  0.2301 -0.1057 -0.4754
 1142TIP3    H124841   0.816   5.990  15.702 -0.3260  0.6301  0.3991
 1142TIP3    H224842   0.891   5.861  15.727 -0.2489  0.2690 -1.5279
 1143TIP3   OH224843   3.573   3.324   3.509  0.0645  0.6914  0.0384
 1143TIP3    H124844   3.649   3.290   3.556 -0.7735 -0.8862  0.3146
 1143TIP3    H224845   3.554   3.258   3.442 -1.3646  0.7895  0.3038
 1144TIP3   OH224846   6.367   1.442   3.826  0.3049  0.7722 -0.1292
 1144TIP3    H124847   6.453   1.430   3.867  1.2541 -1.7459 -2.5535
 1144TIP3    H224848   6.312   1.373   3.863  0.1858  0.5864 -0.6410
 1145TIP3   OH224849   0.999   3.656  15.919  0.0768 -0.0622  0.0768
 1145TIP3    H124850   1.076   3.684  15.870 -0.6267 -0.4266 -1.2903
 1145TIP3    H224851   1.033   3.625  16.003  1.4664 -0.6171 -0.6629
 1146TIP3   OH224852   2.725   6.087  16.452 -0.4559 -0.1049  0.0431
 1146TIP3    H124853   2.800   6.076  16.511  0.1480  1.2281 -0.4245
 1146TIP3    H224854   2.682   6.167  16.482  0.2130  0.9427 -1.6289
 1147TIP3   OH224855   3.469   0.644   3.923  0.1746 -0.4437 -0.5642
 1147TIP3    H124856   3.546   0.594   3.893 -0.5168 -0.1411 -3.1287
 1147TIP3    H224857   3.468   0.721   3.866 -2.0684 -0.4976 -0.6727
 1148TIP3   OH224858   2.061   1.346   2.265  0.5951  0.2180 -0.2817
 1148TIP3    H124859   1.983   1.391   2.297  0.5707  0.4258 -0.6259
 1148TIP3    H224860   2.134   1.397   2.298  0.5560  1.4085 -1.9094
 1149TIP3   OH224861   6.686   0.109  14.338  0.1583  0.1958  0.7253
 1149TIP3    H124862   6.672   0.015  14.349 -0.8243  0.3540  0.9335
 1149TIP3    H224863   6.712   0.119  14.247 -2.5681 -0.0193 -0.1689
 1150TIP3   OH224864   2.552   1.633  10.831 -0.6478  0.3118 -0.5061
 1150TIP3    H124865   2.511   1.664  10.750  1.9614  0.7733 -1.7446
 1150TIP3    H224866   2.554   1.709  10.888  0.6876  0.9793 -1.4053
 1151TIP3   OH224867   2.912   0.739   0.998 -0.1702 -0.2825 -0.2007
 1151TIP3    H124868   2.879   0.657   0.959  0.5657 -0.1534 -1.1153
 1151TIP3    H224869   2.973   0.774   0.933 -0.3869  0.9446  0.2298
 1152TIP3   OH224870   0.351   3.623  16.156 -0.2061 -0.2091 -0.0731
 1152TIP3    H124871   0.437   3.617  16.115  0.7379 -0.5763  1.8292
 1152TIP3    H224872   0.291   3.646  16.085  1.3688 -0.4802 -1.5385
 1153TIP3   OH224873   6.281   0.253   6.266  0.4812 -0.5170  0.2299
 1153TIP3    H124874   6.372   0.281   6.266 -0.2718  2.1994  0.9655
 1153TIP3    H224875   6.260   0.238   6.358 -0.3374  0.8868  0.2976
 1154TIP3   OH224876   2.831   5.649  10.748 -0.5024  0.0513 -0.2000
 1154TIP3    H124877   2.740   5.637  10.775 -1.0866  0.3450 -1.9065
 1154TIP3    H224878   2.831   5.734  10.702  0.6974  0.1940  0.0444
 1155TIP3   OH224879   3.155   3.030   5.637 -0.2195 -0.3647 -0.0248
 1155TIP3    H124880   3.203   3.055   5.716  0.1089 -1.9975  0.3181
 1155TIP3    H224881   3.223   3.003   5.575 -0.6102 -1.7251  0.1126
 1156TIP3   OH224882   5.670   4.731  16.984 -0.4358  0.0885 -0.5866
 1156TIP3    H124883   5.620   4.769  16.911  0.5020 -1.1866 -1.9603
 1156TIP3    H224884   5.753   4.778  16.982 -0.3214 -0.1083 -0.5037
 1157TIP3   OH224885   3.472   4.379  17.485  0.5332  0.2504  0.3923
 1157TIP3    H124886   3.401   4.423  17.532 -0.1081 -1.4432  1.0727
 1157TIP3    H224887   3.539   4.363  17.551  0.5088 -0.3247  0.2787
 1158TIP3   OH224888   0.184   5.303   5.134 -0.2323  0.1211  0.3223
 1158TIP3    H124889   0.114   5.238   5.131  0.5205 -0.6961 -0.5318
 1158TIP3    H224890   0.263   5.252   5.155  0.7003  0.4027 -2.0865
 1159TIP3   OH224891   6.397   0.422  14.783  0.8162 -0.3045 -0.7607
 1159TIP3    H124892   6.339   0.410  14.707 -0.7787  1.1552  0.1381
 1159TIP3    H224893   6.446   0.501  14.764 -1.7170  1.8377  0.8388
 1160TIP3   OH224894   5.569   2.379   5.013 -0.4109 -0.1148  0.7047
 1160TIP3    H124895   5.583   2.285   5.024 -1.1931 -0.3972 -0.4772
 1160TIP3    H224896   5.629   2.420   5.075 -0.5713 -1.3994  1.7477
 1161TIP3   OH224897   0.468   1.207   2.528  0.1339 -0.1961  0.0313
 1161TIP3    H124898   0.482   1.186   2.620  1.2259  3.2385  0.8255
 1161TIP3    H224899   0.557   1.216   2.492 -0.1704  2.0008 -0.3250
 1162TIP3   OH224900   2.664   4.126  17.353 -0.3678  0.4381 -0.5427
 1162TIP3    H124901   2.594   4.188  17.330  0.1023  0.5798 -1.6690
 1162TIP3    H224902   2.732   4.180  17.394 -0.2863  0.5485 -0.8201
 1163TIP3   OH224903   1.150   1.988   1.127  0.0049 -0.5486  0.2304
 1163TIP3    H124904   1.090   2.035   1.069  0.1625 -1.7916 -0.9666
 1163TIP3    H224905   1.109   1.903   1.140 -0.4170 -0.0515  2.6225
 1164TIP3   OH224906   2.667   1.068  15.337 -0.5063  0.6504 -0.1941
 1164TIP3    H124907   2.744   1.040  15.289 -2.5226 -1.5500 -2.4410
 1164TIP3    H224908   2.664   1.163  15.325  0.6849  0.5204 -1.9054
 1165TIP3   OH224909   1.679   1.472  15.486  0.1356  0.1722 -0.6135
 1165TIP3    H124910   1.600   1.522  15.505 -0.2164 -0.2676 -0.8991
 1165TIP3    H224911   1.677   1.459  15.391  1.2099  1.2568 -0.8169
 1166TIP3   OH224912   0.396   1.838  12.621  0.3006 -0.5907  0.2631
 1166TIP3    H124913   0.336   1.765  12.638  2.2555 -2.4262 -0.2764
 1166TIP3    H224914   0.471   1.820  12.678  1.6597 -0.0713 -1.3091
 1167TIP3   OH224915   4.253   3.151   1.150 -0.0944 -0.1372 -0.0387
 1167TIP3    H124916   4.234   3.232   1.198  0.3631 -0.5373  0.8325
 1167TIP3    H224917   4.179   3.142   1.089  0.0823  1.1814 -0.5027
 1168TIP3   OH224918   1.591   0.068   6.123 -0.0067  0.1061  0.1190
 1168TIP3    H124919   1.535   0.029   6.191 -1.7187 -1.2672 -1.9252
 1168TIP3    H224920   1.582   0.162   6.135 -0.1578 -0.0982  1.8376
 1169TIP3   OH224921   0.230   0.047  12.371  0.6372 -0.0678  0.0257
 1169TIP3    H124922   0.310   0.054  12.423  0.8456  0.6472 -0.3706
 1169TIP3    H224923   0.206   0.138  12.353  0.2502 -0.3005 -0.6463
 1170TIP3   OH224924   1.016   2.272   0.040 -0.2513 -0.4639  0.6110
 1170TIP3    H124925   1.041   2.180   0.033 -1.2650 -0.6872 -0.3649
 1170TIP3    H224926   1.035   2.296   0.131  0.6451 -1.4351  0.6976
 1171TIP3   OH224927   1.798   1.635   3.133 -0.2992 -0.3224  0.1333
 1171TIP3    H124928   1.705   1.628   3.110 -0.2785 -0.7881  0.1768
 1171TIP3    H224929   1.809   1.573   3.205  0.2983 -1.1642 -0.6643
 1172TIP3   OH224930   2.959   5.736  17.282  0.1492 -0.0014 -0.3478
 1172TIP3    H124931   2.921   5.766  17.200  0.6665  1.4427 -0.0887
 1172TIP3    H224932   3.047   5.706  17.259  0.1936  0.1437 -0.3681
 1173TIP3   OH224933   5.572   6.076  14.196  0.1498  0.2347 -0.1265
 1173TIP3    H124934   5.485   6.038  14.187 -0.3541  1.0376  1.1165
 1173TIP3    H224935   5.607   6.037  14.276 -0.0544  1.6980  0.7192
 1174TIP3   OH224936   0.884   5.811   0.493 -0.1070 -0.7405 -0.4257
 1174TIP3    H124937   0.882   5.865   0.414  3.8222  0.2211 -0.0770
 1174TIP3    H224938   0.874   5.721   0.461  0.9167 -0.3368 -2.0233
 1175TIP3   OH224939   0.745   2.935   5.579 -0.3291  0.0514 -0.1534
 1175TIP3    H124940   0.839   2.954   5.582  0.3572 -2.3248 -2.7347
 1175TIP3    H224941   0.739   2.853   5.530 -3.6856 -0.6395  1.1863
 1176TIP3   OH224942   5.116   6.479   3.363 -0.4691  0.5374 -0.1138
 1176TIP3    H124943   5.168   6.447   3.289  0.8719  1.5874  0.3492
 1176TIP3    H224944   5.154   6.564   3.385 -1.3015  0.5662  1.3384
 1177TIP3   OH224945   5.856   1.144  14.035  0.3684 -0.8225  0.3556
 1177TIP3    H124946   5.782   1.090  14.062  0.5144 -1.8353 -1.1359
 1177TIP3    H224947   5.897   1.094  13.963  1.2757  0.6771 -0.2129
 1178TIP3   OH224948   2.061   4.725  11.357  0.0779 -0.3167 -0.1071
 1178TIP3    H124949   2.001   4.674  11.302 -0.2348  1.1427 -1.1853
 1178TIP3    H224950   2.118   4.770  11.295  1.3458 -0.5441  0.8670
 1179TIP3   OH224951   0.557   0.159  11.820  0.1077 -0.4402 -0.5116
 1179TIP3    H124952   0.645   0.135  11.848  0.8314  0.1655 -2.1011
 1179TIP3    H224953   0.570   0.240  11.769 -1.3270 -0.5055 -1.0229
 1180TIP3   OH224954   4.392   5.693   4.413  0.3125  0.9270 -0.0774
 1180TIP3    H124955   4.442   5.654   4.341  0.1429 -0.2312  0.4009
 1180TIP3    H224956   4.432   5.657   4.492  0.5636  2.2602  0.4292
 1181TIP3   OH224957   5.337   5.999   0.087  0.5892 -0.0696  0.1984
 1181TIP3    H124958   5.405   5.997   0.155 -0.3925 -0.1456  1.2183
 1181TIP3    H224959   5.300   6.087   0.093 -0.8771 -0.7066  1.2181
 1182TIP3   OH224960   0.869   5.686   1.359 -0.3917  0.6858 -0.3283
 1182TIP3    H124961   0.912   5.603   1.377 -0.5472  0.8582  0.9394
 1182TIP3    H224962   0.775   5.667   1.365 -0.4250  1.2290  1.4938
 1183TIP3   OH224963   0.072   0.541  12.844  0.3856 -0.0453  0.4692
 1183TIP3    H124964  -0.001   0.490  12.879 -0.5974  0.7628 -0.3611
 1183TIP3    H224965   0.041   0.573  12.760  1.5036  0.7776  0.3486
 1184TIP3   OH224966   3.753   5.775  11.943  0.4094  0.3710  0.1752
 1184TIP3    H124967   3.797   5.859  11.959  1.2676  0.0686 -0.4837
 1184TIP3    H224968   3.772   5.723  12.021  1.8564  0.0024 -0.3880
 1185TIP3   OH224969   5.662   3.437  13.694 -0.4367 -0.5273 -0.3699
 1185TIP3    H124970   5.624   3.355  13.725 -2.5666  0.1975 -0.9538
 1185TIP3    H224971   5.661   3.430  13.598 -0.1736 -0.0218 -0.4147
 1186TIP3   OH224972   3.255   5.304   1.694 -0.4526  0.2787  0.0814
 1186TIP3    H124973   3.192   5.292   1.766 -1.9212 -0.1668 -1.2105
 1186TIP3    H224974   3.328   5.247   1.717 -0.9746  0.0023  1.1378
 1187TIP3   OH224975   4.282   4.304  15.014 -0.0812 -0.4575 -0.9667
 1187TIP3    H124976   4.333   4.281  15.092 -1.9785  1.9177  1.1883
 1187TIP3    H224977   4.197   4.261  15.028 -0.5305  0.2074 -1.5867
 1188TIP3   OH224978   5.336   5.044  12.088 -0.1833 -0.2837 -0.3785
 1188TIP3    H124979   5.430   5.059  12.074 -0.6953  2.2758 -1.6637
 1188TIP3    H224980   5.306   5.007  12.005 -0.5167 -0.0226 -0.3713
 1189TIP3   OH224981   0.343   2.841  12.783  0.2891  0.3565 -0.2490
 1189TIP3    H124982   0.385   2.903  12.843  1.2335  1.7823 -2.2596
 1189TIP3    H224983   0.317   2.768  12.838 -0.7840  2.4720  2.2706
 1190TIP3   OH224984   5.948   2.896   3.079  0.2075 -0.2132  0.0741
 1190TIP3    H124985   6.029   2.903   3.129 -0.0038 -1.1715  0.5648
 1190TIP3    H224986   5.958   2.816   3.027 -0.5183 -0.4765  0.3254
 1191TIP3   OH224987   1.837   6.110   2.502  0.1514 -0.0662 -0.1253
 1191TIP3    H124988   1.885   6.037   2.541  0.1535 -0.9027 -1.6182
 1191TIP3    H224989   1.904   6.178   2.491  0.3523 -0.1645  0.4522
 1192TIP3   OH224990   4.760   1.649   4.839  0.3449 -0.1226  0.3808
 1192TIP3    H124991   4.683   1.619   4.790  2.2994 -1.0446 -2.4577
 1192TIP3    H224992   4.755   1.744   4.836  0.3630 -0.1343 -1.7823
 1193TIP3   OH224993   6.039   5.754   3.750 -0.3988 -0.1173  0.1228
 1193TIP3    H124994   6.099   5.757   3.825 -0.4210  0.8706  0.1127
 1193TIP3    H224995   6.003   5.842   3.745 -0.4312 -0.1874 -1.0245
 1194TIP3   OH224996   6.306   4.704  16.211  0.2595  0.4385  0.6414
 1194TIP3    H124997   6.350   4.645  16.273  0.4414 -0.3057 -0.1892
 1194TIP3    H224998   6.275   4.776  16.266 -0.2678 -0.5879  1.7323
 1195TIP3   OH224999   1.555   5.109  16.316 -0.1879  0.3104  0.9952
 1195TIP3    H125000   1.634   5.057  16.332 -0.7312 -1.5665 -1.8556
 1195TIP3    H225001   1.587   5.189  16.274  0.3318  0.5054  1.7382
 1196TIP3   OH225002   3.314   6.466   3.578 -0.0855  0.2313  0.1477
 1196TIP3    H125003   3.353   6.470   3.665  2.1183  0.3155 -0.7750
 1196TIP3    H225004   3.328   6.375   3.550 -2.6265 -0.4009  0.5918
 1197TIP3   OH225005   5.574   0.835  14.827  0.0874  0.0484  0.2995
 1197TIP3    H125006   5.665   0.838  14.795  0.0136 -0.8014 -0.0130
 1197TIP3    H225007   5.562   0.919  14.871  0.3177  1.1405 -1.6138
 1198TIP3   OH225008   0.241   1.508  12.256 -0.1504 -0.1793  0.0485
 1198TIP3    H125009   0.212   1.448  12.326 -0.0038  0.7474  0.9178
 1198TIP3    H225010   0.161   1.555  12.231 -0.2401 -0.6386 -0.5523
 1199TIP3   OH225011   1.635   4.734  16.403 -0.3591 -0.3290  0.4271
 1199TIP3    H125012   1.567   4.780  16.354 -0.8421 -1.0186  0.4248
 1199TIP3    H225013   1.657   4.658  16.348 -0.8766 -1.0874  1.2416
 1200TIP3   OH225014   1.552   3.908  15.836 -0.8936  0.2374  0.3918
 1200TIP3    H125015   1.591   3.903  15.924  1.9633  4.1871 -0.3832
 1200TIP3    H225016   1.582   3.829  15.793  2.0901  0.6066  1.5250
 1201TIP3   OH225017   2.495   6.146  11.781  0.9320  0.1248 -0.9561
 1201TIP3    H125018   2.421   6.162  11.723 -0.0627  0.5905  0.3922
 1201TIP3    H225019   2.501   6.225  11.834  2.5952  0.2102 -1.2303
 1202TIP3   OH225020   3.661   1.828  11.328 -0.4548  0.6366  0.3791
 1202TIP3    H125021   3.572   1.831  11.295 -0.6050  0.9387  0.8090
 1202TIP3    H225022   3.715   1.849  11.252 -0.6099 -1.4346 -0.3695
 1203TIP3   OH225023   1.998   0.381  16.386 -0.0699 -0.7022 -0.0277
 1203TIP3    H125024   2.082   0.377  16.339 -0.5453  0.9520 -1.1025
 1203TIP3    H225025   2.011   0.326  16.463  1.1215 -2.6653 -1.5205
 1204TIP3   OH225026   1.186   6.043  12.259  0.5774 -0.0551 -0.1198
 1204TIP3    H125027   1.121   6.034  12.189  0.6074  1.1531 -0.3162
 1204TIP3    H225028   1.160   5.977  12.324 -0.5196  0.0277 -0.4480
 1205TIP3   OH225029   4.020   0.233   5.371 -0.1482  0.7909 -0.0714
 1205TIP3    H125030   3.945   0.178   5.396 -0.8501  0.5809 -2.4666
 1205TIP3    H225031   4.011   0.311   5.426 -0.2744 -0.5478  1.9530
 1206TIP3   OH225032   1.216   4.955  12.225  0.3251  0.5241 -0.4042
 1206TIP3    H125033   1.304   4.922  12.246 -0.3061  1.0031  3.8958
 1206TIP3    H225034   1.183   4.895  12.158  3.6408 -0.0082 -1.7482
 1207TIP3   OH225035   5.541   0.182   0.073 -0.2148 -0.0654 -0.5521
 1207TIP3    H125036   5.469   0.219   0.123  0.5446 -0.5698  1.0047
 1207TIP3    H225037   5.620   0.210   0.120  0.5696 -0.0170 -1.8630
 1208TIP3   OH225038   4.757   1.554   2.100  0.5215  0.6552 -0.3525
 1208TIP3    H125039   4.767   1.643   2.132 -0.6070  0.4072  0.7885
 1208TIP3    H225040   4.735   1.503   2.178  0.1415 -0.4382 -1.1446
 1209TIP3   OH225041   5.935   6.354   4.939  0.2000 -0.7828  0.3082
 1209TIP3    H125042   5.915   6.409   5.015  0.2192  1.7148 -1.3782
 1209TIP3    H225043   5.855   6.304   4.924 -0.4190 -0.0109  0.9353
 1210TIP3   OH225044   5.794   1.470   5.571  0.9327  0.0314 -0.7533
 1210TIP3    H125045   5.721   1.468   5.632 -0.2759 -0.3809 -2.1655
 1210TIP3    H225046   5.767   1.415   5.498  2.6285 -0.0713 -1.3604
 1211TIP3   OH225047   1.779   1.801   3.896 -0.1717 -0.2330 -0.1290
 1211TIP3    H125048   1.766   1.728   3.956  0.0327  0.7982  1.1951
 1211TIP3    H225049   1.734   1.875   3.936  0.3716  0.6001 -1.0053
 1212TIP3   OH225050   6.154   5.065   1.142  0.1044  0.3047 -0.4899
 1212TIP3    H125051   6.103   5.031   1.069 -0.4225  1.0465 -0.4844
 1212TIP3    H225052   6.101   5.137   1.176  0.2255 -0.1903  0.7877
 1213TIP3   OH225053   3.697   2.614  13.600  0.1714  0.2722 -0.0570
 1213TIP3    H125054   3.731   2.535  13.640  0.0446 -0.5864 -1.5535
 1213TIP3    H225055   3.658   2.584  13.518 -2.1644  1.5319  0.5185
 1214TIP3   OH225056   3.864   3.639   5.126  0.1361 -0.0271 -0.2841
 1214TIP3    H125057   3.836   3.730   5.129  1.2486  0.3040  0.3760
 1214TIP3    H225058   3.905   3.623   5.211 -0.4968 -1.3015 -0.1895
 1215TIP3   OH225059   4.480   2.781  13.020 -0.3964  0.0357 -0.0279
 1215TIP3    H125060   4.398   2.743  12.987 -1.0646 -0.1811  1.7234
 1215TIP3    H225061   4.488   2.865  12.975 -2.6856  1.0055  1.1691
 1216TIP3   OH225062   6.501   5.383   1.898 -0.3075 -0.0162 -0.2845
 1216TIP3    H125063   6.545   5.379   1.813 -0.5771  1.8598 -0.5494
 1216TIP3    H225064   6.564   5.424   1.956 -0.5903 -0.1419  0.1118
 1217TIP3   OH225065   4.125   3.651   2.457  0.4252 -0.4489  0.8429
 1217TIP3    H125066   4.070   3.573   2.444 -1.1640  0.8479 -0.7782
 1217TIP3    H225067   4.081   3.700   2.525  1.9688 -1.3498  2.5801
 1218TIP3   OH225068   1.509   1.441   2.803 -0.0133 -0.3700 -0.4268
 1218TIP3    H125069   1.469   1.370   2.753  0.2471 -1.6233  1.0787
 1218TIP3    H225070   1.434   1.489   2.840 -0.2060 -1.3239  0.4923
 1219TIP3   OH225071   6.528   5.631   0.050 -0.1343  0.2074 -0.0762
 1219TIP3    H125072   6.444   5.626   0.003 -2.2038  3.2041  2.7735
 1219TIP3    H225073   6.568   5.712   0.019  2.5896 -1.8449 -2.3959
 1220TIP3   OH225074   6.588   0.164   6.728  0.3471  0.7172  0.7098
 1220TIP3    H125075   6.636   0.163   6.811 -1.0077 -0.6898  1.5082
 1220TIP3    H225076   6.527   0.091   6.734 -0.7243  1.4108 -0.9862
 1221TIP3   OH225077   5.326   5.979  15.235  0.0783  0.7678  0.0151
 1221TIP3    H125078   5.355   6.067  15.211 -0.2874  0.9078  0.0704
 1221TIP3    H225079   5.392   5.947  15.296 -0.1416  1.2730  0.5310
 1222TIP3   OH225080   1.849   1.213   1.488  0.0115 -0.1575 -0.5174
 1222TIP3    H125081   1.796   1.259   1.552 -2.1431 -3.1514  0.0835
 1222TIP3    H225082   1.789   1.192   1.417  0.9246 -1.6541 -0.9105
 1223TIP3   OH225083   4.420   1.619   1.009 -0.2233 -0.3340 -0.3515
 1223TIP3    H125084   4.340   1.607   1.061  0.4201 -0.0338  0.7247
 1223TIP3    H225085   4.477   1.547   1.035 -0.1185 -0.5216 -1.0893
 1224TIP3   OH225086   2.237   1.763   5.090 -0.5161  0.2220  0.2880
 1224TIP3    H125087   2.192   1.744   5.172  0.2565  1.2908  0.9968
 1224TIP3    H225088   2.304   1.695   5.083  1.9943  2.2295  2.6073
 1225TIP3   OH225089   2.138   1.595   3.793  0.0284 -0.2347  0.0621
 1225TIP3    H125090   2.051   1.575   3.828 -0.3546  0.4115 -0.4901
 1225TIP3    H225091   2.191   1.614   3.870 -0.3096 -0.6612  0.4057
 1226TIP3   OH225092   6.355   4.226   5.212 -0.7595  0.1299  0.5189
 1226TIP3    H125093   6.434   4.277   5.229 -0.9452  0.0558  1.6651
 1226TIP3    H225094   6.318   4.265   5.133  0.0304  0.6349  0.3873
 1227TIP3   OH225095   6.377   4.497  15.934 -0.4181  0.3656 -0.2686
 1227TIP3    H125096   6.361   4.592  15.931 -0.2572  0.4173  0.3832
 1227TIP3    H225097   6.343   4.465  15.851  0.7695  1.1775 -1.1042
 1228TIP3   OH225098   2.906   0.913  16.561  0.4744  0.2200  0.1438
 1228TIP3    H125099   2.982   0.932  16.507  1.3243  0.8163  1.5272
 1228TIP3    H225100   2.844   0.984  16.541 -0.0672 -0.6541 -1.5200
 1229TIP3   OH225101   2.151   4.161   5.816  0.5936 -0.4419  0.1670
 1229TIP3    H125102   2.124   4.070   5.799  0.7296 -0.8752  2.0705
 1229TIP3    H225103   2.076   4.213   5.786 -0.5941 -1.3657  1.3853
 1230TIP3   OH225104   4.036   1.120  12.176 -0.4375  0.3064 -0.3777
 1230TIP3    H125105   4.067   1.152  12.261  1.0187 -1.6776 -0.0934
 1230TIP3    H225106   4.088   1.169  12.112 -1.0418  1.3005 -0.1336
 1231TIP3   OH225107   4.167   6.673  17.023 -0.4974 -0.3797 -0.3321
 1231TIP3    H125108   4.222   6.652  16.948 -1.1633 -2.5105 -0.2931
 1231TIP3    H225109   4.190   6.763  17.046  2.1964 -0.8471 -0.9338
 1232TIP3   OH225110   0.280   2.124   0.264  0.3585  0.0948 -0.3800
 1232TIP3    H125111   0.198   2.097   0.305  0.8095 -0.3792  0.2350
 1232TIP3    H225112   0.260   2.126   0.170 -0.5025  0.5319 -0.2011
 1233TIP3   OH225113   4.382   5.971  13.822 -0.2778  0.0861 -0.1229
 1233TIP3    H125114   4.448   6.020  13.773  0.5164 -1.4436 -0.6673
 1233TIP3    H225115   4.405   5.985  13.914  1.8016 -1.5924 -0.2962
 1234TIP3   OH225116   0.169   4.158   4.324 -0.1971 -0.7822  0.4137
 1234TIP3    H125117   0.250   4.142   4.275  0.5066  0.8479  0.9735
 1234TIP3    H225118   0.114   4.207   4.263 -0.7958 -1.8734  0.0406
 1235TIP3   OH225119   4.203   2.124  12.713  0.1635  0.4338  0.5372
 1235TIP3    H125120   4.160   2.040  12.701  2.0550 -0.4505 -0.4473
 1235TIP3    H225121   4.133   2.188  12.699 -0.7363 -0.9141 -1.6901
 1236TIP3   OH225122   1.834   3.137  16.306 -0.7174 -0.0028 -0.0245
 1236TIP3    H125123   1.811   3.066  16.365  0.4106 -0.2451  0.1280
 1236TIP3    H225124   1.917   3.110  16.266 -0.4232  1.0929 -0.1804
 1237TIP3   OH225125   1.105   0.654  12.759 -0.4822  0.4485  0.9439
 1237TIP3    H125126   1.114   0.645  12.664  0.9646 -0.5990  1.1509
 1237TIP3    H225127   1.011   0.657  12.774 -0.7480 -0.1945 -0.4488
 1238TIP3   OH225128   6.742   2.562   0.633  0.1971 -0.0852  0.5311
 1238TIP3    H125129   6.786   2.643   0.656  1.0849 -0.6341  0.8022
 1238TIP3    H225130   6.650   2.577   0.655  0.7679 -0.0957  3.1903
 1239TIP3   OH225131   4.376   1.738  13.367  0.3832 -0.2029  0.3486
 1239TIP3    H125132   4.304   1.780  13.414 -0.1804  0.5301 -1.0806
 1239TIP3    H225133   4.441   1.718  13.434 -0.1913  1.1819  1.3674
 1240TIP3   OH225134   2.167   0.286  13.800 -0.0896 -0.2463 -0.4327
 1240TIP3    H125135   2.163   0.377  13.830 -0.6796 -0.5226  0.3706
 1240TIP3    H225136   2.235   0.246  13.854 -0.1320 -0.3821 -0.4800
 1241TIP3   OH225137   0.752   1.919   4.964  0.2563 -0.9368  0.0385
 1241TIP3    H125138   0.682   1.854   4.964  0.7497 -1.5078 -1.3860
 1241TIP3    H225139   0.823   1.877   5.015  0.1952 -1.0747  0.0110
 1242TIP3   OH225140   5.370   5.435   2.610 -0.4222  0.0068 -0.2945
 1242TIP3    H125141   5.447   5.390   2.576 -0.4899 -0.1002 -0.3069
 1242TIP3    H225142   5.402   5.485   2.685 -0.5514 -0.9311  0.3975
 1243TIP3   OH225143   6.403   5.046  12.965 -0.4277  0.3516 -0.0271
 1243TIP3    H125144   6.438   5.133  12.985 -0.8437  0.1941  1.5403
 1243TIP3    H225145   6.401   5.042  12.870  0.3766  1.7438 -0.1252
 1244TIP3   OH225146   5.443   4.085   4.428  0.6572 -0.5484  0.2522
 1244TIP3    H125147   5.457   3.990   4.418  1.3380 -0.5090  0.7819
 1244TIP3    H225148   5.408   4.113   4.343 -2.0216 -1.7035  0.8522
 1245TIP3   OH225149   0.288   3.359  15.655 -0.9443  0.5488  0.0225
 1245TIP3    H125150   0.319   3.358  15.564 -0.1551  0.8035  0.2851
 1245TIP3    H225151   0.225   3.286  15.659  0.8289 -1.0730 -0.1174
 1246TIP3   OH225152   4.604   4.663   5.275 -0.0509  0.0955 -0.3540
 1246TIP3    H125153   4.681   4.616   5.241  1.6968  2.1757  0.4744
 1246TIP3    H225154   4.632   4.755   5.279 -3.2985  1.3188 -1.9558
 1247TIP3   OH225155   5.072   4.112   1.343  0.2677 -0.0565 -0.1658
 1247TIP3    H125156   5.088   4.042   1.407 -1.9445 -0.8355 -0.3576
 1247TIP3    H225157   5.004   4.076   1.286  1.1428  1.1847 -2.0769
 1248TIP3   OH225158   2.919   4.221   2.515 -0.0358 -0.1211  0.7403
 1248TIP3    H125159   2.878   4.141   2.547  1.1341 -0.5857  1.1334
 1248TIP3    H225160   2.996   4.191   2.466 -0.1965  0.7147 -0.0670
 1249TIP3   OH225161   1.140   5.233  11.845 -0.4095  0.2790 -0.0979
 1249TIP3    H125162   1.215   5.204  11.898 -0.3553 -0.2231 -0.4402
 1249TIP3    H225163   1.159   5.324  11.825 -0.2810  0.3866  0.4863
 1250TIP3   OH225164   5.798   1.466  11.475  0.3931  0.7727 -0.3548
 1250TIP3    H125165   5.713   1.458  11.432 -0.6170  1.5603  1.3867
 1250TIP3    H225166   5.813   1.560  11.480  1.1742  0.6488 -0.2509
 1251TIP3   OH225167   4.539   6.611  17.030  0.3399  0.1723 -0.1752
 1251TIP3    H125168   4.561   6.528  17.071  2.2698  0.5456 -0.3532
 1251TIP3    H225169   4.529   6.672  17.103 -0.5892 -0.1061 -0.0681
 1252TIP3   OH225170   4.793   3.657   1.056  0.6105 -0.0394  0.9939
 1252TIP3    H125171   4.797   3.673   1.150 -1.5743 -2.7309  1.6615
 1252TIP3    H225172   4.783   3.563   1.048  1.5973  0.0192 -2.0147
 1253TIP3   OH225173   2.285   0.426  12.213 -0.1762  0.5265  0.3932
 1253TIP3    H125174   2.235   0.429  12.295 -1.2140  0.5849 -0.2334
 1253TIP3    H225175   2.343   0.503  12.218  0.4535  0.0066  1.4813
 1254TIP3   OH225176   2.831   5.633   0.013 -0.6688  0.8023 -0.0124
 1254TIP3    H125177   2.755   5.591  -0.028  1.5126 -4.0194  0.2152
 1254TIP3    H225178   2.889   5.653  -0.061 -1.2391  2.6796 -0.0132
 1255TIP3   OH225179   0.795   6.307  16.864  0.0534 -0.2642 -0.3696
 1255TIP3    H125180   0.773   6.377  16.925 -1.1185 -1.8538  1.1635
 1255TIP3    H225181   0.710   6.279  16.828  0.5242 -0.7179 -1.1645
 1256TIP3   OH225182   1.492   1.360  11.343  0.0975 -0.5498  0.1012
 1256TIP3    H125183   1.579   1.369  11.304  0.2452 -0.8554  0.3611
 1256TIP3    H225184   1.460   1.276  11.311  0.5150 -1.1416  1.2166
 1257TIP3   OH225185   1.227   5.795   3.781  0.3981 -0.2708  0.0509
 1257TIP3    H125186   1.134   5.781   3.794  0.1597  2.1807  1.7441
 1257TIP3    H225187   1.265   5.707   3.783 -1.5609 -1.1942  2.3885
 1258TIP3   OH225188   3.163   3.798   2.672  0.4362 -0.2926 -0.3376
 1258TIP3    H125189   3.220   3.789   2.596 -0.0442  0.9647 -0.8783
 1258TIP3    H225190   3.182   3.886   2.706  0.4558 -0.7336  0.8465
 1259TIP3   OH225191   1.444   0.397  15.265  0.2151  0.1818 -0.0721
 1259TIP3    H125192   1.456   0.365  15.354  1.1738 -0.0900 -0.2816
 1259TIP3    H225193   1.430   0.491  15.274  2.0417  0.4657  0.2941
 1260TIP3   OH225194   2.597   0.586   5.456 -0.4232  0.3165 -0.2764
 1260TIP3    H125195   2.615   0.519   5.391 -1.3987  0.2932 -0.5418
 1260TIP3    H225196   2.662   0.571   5.525 -0.1554 -0.4201 -0.6802
 1261TIP3   OH225197   3.201   5.537  12.799 -0.2127 -0.0668 -0.3529
 1261TIP3    H125198   3.177   5.458  12.751  0.7031 -0.0715 -0.8311
 1261TIP3    H225199   3.181   5.517  12.890 -0.9078 -0.4807 -0.5855
 1262TIP3   OH225200   3.547   0.753  14.752  0.0048  0.1408 -0.2648
 1262TIP3    H125201   3.480   0.711  14.805  0.5558  0.0632  0.3806
 1262TIP3    H225202   3.625   0.699  14.765  1.0713  1.9630  1.5199
 1263TIP3   OH225203   3.959   5.979   1.238 -0.0641  0.3224 -0.1267
 1263TIP3    H125204   3.924   5.900   1.198  1.3079  0.2515 -1.2641
 1263TIP3    H225205   3.916   6.051   1.191  0.0966  0.2443 -0.3951
 1264TIP3   OH225206   2.440   4.661   5.823  0.0357 -0.2952  0.2010
 1264TIP3    H125207   2.369   4.664   5.759  0.7840  1.5536 -0.6122
 1264TIP3    H225208   2.406   4.709   5.899 -0.0379 -0.5115  0.3049
 1265TIP3   OH225209   1.851   4.845   0.137  0.4318 -0.1730  0.1689
 1265TIP3    H125210   1.905   4.922   0.120  1.0704 -0.4212  1.0267
 1265TIP3    H225211   1.882   4.811   0.221  0.2690 -1.4545 -0.2649
 1266TIP3   OH225212   5.298   1.156   2.619 -0.4384 -0.0329 -0.0798
 1266TIP3    H125213   5.205   1.175   2.627 -0.2089  1.0667  0.0760
 1266TIP3    H225214   5.338   1.239   2.596  0.3647 -0.7243 -1.3347
 1267TIP3   OH225215   2.529   2.011   5.250  0.3244 -0.1205 -0.3138
 1267TIP3    H125216   2.593   1.971   5.191 -0.1830 -1.5306  0.0535
 1267TIP3    H225217   2.520   1.948   5.322  0.1898  1.1028  0.7814
 1268TIP3   OH225218   4.675   2.451  11.327  0.2185  0.0609 -0.1496
 1268TIP3    H125219   4.581   2.468  11.318  0.2620  0.1944 -0.3572
 1268TIP3    H225220   4.699   2.494  11.409  0.0675 -0.1056 -0.0180
 1269TIP3   OH225221   6.154   4.967  13.766 -0.1410 -0.0645  0.5353
 1269TIP3    H125222   6.151   5.034  13.836 -1.4798 -1.0712  1.4877
 1269TIP3    H225223   6.235   4.919  13.783  0.8475  1.2681 -0.1659
 1270TIP3   OH225224   3.532   5.492  11.094  0.1884  0.6096 -0.1938
 1270TIP3    H125225   3.496   5.411  11.129 -0.6611  1.2346  0.4545
 1270TIP3    H225226   3.508   5.492  11.002  0.8503 -0.2128 -0.3748
 1271TIP3   OH225227   2.273   3.899  16.673 -0.5170 -0.6807 -0.0590
 1271TIP3    H125228   2.223   3.965  16.721 -0.6962 -0.0326 -1.1289
 1271TIP3    H225229   2.246   3.816  16.713 -1.1535 -0.2094  0.5175
 1272TIP3   OH225230   1.418   3.778  13.238  0.2664 -0.0288 -0.5016
 1272TIP3    H125231   1.449   3.782  13.148  2.4049 -1.8022  0.0764
 1272TIP3    H225232   1.480   3.832  13.287  0.3158 -0.6789  0.1700
 1273TIP3   OH225233   3.180   6.003   4.614 -0.3734  0.6838 -0.1257
 1273TIP3    H125234   3.138   5.919   4.631  0.3176  0.5433  0.9773
 1273TIP3    H225235   3.188   6.007   4.518  0.3859 -0.9247 -0.1680
 1274TIP3   OH225236   0.604   6.545  14.630  0.0281 -0.3898  0.6827
 1274TIP3    H125237   0.696   6.527  14.610 -0.2301  0.8064 -1.9071
 1274TIP3    H225238   0.605   6.625  14.682  0.4408  0.9486 -1.2513
 1275TIP3   OH225239   2.714   2.864  11.578  0.5559 -0.1832  0.4064
 1275TIP3    H125240   2.777   2.933  11.601 -0.4643  0.2142  2.2387
 1275TIP3    H225241   2.633   2.912  11.561  0.4462 -0.7710 -0.7836
 1276TIP3   OH225242   3.060   4.641  16.606  0.3068  0.5289  0.2454
 1276TIP3    H125243   3.069   4.589  16.526  1.0251 -0.3578  0.8613
 1276TIP3    H225244   3.148   4.637  16.646 -0.2176  0.3207  1.4264
 1277TIP3   OH225245   2.833   5.529   5.955 -0.3551  0.0442 -0.2995
 1277TIP3    H125246   2.769   5.578   6.007 -1.9742 -2.5152  0.2945
 1277TIP3    H225247   2.780   5.476   5.896  1.1938 -1.9185 -0.0357
 1278TIP3   OH225248   0.277   6.085  16.753 -0.5033  0.4645  0.5804
 1278TIP3    H125249   0.322   6.060  16.673 -0.3836  1.3214  0.3690
 1278TIP3    H225250   0.184   6.075  16.734 -0.4382 -0.5213  0.7489
 1279TIP3   OH225251   5.567   1.342  16.696  0.1298  0.8095  0.0155
 1279TIP3    H125252   5.649   1.392  16.703  0.5375  0.0097  1.4872
 1279TIP3    H225253   5.582   1.265  16.750 -1.7023  0.7842  0.5485
 1280TIP3   OH225254   5.676   5.101   2.996 -0.0730 -0.1285 -0.1140
 1280TIP3    H125255   5.627   5.124   2.917 -1.0650  3.9172  1.3974
 1280TIP3    H225256   5.761   5.145   2.985  0.1188 -0.2970  0.6611
 1281TIP3   OH225257   1.514   1.102  14.040  0.3526  0.1520 -0.0492
 1281TIP3    H125258   1.498   1.196  14.051 -0.4512  0.1673 -1.1680
 1281TIP3    H225259   1.454   1.060  14.102  0.3370  0.3646  0.0794
 1282TIP3   OH225260   2.127   3.417   0.972 -0.6294  0.0501  0.4493
 1282TIP3    H125261   2.113   3.492   1.031  0.0933  0.8676 -0.3967
 1282TIP3    H225262   2.047   3.365   0.981 -2.3742  2.2867 -0.9199
 1283TIP3   OH225263   2.087   2.344  14.968  0.1299  0.4434 -0.3080
 1283TIP3    H125264   2.013   2.388  15.010 -0.3732  1.5402 -2.2638
 1283TIP3    H225265   2.049   2.265  14.930  0.4572 -0.2139  0.7005
 1284TIP3   OH225266   3.040   6.367  14.131  0.6351 -0.4566  0.2042
 1284TIP3    H125267   3.056   6.317  14.211 -0.9706 -1.6213 -0.1452
 1284TIP3    H225268   3.104   6.333  14.069  2.0901  0.6671  1.0533
 1285TIP3   OH225269   2.508   3.657  13.528 -0.1187  0.5046  0.1218
 1285TIP3    H125270   2.486   3.744  13.496 -0.0923  0.1081 -1.0074
 1285TIP3    H225271   2.583   3.630  13.474 -2.1547 -1.5447 -1.8754
 1286TIP3   OH225272   6.224   5.154   3.061  0.7163 -0.8435  0.4338
 1286TIP3    H125273   6.237   5.067   3.023 -0.1245 -0.6281 -0.3949
 1286TIP3    H225274   6.268   5.150   3.145 -0.4589 -2.5307  1.0437
 1287TIP3   OH225275   2.587   4.454   2.650 -0.4365 -0.6970 -0.4628
 1287TIP3    H125276   2.650   4.453   2.577  0.9414 -0.0296  0.6736
 1287TIP3    H225277   2.507   4.491   2.612  0.5911  0.6772 -1.3963
 1288TIP3   OH225278   0.944   0.128  11.776 -0.1623 -0.3138 -0.3798
 1288TIP3    H125279   0.903   0.215  11.768 -0.5052 -0.4178  0.2014
 1288TIP3    H225280   1.036   0.143  11.756 -0.6133 -0.2330 -2.6716
 1289TIP3   OH225281   6.711   2.602   1.930  0.0652  0.1555  0.3727
 1289TIP3    H125282   6.765   2.555   1.994 -0.9431  0.4127  1.4532
 1289TIP3    H225283   6.770   2.666   1.891  1.1595 -1.1992 -0.2910
 1290TIP3   OH225284   1.099   1.248  11.925  0.1561 -0.5277 -0.1277
 1290TIP3    H125285   1.193   1.261  11.938 -0.1039  0.7633  0.5309
 1290TIP3    H225286   1.079   1.170  11.977  0.7203 -0.3537  0.3685
 1291TIP3   OH225287   2.890   0.846   1.539  0.5898 -0.4658 -0.1691
 1291TIP3    H125288   2.876   0.843   1.444  2.4460 -1.2099 -0.4552
 1291TIP3    H225289   2.929   0.932   1.554 -0.4861 -0.0037  0.0631
 1292TIP3   OH225290   5.346   5.418  11.356  0.6456  0.6898 -0.0268
 1292TIP3    H125291   5.392   5.451  11.278  0.2390 -2.3937 -1.7500
 1292TIP3    H225292   5.298   5.342  11.324 -1.1118  0.4301  2.9134
 1293TIP3   OH225293   1.037   1.887  11.995  0.4421  0.2920  0.9083
 1293TIP3    H125294   1.079   1.876  11.909 -1.4067  0.4513 -0.0682
 1293TIP3    H225295   1.090   1.834  12.054  1.6361 -0.0029 -0.3687
 1294TIP3   OH225296   5.538   6.603  15.065 -0.4961 -0.3562  0.1042
 1294TIP3    H125297   5.564   6.550  14.990  2.7385  0.0646  0.7976
 1294TIP3    H225298   5.600   6.677  15.065 -0.9249  0.0782  2.7011
 1295TIP3   OH225299   5.461   4.643  12.102 -0.3641  0.5603  0.5064
 1295TIP3    H125300   5.471   4.640  12.007  0.6707 -0.3084  0.6317
 1295TIP3    H225301   5.533   4.591  12.136 -0.4114  1.2858  1.7980
 1296TIP3   OH225302   4.818   0.368  16.548 -0.2248 -0.0774  0.3974
 1296TIP3    H125303   4.866   0.424  16.487 -0.9178 -0.2997 -0.3615
 1296TIP3    H225304   4.838   0.279  16.518  2.1306 -0.3931  2.5002
 1297TIP3   OH225305   4.074   1.728   5.612 -0.3458  0.2220 -0.1326
 1297TIP3    H125306   4.050   1.707   5.702 -1.2632  1.8768  0.0516
 1297TIP3    H225307   4.158   1.684   5.598  0.1903  0.5621  1.7875
 1298TIP3   OH225308   6.066   3.341   0.407 -0.0571  0.3003  0.5633
 1298TIP3    H125309   6.017   3.359   0.327 -1.5485 -1.0032  1.1277
 1298TIP3    H225310   6.000   3.338   0.476  0.7300 -1.7844  1.3183
 1299TIP3   OH225311   6.184   2.011  14.183 -0.4133  0.5414 -0.1482
 1299TIP3    H125312   6.276   2.009  14.210 -0.1964  1.6042 -0.7362
 1299TIP3    H225313   6.139   1.953  14.245  0.5759  0.3581  0.4191
 1300TIP3   OH225314   0.405   1.593  16.321  0.0852  0.0707  0.2251
 1300TIP3    H125315   0.312   1.571  16.323  0.0355  0.2570  0.0337
 1300TIP3    H225316   0.407   1.686  16.302  0.3109  0.0791  0.2897
 1301TIP3   OH225317   1.065   0.455  14.605 -0.5196  0.0127 -0.1868
 1301TIP3    H125318   1.036   0.415  14.522 -2.9271  0.4383  0.3758
 1301TIP3    H225319   1.080   0.380  14.663  1.9632 -0.3357 -1.1607
 1302TIP3   OH225320   5.880   5.636   3.186 -0.0432 -0.2770  0.4204
 1302TIP3    H125321   5.791   5.626   3.155 -0.1097  0.0391  0.4999
 1302TIP3    H225322   5.935   5.617   3.110 -0.1926 -0.0165  0.2444
 1303TIP3   OH225323   3.651   0.742   5.877  0.1987 -0.2622 -0.4298
 1303TIP3    H125324   3.733   0.712   5.915  0.4901 -0.5834 -1.2957
 1303TIP3    H225325   3.673   0.767   5.787 -0.7552 -0.9366 -0.8710
 1304TIP3   OH225326   5.461   2.042   6.325 -0.3893  0.0733  0.3202
 1304TIP3    H125327   5.426   2.042   6.236 -1.5613  0.5305  0.7554
 1304TIP3    H225328   5.464   2.135   6.350 -1.7386 -0.1202  1.3554
 1305TIP3   OH225329   3.942   4.794   4.909 -0.0932 -0.6012  0.3954
 1305TIP3    H125330   3.855   4.763   4.881 -0.3987 -0.5718  1.2887
 1305TIP3    H225331   3.999   4.718   4.897  0.8625  0.5135 -4.5905
 1306TIP3   OH225332   5.108   6.156  13.151  0.0843  0.4524  0.2017
 1306TIP3    H125333   5.167   6.173  13.078 -0.4311 -0.4364 -0.4412
 1306TIP3    H225334   5.023   6.142  13.110 -0.2995  0.3420  1.0130
 1307TIP3   OH225335   0.660   0.668  15.756 -0.1169  0.2935  0.2796
 1307TIP3    H125336   0.733   0.646  15.813  0.6183  2.7457  0.4134
 1307TIP3    H225337   0.589   0.693  15.816 -0.4936 -0.4333  0.1409
 1308TIP3   OH225338   3.089   0.028   2.508 -1.0378  0.1294  0.1067
 1308TIP3    H125339   3.143   0.075   2.446 -0.5666 -1.5255 -0.7935
 1308TIP3    H225340   3.001   0.030   2.470 -1.2059  1.0014  0.5144
 1309TIP3   OH225341   0.188   6.294  14.666 -0.4958  0.7120  0.2365
 1309TIP3    H125342   0.113   6.236  14.650 -1.0633  1.8922 -1.7710
 1309TIP3    H225343   0.198   6.295  14.761 -1.6690 -1.1511  0.4234
 1310TIP3   OH225344   5.491   1.463   0.344 -0.2784  0.1296 -1.0573
 1310TIP3    H125345   5.500   1.456   0.439  0.6631 -3.2363 -1.2735
 1310TIP3    H225346   5.396   1.463   0.329 -0.4390 -0.9337 -0.1414
 1311TIP3   OH225347   4.608   1.529  14.314  0.2393 -0.5341 -0.2130
 1311TIP3    H125348   4.528   1.560  14.272  0.6987 -0.7819 -1.3401
 1311TIP3    H225349   4.678   1.579  14.272  0.5762  1.2785  2.2927
 1312TIP3   OH225350   6.324   5.578   0.461 -0.1695  0.0461 -0.1905
 1312TIP3    H125351   6.246   5.581   0.406 -0.7883  0.1686  0.6741
 1312TIP3    H225352   6.368   5.661   0.444 -1.7221  1.2548  1.4243
 1313TIP3   OH225353   4.442   0.591   3.231  0.2206  0.0397 -0.1593
 1313TIP3    H125354   4.413   0.665   3.285  1.6405  0.5258 -0.0131
 1313TIP3    H225355   4.437   0.515   3.289 -1.2737  0.0008 -0.3177
 1314TIP3   OH225356   2.034   4.420   5.880  0.0599 -0.0330  0.0988
 1314TIP3    H125357   1.958   4.439   5.934 -0.8922  1.5053 -1.6946
 1314TIP3    H225358   2.006   4.439   5.791  0.9690 -4.1406 -1.3068
 1315TIP3   OH225359   4.750   5.450   0.877 -0.7275 -0.1711 -0.6089
 1315TIP3    H125360   4.657   5.470   0.882 -1.0291 -1.4163 -1.0070
 1315TIP3    H225361   4.780   5.449   0.968 -1.0918  0.2440 -0.4814
 1316TIP3   OH225362   2.267   4.747   4.774 -0.0718 -0.2336 -0.2268
 1316TIP3    H125363   2.353   4.749   4.732 -0.1652 -0.3956 -0.4278
 1316TIP3    H225364   2.273   4.812   4.843  0.3711 -0.5774  0.0705
 1317TIP3   OH225365   5.687   0.681   0.522  0.2044  0.0212  0.3739
 1317TIP3    H125366   5.751   0.612   0.502 -0.4098 -0.4699  0.0825
 1317TIP3    H225367   5.739   0.750   0.563  1.3996  0.7417 -2.1428
 1318TIP3   OH225368   5.670   1.348   0.197 -0.1658  0.0871  0.2308
 1318TIP3    H125369   5.621   1.381   0.272  0.4206 -0.3496  0.8163
 1318TIP3    H225370   5.607   1.349   0.125 -1.4808 -1.7553  1.2620
 1319TIP3   OH225371   4.042   4.816   0.400 -0.8317  0.4034 -0.5079
 1319TIP3    H125372   3.992   4.885   0.443  0.8030  1.1773  0.2709
 1319TIP3    H225373   4.121   4.861   0.368  0.5861 -1.1840  0.5903
 1320TIP3   OH225374   5.153   6.250   1.652  0.1836  0.1399 -0.4434
 1320TIP3    H125375   5.216   6.292   1.593 -0.5903 -0.9200 -2.0997
 1320TIP3    H225376   5.077   6.309   1.652  0.3267  0.3246 -0.2060
 1321TIP3   OH225377   2.709   3.719   3.816 -0.4943 -0.0614  0.2746
 1321TIP3    H125378   2.733   3.634   3.852  1.4478  0.9299  1.4553
 1321TIP3    H225379   2.688   3.701   3.725  0.0299 -1.7747  0.4553
 1322TIP3   OH225380   4.518   5.277  11.467 -0.3866 -0.2191 -0.2031
 1322TIP3    H125381   4.549   5.207  11.524 -0.0503 -0.8792 -1.1573
 1322TIP3    H225382   4.569   5.354  11.494 -0.0980 -0.5617  0.2547
 1323TIP3   OH225383   5.957   4.232   0.653  0.0556 -0.0176 -0.0216
 1323TIP3    H125384   6.003   4.148   0.644 -2.8654 -2.0579  1.9321
 1323TIP3    H225385   5.985   4.265   0.739 -0.1437  0.0996 -0.0017
 1324TIP3   OH225386   3.455   1.771  15.114 -0.0365  0.3910 -0.4589
 1324TIP3    H125387   3.446   1.764  15.209 -0.3153 -0.5258 -0.5416
 1324TIP3    H225388   3.365   1.780  15.082 -0.1132 -1.0868 -0.7448
 1325TIP3   OH225389   3.931   6.548   0.786  0.0177 -0.4417 -0.3214
 1325TIP3    H125390   3.946   6.633   0.745 -2.3542  0.1211 -0.1996
 1325TIP3    H225391   4.010   6.531   0.837  0.8541  1.3204 -0.9582
 1326TIP3   OH225392   6.081   3.166  11.686  0.5153  0.4270 -0.4719
 1326TIP3    H125393   6.162   3.196  11.644  0.5494  1.3399  0.1983
 1326TIP3    H225394   6.012   3.214  11.641  0.4838  0.7819 -0.0565
 1327TIP3   OH225395   0.953   3.839  14.454 -0.1309 -0.5280  0.2667
 1327TIP3    H125396   0.864   3.804  14.447 -0.8280  1.1671  0.2380
 1327TIP3    H225397   0.972   3.840  14.547 -0.0299 -1.1184  0.2583
 1328TIP3   OH225398   3.680   0.444   6.026 -0.1169  0.3644 -0.5508
 1328TIP3    H125399   3.584   0.451   6.026 -0.2473 -0.9937  0.1095
 1328TIP3    H225400   3.702   0.406   5.941 -0.2948 -0.5284 -0.2092
 1329TIP3   OH225401   2.597   1.136   1.662 -0.5514 -0.0712 -0.4366
 1329TIP3    H125402   2.566   1.163   1.575  2.5591  0.1254 -1.6074
 1329TIP3    H225403   2.681   1.180   1.672 -0.0313 -1.4367  1.9799
 1330TIP3   OH225404   0.360   6.245  16.268  0.3704  0.3126  0.4842
 1330TIP3    H125405   0.296   6.244  16.197 -0.2971  0.6774  1.0620
 1330TIP3    H225406   0.308   6.227  16.347  1.2675 -1.2499  0.7591
 1331TIP3   OH225407   5.413   3.823   2.472 -0.2569 -0.4047  0.0500
 1331TIP3    H125408   5.356   3.822   2.395 -2.1023  0.2071  1.3412
 1331TIP3    H225409   5.354   3.810   2.546  0.7488  3.2703  1.7299
 1332TIP3   OH225410   1.581   0.681  16.920 -0.0670 -0.2380 -0.0581
 1332TIP3    H125411   1.558   0.709  17.008  0.1227 -1.0044  0.2462
 1332TIP3    H225412   1.584   0.585  16.925  2.3324 -0.2268 -0.2831
 1333TIP3   OH225413   2.421   4.539   0.493 -0.0798 -0.6275 -0.1952
 1333TIP3    H125414   2.435   4.541   0.588  0.7831  0.0967 -0.3250
 1333TIP3    H225415   2.382   4.624   0.473  0.7506 -0.3345 -0.6247
 1334TIP3   OH225416   1.728   4.994   3.980 -0.0752 -0.6670 -0.5817
 1334TIP3    H125417   1.748   4.918   3.926  3.6432  0.4385 -1.0069
 1334TIP3    H225418   1.788   4.988   4.054 -2.1891  0.0700  1.3231
 1335TIP3   OH225419   3.147   5.768  12.116 -0.2957 -0.8953  0.6541
 1335TIP3    H125420   3.169   5.848  12.067  0.5783  0.6870  3.3702
 1335TIP3    H225421   3.088   5.720  12.059  1.6835  0.0811 -2.4789
 1336TIP3   OH225422   5.112   0.874  13.820  0.0986  0.1543 -0.9992
 1336TIP3    H125423   5.108   0.910  13.909 -0.3063  0.2146 -1.0403
 1336TIP3    H225424   5.063   0.793  13.824 -0.4295  0.4538 -1.3063
 1337TIP3   OH225425   4.802   2.597  11.530  0.3048 -0.8230  0.4516
 1337TIP3    H125426   4.896   2.580  11.524  0.2818 -1.3605  1.4132
 1337TIP3    H225427   4.795   2.673  11.589  0.1569 -0.3975 -0.0994
 1338TIP3   OH225428   4.351   3.130  14.036 -0.0443  0.3430 -0.0280
 1338TIP3    H125429   4.296   3.168  13.967 -0.4481 -0.0825  0.0547
 1338TIP3    H225430   4.299   3.140  14.116  0.6533  1.3349  0.3221
 1339TIP3   OH225431   3.899   0.193   2.678 -0.0073  0.1797 -0.3080
 1339TIP3    H125432   3.805   0.205   2.665 -0.1914 -0.7953 -0.0047
 1339TIP3    H225433   3.916   0.229   2.765 -0.3087 -0.5656  0.0719
 1340TIP3   OH225434   6.517   0.383   3.134 -0.8145 -0.2219 -0.2174
 1340TIP3    H125435   6.599   0.402   3.180 -2.3686  0.8965  2.3006
 1340TIP3    H225436   6.539   0.391   3.041  1.8056  0.4327  0.3718
 1341TIP3   OH225437   1.850   0.750  12.821  0.1958  0.1900  0.1806
 1341TIP3    H125438   1.890   0.759  12.735 -0.8795 -0.7724 -0.4503
 1341TIP3    H225439   1.811   0.663  12.820 -1.4895  0.8958  0.9086
 1342TIP3   OH225440   5.874   2.926   1.434  0.1961  0.1200 -0.0158
 1342TIP3    H125441   5.816   2.973   1.373  0.2605  0.3925  0.1310
 1342TIP3    H225442   5.949   2.984   1.444  0.7850 -0.5100 -0.6934
 1343TIP3   OH225443   4.812   0.615  10.934  0.1841  0.5348  0.3145
 1343TIP3    H125444   4.885   0.603  10.994 -0.4967 -0.3123  1.0013
 1343TIP3    H225445   4.777   0.527  10.920  0.3440  0.7127 -1.3658
 1344TIP3   OH225446   4.180   3.672   3.920 -0.1252  0.0829 -0.5887
 1344TIP3    H125447   4.180   3.723   3.839  0.2208  0.0924 -0.5812
 1344TIP3    H225448   4.248   3.712   3.974  0.9092 -1.0760 -1.0033
 1345TIP3   OH225449   3.523   6.431   0.585  0.1271 -0.3764  0.0976
 1345TIP3    H125450   3.488   6.520   0.582 -2.6628 -1.4018 -0.5503
 1345TIP3    H225451   3.515   6.404   0.677  0.8632 -0.0186  0.2715
 1346TIP3   OH225452   0.706   1.435  17.436 -0.2878 -0.6784  0.2325
 1346TIP3    H125453   0.765   1.507  17.458  0.2651 -0.9930 -0.1935
 1346TIP3    H225454   0.619   1.466  17.462  0.1311 -0.4344  1.3695
 1347TIP3   OH225455   0.588   4.968  11.201  0.3956 -0.4972 -0.0962
 1347TIP3    H125456   0.613   4.889  11.154  0.9068  0.1504 -0.9455
 1347TIP3    H225457   0.526   4.938  11.268 -0.8033 -1.3754 -1.5506
 1348TIP3   OH225458   1.622   3.379   2.823 -0.0005 -0.1526  0.5673
 1348TIP3    H125459   1.671   3.317   2.878  2.0882 -0.0787 -1.0795
 1348TIP3    H225460   1.532   3.347   2.826  0.2266 -0.7819  3.1036
 1349TIP3   OH225461   3.223   2.463   3.613 -0.5033 -0.2641 -0.6959
 1349TIP3    H125462   3.286   2.477   3.684 -1.6065 -0.1471  0.2945
 1349TIP3    H225463   3.273   2.416   3.546  0.9473  0.8856 -0.4623
 1350TIP3   OH225464   5.944   2.907  16.360  0.3398 -0.3363  0.0132
 1350TIP3    H125465   5.925   2.947  16.445  2.3186 -0.8490  0.7589
 1350TIP3    H225466   5.869   2.929  16.305 -1.3971 -0.6941  2.1206
 1351TIP3   OH225467   2.248   2.148   0.795 -0.6243  0.0933  0.0551
 1351TIP3    H125468   2.239   2.056   0.822 -0.9979  0.1708  0.2039
 1351TIP3    H225469   2.238   2.146   0.700  2.0360 -0.3594 -0.3018
 1352TIP3   OH225470   4.019   5.663   4.682 -0.1759  0.2361  0.1432
 1352TIP3    H125471   4.081   5.596   4.655 -1.5453 -1.2791  0.6308
 1352TIP3    H225472   3.940   5.646   4.631 -0.9332  0.7618  1.0944
 1353TIP3   OH225473   0.447   4.654  11.484 -0.4219 -0.4956 -0.4733
 1353TIP3    H125474   0.444   4.559  11.493  0.2621 -0.5807 -1.0430
 1353TIP3    H225475   0.492   4.685  11.562 -0.4725 -0.6504 -0.3832
 1354TIP3   OH225476   5.137   4.469  11.419  0.1707 -0.7985 -0.3820
 1354TIP3    H125477   5.145   4.544  11.361 -0.0551  0.2776  0.9191
 1354TIP3    H225478   5.063   4.491  11.477  0.1921 -1.9563  0.1154
 1355TIP3   OH225479   2.064   5.554  15.171 -0.3219 -0.5127 -0.0075
 1355TIP3    H125480   2.103   5.591  15.250  0.8954  0.8471 -1.1890
 1355TIP3    H225481   2.127   5.489  15.141 -0.2256 -0.2186 -0.4606
 1356TIP3   OH225482   3.106   6.411  15.293 -0.1148 -0.2497  0.1278
 1356TIP3    H125483   3.050   6.462  15.234 -0.9872 -1.2786  0.0356
 1356TIP3    H225484   3.076   6.434  15.381  0.4297  0.4290  0.1460
 1357TIP3   OH225485   4.210   5.312  11.962 -0.6149 -0.4601  0.6037
 1357TIP3    H125486   4.150   5.237  11.965  1.1903 -2.0195  0.1253
 1357TIP3    H225487   4.273   5.289  11.894 -0.0505  1.5864  0.3757
 1358TIP3   OH225488   2.094   2.497   4.183 -0.2256  0.4010 -0.4596
 1358TIP3    H125489   2.061   2.481   4.094  0.4791  1.0720 -0.8582
 1358TIP3    H225490   2.015   2.504   4.236 -0.6459 -0.7857 -0.8789
 1359TIP3   OH225491   5.693   5.759  14.993 -0.0492  0.0523 -0.0151
 1359TIP3    H125492   5.781   5.744  15.027 -0.0718  0.5158  0.2536
 1359TIP3    H225493   5.669   5.846  15.026 -0.0965  0.4897 -1.1489
 1360TIP3   OH225494   1.714   3.173  16.923 -0.1232  0.0360 -0.1508
 1360TIP3    H125495   1.719   3.159  17.018 -4.0336 -1.1291  0.0722
 1360TIP3    H225496   1.765   3.102  16.885  1.2721  0.3611  1.0248
 1361TIP3   OH225497   3.774   1.165  12.201  0.2839 -1.1561 -0.3302
 1361TIP3    H125498   3.738   1.156  12.112 -0.2222 -2.8276  0.0094
 1361TIP3    H225499   3.869   1.158  12.189  0.2155 -1.4216 -0.7391
 1362TIP3   OH225500   1.811   0.133  17.415  0.6330  0.3442 -0.1973
 1362TIP3    H125501   1.866   0.062  17.382  1.0377  1.2322 -1.5220
 1362TIP3    H225502   1.866   0.178  17.478  1.0308  0.5539 -0.6889
 1363TIP3   OH225503   5.391   6.114  16.259  0.7097 -0.2105  0.4869
 1363TIP3    H125504   5.373   6.114  16.353 -0.4703 -2.2165  0.3426
 1363TIP3    H225505   5.484   6.094  16.252  0.7406 -0.3588  1.2401
 1364TIP3   OH225506   5.820   4.869   2.111 -0.1906  0.0204 -0.8824
 1364TIP3    H125507   5.740   4.829   2.142 -0.7367  0.1687 -2.0404
 1364TIP3    H225508   5.821   4.956   2.151 -0.5858 -0.0022 -0.8242
 1365TIP3   OH225509   1.764   3.670   6.353  0.3480 -0.4662 -0.2179
 1365TIP3    H125510   1.771   3.576   6.368  0.0794 -0.8149 -2.0430
 1365TIP3    H225511   1.835   3.690   6.292  0.5690  0.5758  0.3521
 1366TIP3   OH225512   4.163   2.506   6.052  0.1579  0.1017 -0.0621
 1366TIP3    H125513   4.226   2.515   5.981  0.9752 -2.3657  0.2486
 1366TIP3    H225514   4.205   2.446   6.114 -2.7290 -2.3705 -0.2474
 1367TIP3   OH225515   1.917   5.231  16.417  0.4882  0.1420 -0.8742
 1367TIP3    H125516   1.981   5.176  16.462 -1.4162 -1.3807  0.1286
 1367TIP3    H225517   1.849   5.170  16.388 -1.8674  1.9305  0.5371
 1368TIP3   OH225518   4.169   1.133   6.095  0.4348 -0.1614  0.2108
 1368TIP3    H125519   4.192   1.213   6.048  0.1355 -0.2143 -0.0259
 1368TIP3    H225520   4.186   1.154   6.187  0.3165  0.1934  0.1554
 1369TIP3   OH225521   3.905   2.725   2.895 -0.3141  0.4014  0.4199
 1369TIP3    H125522   3.827   2.747   2.844  0.9230  0.2051 -1.6726
 1369TIP3    H225523   3.973   2.708   2.829  1.5562  0.7560  2.1554
 1370TIP3   OH225524   6.309   4.258   4.131  0.1559  0.1539 -0.2098
 1370TIP3    H125525   6.290   4.351   4.119  0.2182  0.0242 -1.3752
 1370TIP3    H225526   6.405   4.253   4.128  0.1068 -0.2354 -2.6160
 1371TIP3   OH225527   6.704   3.236   1.744 -0.3218 -0.1573  0.1241
 1371TIP3    H125528   6.624   3.189   1.769 -0.7048  0.7175  0.5585
 1371TIP3    H225529   6.690   3.325   1.775 -0.7060  0.9430 -2.9391
 1372TIP3   OH225530   5.123   0.531  13.436 -0.3006 -0.3410 -0.2087
 1372TIP3    H125531   5.205   0.480  13.430 -0.1653 -0.1722  0.2041
 1372TIP3    H225532   5.056   0.472  13.401 -0.1895 -0.9154  0.5324
 1373TIP3   OH225533   0.672   3.044   2.399 -0.1778  0.0982  0.5388
 1373TIP3    H125534   0.649   3.058   2.307  1.5008 -1.3483 -0.1890
 1373TIP3    H225535   0.601   3.084   2.449 -2.5533 -1.3878 -1.4093
 1374TIP3   OH225536   4.529   6.107  12.458  0.5297 -0.2715  0.1531
 1374TIP3    H125537   4.512   6.130  12.549  0.1982 -0.3678  0.1183
 1374TIP3    H225538   4.500   6.016  12.450  1.6641 -0.6521  0.2458
 1375TIP3   OH225539   2.069   3.294  11.479  0.0050 -0.2981 -0.1266
 1375TIP3    H125540   2.018   3.324  11.404 -1.8852 -1.7120  0.5102
 1375TIP3    H225541   2.016   3.319  11.556  0.6176 -1.1450  0.5932
 1376TIP3   OH225542   4.521   4.206   5.152  0.5458  0.1376 -0.3413
 1376TIP3    H125543   4.508   4.112   5.164  0.1847  0.0675 -1.2168
 1376TIP3    H225544   4.519   4.219   5.057 -3.7755  1.6253 -0.2655
 1377TIP3   OH225545   2.750   4.550  12.239  0.3011 -0.2552 -0.6041
 1377TIP3    H125546   2.683   4.482  12.249 -0.4138  0.5623  0.3593
 1377TIP3    H225547   2.817   4.509  12.185 -0.5948 -1.3765 -0.9170
 1378TIP3   OH225548   2.672   0.285  15.346  0.3182 -0.5931 -0.3354
 1378TIP3    H125549   2.757   0.324  15.327 -0.3357  0.7609 -0.6464
 1378TIP3    H225550   2.641   0.331  15.424 -0.9151  0.2924 -1.2918
 1379TIP3   OH225551   2.248   2.958  12.007  0.4033 -0.1365  0.5817
 1379TIP3    H125552   2.329   3.010  12.005  0.6248 -0.4388 -2.2864
 1379TIP3    H225553   2.189   3.009  12.062  2.0075  0.9249  1.4165
 1380TIP3   OH225554   5.422   6.048   1.514 -0.1378  0.0135 -0.0178
 1380TIP3    H125555   5.506   6.024   1.551 -0.6014  0.3051  1.2576
 1380TIP3    H225556   5.380   5.964   1.493  0.5665 -0.1231 -0.9228
 1381TIP3   OH225557   4.721   0.425   5.264  0.0097 -0.0683  0.1769
 1381TIP3    H125558   4.715   0.387   5.176  0.3274  1.4652 -0.5451
 1381TIP3    H225559   4.815   0.440   5.277 -0.1383  0.9379  0.1996
 1382TIP3   OH225560   4.878   2.600  14.884 -0.1324 -0.3335  0.1163
 1382TIP3    H125561   4.843   2.597  14.795 -1.3758 -0.3147  0.5816
 1382TIP3    H225562   4.966   2.565  14.876 -0.1874 -0.2409 -1.1379
 1383TIP3   OH225563   6.705   5.481   5.007 -0.0579 -0.5167  0.6886
 1383TIP3    H125564   6.759   5.430   5.068  2.7998  1.4614  0.0492
 1383TIP3    H225565   6.733   5.451   4.920 -0.8947 -0.2807  0.3325
 1384TIP3   OH225566   2.938   5.845   4.440  0.0789 -0.6915 -0.8356
 1384TIP3    H125567   2.959   5.753   4.425  0.7642 -0.3630 -2.0155
 1384TIP3    H225568   2.880   5.844   4.516 -0.9823 -2.2051 -1.5978
 1385TIP3   OH225569   1.523   0.268  12.209 -0.3580 -0.7686 -0.0654
 1385TIP3    H125570   1.599   0.315  12.175 -0.2875 -0.5972  0.3254
 1385TIP3    H225571   1.467   0.255  12.132 -0.7610  0.6857 -0.0572
 1386TIP3   OH225572   3.041   1.542  14.659 -0.2063 -0.2838 -0.6236
 1386TIP3    H125573   3.089   1.622  14.682  1.0838 -1.2617  0.1774
 1386TIP3    H225574   3.061   1.480  14.729 -2.1545 -0.9583 -0.5967
 1387TIP3   OH225575   3.925   4.658   0.588  0.3812  0.0563  0.6852
 1387TIP3    H125576   3.990   4.704   0.535 -0.8802  2.0656  0.8049
 1387TIP3    H225577   3.881   4.726   0.638 -2.9945 -0.9515 -0.6588
 1388TIP3   OH225578   4.803   2.109   3.953 -0.1868  0.3416  0.1192
 1388TIP3    H125579   4.768   2.042   3.895  0.3544  1.0032 -0.9938
 1388TIP3    H225580   4.737   2.116   4.023 -1.5837  0.5548 -1.1716
 1389TIP3   OH225581   2.432   1.933  15.925 -0.4229 -0.1851  0.2343
 1389TIP3    H125582   2.441   1.839  15.940 -0.3382 -0.4127 -1.1274
 1389TIP3    H225583   2.359   1.940  15.863  0.4516  0.5402 -0.7458
 1390TIP3   OH225584   6.227   0.087  10.964  0.3459  0.1987 -0.1975
 1390TIP3    H125585   6.154   0.070  11.023  1.1792  0.0808  0.8269
 1390TIP3    H225586   6.305   0.078  11.019  1.1267  0.4947 -1.2250
 1391TIP3   OH225587   3.883   6.192   0.190  0.2930 -0.4629  0.5564
 1391TIP3    H125588   3.843   6.200   0.276 -1.4555 -0.5601 -0.2020
 1391TIP3    H225589   3.834   6.122   0.147 -0.0671  0.7672 -1.1307
 1392TIP3   OH225590   3.311   0.441   5.615 -0.4950 -0.4557  0.3830
 1392TIP3    H125591   3.323   0.389   5.695 -0.2674 -0.5516  0.2878
 1392TIP3    H225592   3.218   0.461   5.613 -0.2618  0.8771  1.5044
 1393TIP3   OH225593   5.141   0.790  14.296  0.3569 -0.0942  0.0166
 1393TIP3    H125594   5.170   0.765  14.384  1.7241  0.9403 -0.0950
 1393TIP3    H225595   5.091   0.870  14.310  0.4084 -0.0382 -0.1233
 1394TIP3   OH225596   1.345   1.628  11.817  0.2954 -0.4768  0.1914
 1394TIP3    H125597   1.371   1.643  11.908 -1.3535 -0.7066  0.7433
 1394TIP3    H225598   1.423   1.594  11.775  1.2330  0.0955  1.4066
 1395TIP3   OH225599   2.719   6.677   5.028  0.2387  0.6603 -0.1482
 1395TIP3    H125600   2.755   6.693   5.115  2.1998  0.5010 -0.8799
 1395TIP3    H225601   2.790   6.635   4.979 -1.3912 -0.9214 -1.3153
 1396TIP3   OH225602   0.863   1.288  16.820 -0.0965 -0.1631  0.2272
 1396TIP3    H125603   0.832   1.263  16.907 -2.0155 -0.3272 -0.4667
 1396TIP3    H225604   0.886   1.381  16.829 -1.7876  0.2495  0.5408
 1397TIP3   OH225605   5.141   4.934   2.550 -0.1980  0.5562  0.1847
 1397TIP3    H125606   5.221   4.984   2.532 -0.5171  0.9730 -0.0992
 1397TIP3    H225607   5.163   4.844   2.526  0.8497  0.2601  2.0070
 1398TIP3   OH225608   2.465   5.992  12.746  0.2076  0.2855  0.0345
 1398TIP3    H125609   2.436   5.916  12.694  2.1004 -1.7024  1.7043
 1398TIP3    H225610   2.526   6.038  12.689 -0.5927  0.3295 -0.8201
 1399TIP3   OH225611   5.077   1.741   2.959  0.0190  0.6580 -0.7113
 1399TIP3    H125612   5.027   1.815   2.924 -0.9759 -0.3371 -1.5112
 1399TIP3    H225613   5.158   1.741   2.908  1.2105  2.6480  1.0013
 1400TIP3   OH225614   6.677   5.381   1.685  0.1435 -0.5421 -0.0120
 1400TIP3    H125615   6.732   5.311   1.720 -0.2228 -0.6424  0.3773
 1400TIP3    H225616   6.634   5.341   1.609  1.2543 -0.1974 -0.8568
 1401TIP3   OH225617   3.736   6.713  17.222 -0.4044  0.3199 -0.0764
 1401TIP3    H125618   3.748   6.806  17.236 -0.4493 -0.0799  3.6197
 1401TIP3    H225619   3.822   6.674  17.240 -0.9495 -0.5086  0.8401
 1402TIP3   OH225620   2.407   3.080  14.810  0.3125  0.2201 -0.9734
 1402TIP3    H125621   2.389   3.096  14.717  0.8283 -2.9683 -1.7343
 1402TIP3    H225622   2.321   3.090  14.852 -0.0612  1.0310 -1.8709
 1403TIP3   OH225623   4.496   2.590  14.274 -0.1233 -0.2680  0.5088
 1403TIP3    H125624   4.556   2.638  14.331  1.2955  0.4860 -1.5109
 1403TIP3    H225625   4.474   2.652  14.205 -2.2142 -0.9872  0.4825
 1404TIP3   OH225626   4.487   2.822   0.094 -0.1158  0.0801 -0.1245
 1404TIP3    H125627   4.543   2.749   0.120  0.4439  0.1183 -1.1742
 1404TIP3    H225628   4.487   2.820  -0.002 -0.0066  1.5105 -0.1885
 1405TIP3   OH225629   3.880   6.340  15.982 -0.0156 -0.1250 -0.5556
 1405TIP3    H125630   3.916   6.276  15.920  0.0912  0.6584 -1.3136
 1405TIP3    H225631   3.956   6.366  16.035  0.4521  1.1068 -1.7853
 1406TIP3   OH225632   1.126   5.208  15.066 -0.5429  0.1532 -0.1185
 1406TIP3    H125633   1.072   5.158  15.005  1.6511 -2.1141 -0.3846
 1406TIP3    H225634   1.206   5.226  15.018  0.5251 -0.0971  1.4891
 1407TIP3   OH225635   6.568   0.885   6.248 -0.2930 -0.1138 -0.1597
 1407TIP3    H125636   6.611   0.842   6.322 -2.8496 -3.0466 -0.1882
 1407TIP3    H225637   6.510   0.949   6.288  0.3765  0.3002  0.1720
 1408TIP3   OH225638   4.534   3.102  11.724  0.0793 -0.3061  0.6410
 1408TIP3    H125639   4.529   3.039  11.652 -0.5520  0.7966 -0.3196
 1408TIP3    H225640   4.487   3.059  11.796  0.0242 -1.1065  0.1457
 1409TIP3   OH225641   5.091   1.349  11.683 -0.7120 -0.5186 -0.0950
 1409TIP3    H125642   5.108   1.442  11.668 -1.2357 -0.3001  0.6421
 1409TIP3    H225643   5.102   1.337  11.777  2.0443 -1.7845 -0.5009
 1410TIP3   OH225644   5.137   2.985   3.207 -0.8685 -0.4583  0.1226
 1410TIP3    H125645   5.222   3.010   3.243 -0.8379  0.3088 -0.4594
 1410TIP3    H225646   5.152   2.899   3.167 -0.1761 -0.0206 -0.5982
 1411TIP3   OH225647   6.398   2.747  14.750  0.2916 -0.5030 -0.1806
 1411TIP3    H125648   6.447   2.824  14.719  0.1135 -0.3711 -0.1331
 1411TIP3    H225649   6.356   2.712  14.672 -1.6476  0.8848  0.1762
 1412TIP3   OH225650   2.007   3.034  16.661  0.9577  0.1066  0.1966
 1412TIP3    H125651   2.099   3.023  16.686  0.6608 -0.7213  0.9793
 1412TIP3    H225652   2.003   2.998  16.572  1.5393  0.8844 -0.1622
 1413TIP3   OH225653   3.983   5.273  13.987  0.1009  0.6031 -0.3280
 1413TIP3    H125654   3.928   5.314  13.920  0.2577  0.6228 -0.4442
 1413TIP3    H225655   4.035   5.345  14.022 -1.4564  1.0262  1.2884
 1414TIP3   OH225656   5.186   2.872   0.037 -0.5203 -0.6419  1.1792
 1414TIP3    H125657   5.201   2.954   0.085 -0.3439  1.6909 -2.4928
 1414TIP3    H225658   5.274   2.844   0.010 -0.8076 -0.1216 -0.3804
 1415TIP3   OH225659   2.710   3.394   0.253 -0.2031  0.2767 -0.1647
 1415TIP3    H125660   2.745   3.432   0.173  2.0413  0.7648  0.9642
 1415TIP3    H225661   2.616   3.393   0.240 -0.0034  1.7187 -2.1874
 1416TIP3   OH225662   2.845   1.888  11.191  0.6598 -0.3875 -0.1084
 1416TIP3    H125663   2.846   1.983  11.179 -0.7896 -0.1272  1.4376
 1416TIP3    H225664   2.823   1.854  11.104 -2.4532  0.9500  0.0250
 1417TIP3   OH225665   0.102   4.748  14.267 -0.7221 -0.5483 -0.3070
 1417TIP3    H125666   0.091   4.738  14.362  0.5944  1.1783  0.0868
 1417TIP3    H225667   0.013   4.753  14.232 -1.2502  0.7591  1.1019
 1418TIP3   OH225668   6.024   1.992   1.613 -0.0656 -0.4100 -0.1395
 1418TIP3    H125669   5.949   1.972   1.557 -0.7233 -0.3392  0.7096
 1418TIP3    H225670   6.095   1.940   1.577 -0.1416  0.5694 -1.8200
 1419TIP3   OH225671   2.272   3.254  12.397  0.1791 -0.3276  0.3615
 1419TIP3    H125672   2.227   3.290  12.474 -0.4804  1.1111 -0.6385
 1419TIP3    H225673   2.364   3.250  12.423  0.2372  1.8393  0.6788
 1420TIP3   OH225674   3.198   5.480  13.099  0.2828  0.1162  0.3655
 1420TIP3    H125675   3.256   5.466  13.175 -1.2506 -3.2341  1.0939
 1420TIP3    H225676   3.199   5.397  13.052 -2.2279  0.6495 -0.8068
 1421TIP3   OH225677   3.340   5.510  13.320  0.0199 -0.0323  0.0328
 1421TIP3    H125678   3.334   5.601  13.290  1.6270  0.1811  0.2405
 1421TIP3    H225679   3.423   5.507  13.369  0.8899 -2.0249 -1.4367
 1422TIP3   OH225680   2.362   4.807   5.076  0.2499 -0.0984 -0.4607
 1422TIP3    H125681   2.356   4.802   5.171  0.7028 -1.8804 -0.4832
 1422TIP3    H225682   2.454   4.823   5.057  0.6712 -2.2760 -0.5851
 1423TIP3   OH225683   6.181   2.058  17.224 -0.4744  0.5316  0.6583
 1423TIP3    H125684   6.171   2.015  17.140 -0.0176 -1.6578  1.6536
 1423TIP3    H225685   6.149   2.147  17.210 -1.4446 -0.1084 -1.5110
 1424TIP3   OH225686   3.028   1.124  12.284  0.3039 -0.0102 -0.1628
 1424TIP3    H125687   3.028   1.031  12.265 -0.2410  0.2658 -1.6738
 1424TIP3    H225688   3.053   1.166  12.202 -1.7375  1.2559 -0.2358
 1425TIP3   OH225689   3.611   0.261  14.622 -0.2293  0.3156 -0.0391
 1425TIP3    H125690   3.662   0.185  14.592 -0.8006  0.1223 -0.5180
 1425TIP3    H225691   3.673   0.311  14.676 -0.7035 -2.2030  3.1434
 1426TIP3   OH225692   4.825   1.131  16.982 -0.0233  0.0417 -1.1667
 1426TIP3    H125693   4.866   1.065  17.037 -0.9272 -0.2148 -0.7798
 1426TIP3    H225694   4.796   1.199  17.042 -1.3450 -0.4108 -1.2443
 1427TIP3   OH225695   6.155   6.702  17.221  0.2045 -0.2137  0.3916
 1427TIP3    H125696   6.112   6.665  17.299  0.9988 -1.6535  0.1929
 1427TIP3    H225697   6.248   6.694  17.240  0.4017  0.0392 -0.4451
 1428TIP3   OH225698   5.532   4.360   6.024  0.1783  0.7059 -0.0111
 1428TIP3    H125699   5.531   4.454   6.039 -0.4199  0.7832 -0.5118
 1428TIP3    H225700   5.609   4.329   6.072 -0.2881  1.2789  1.1488
 1429TIP3   OH225701   6.324   0.456  13.289 -0.5943  0.4166  0.2980
 1429TIP3    H125702   6.344   0.542  13.324  1.1329  0.1124  0.1750
 1429TIP3    H225703   6.289   0.473  13.201  0.3593  0.9876  0.0108
 1430TIP3   OH225704   4.230   1.491   2.184  0.2528 -0.7597  0.2826
 1430TIP3    H125705   4.275   1.476   2.102  1.7796  0.2518  0.8917
 1430TIP3    H225706   4.245   1.584   2.203 -2.9953 -0.0461  0.0194
 1431TIP3   OH225707   1.737   2.371   6.091  0.0944 -0.6007  0.2286
 1431TIP3    H125708   1.720   2.411   6.176 -1.0144 -2.8902  1.1713
 1431TIP3    H225709   1.817   2.321   6.103 -0.1492 -1.0566 -0.0037
 1432TIP3   OH225710   0.236   4.226  17.296  0.6179 -0.0343  0.0181
 1432TIP3    H125711   0.285   4.144  17.300 -0.6386 -0.8007  0.1195
 1432TIP3    H225712   0.297   4.292  17.329  0.8258 -1.3351  2.4840
 1433TIP3   OH225713   0.226   5.715   3.511 -0.1327 -0.1173 -0.0969
 1433TIP3    H125714   0.205   5.806   3.489 -1.3426 -0.6750 -1.4138
 1433TIP3    H225715   0.198   5.706   3.602  1.0874  1.1241  0.4412
 1434TIP3   OH225716   1.021   5.306  15.285  0.1673  0.4124 -0.4188
 1434TIP3    H125717   1.091   5.345  15.337 -1.0303  1.9833  0.1044
 1434TIP3    H225718   1.066   5.252  15.220  1.7524 -1.4092  1.9988
 1435TIP3   OH225719   1.454   6.460   0.948 -0.0489  0.5093 -0.0438
 1435TIP3    H125720   1.369   6.419   0.966  0.4314 -1.0264 -1.0828
 1435TIP3    H225721   1.437   6.517   0.872  0.0971 -0.8498 -1.1415
 1436TIP3   OH225722   3.742   3.818   0.721  0.9651 -0.5726 -0.1445
 1436TIP3    H125723   3.812   3.756   0.703  0.9529 -0.3982 -0.8343
 1436TIP3    H225724   3.682   3.809   0.646 -0.2904 -1.4570  0.9091
 1437TIP3   OH225725   3.662   2.530   2.048  0.4303 -0.4664  0.3836
 1437TIP3    H125726   3.609   2.568   2.118  0.8658 -1.4537  1.2818
 1437TIP3    H225727   3.604   2.529   1.972 -1.2589 -2.4728  1.5913
 1438TIP3   OH225728   6.328   5.635  16.841 -0.0576  0.3504  0.4630
 1438TIP3    H125729   6.413   5.591  16.846  0.7030  1.9010  2.1592
 1438TIP3    H225730   6.287   5.618  16.926  0.3617  2.9910  1.2895
 1439TIP3   OH225731   3.289   4.223   2.968 -0.1597 -0.5503 -0.1015
 1439TIP3    H125732   3.275   4.313   2.939  1.1528 -0.0882  0.5895
 1439TIP3    H225733   3.202   4.184   2.971 -0.7893  0.8192 -0.0351
 1440TIP3   OH225734   5.575   1.533  14.683  0.1479  0.6089 -0.8686
 1440TIP3    H125735   5.658   1.498  14.715 -1.1644 -1.1544  0.9080
 1440TIP3    H225736   5.567   1.497  14.594  0.6489 -0.4387 -0.5156
 1441TIP3   OH225737   4.808   6.214   5.813  0.1111 -0.2884 -0.0936
 1441TIP3    H125738   4.758   6.132   5.815  0.7085 -0.7014 -0.9648
 1441TIP3    H225739   4.896   6.188   5.838  0.3055  0.0860 -0.3843
 1442TIP3   OH225740   1.879   4.237   1.644  0.3789  0.0412 -0.0830
 1442TIP3    H125741   1.851   4.327   1.629  0.5581  0.1017 -0.0560
 1442TIP3    H225742   1.945   4.243   1.713  0.6753 -0.0644 -0.3525
 1443TIP3   OH225743   0.150   4.628   4.343  0.2145 -0.1625 -0.3940
 1443TIP3    H125744   0.237   4.599   4.316  0.6456  0.5568  0.1728
 1443TIP3    H225745   0.147   4.612   4.437 -0.0342  0.3676 -0.3049
 1444TIP3   OH225746   5.455   1.576  17.336  0.1472  0.1637  0.0409
 1444TIP3    H125747   5.545   1.558  17.364 -0.0694 -0.5227  0.3231
 1444TIP3    H225748   5.460   1.581  17.240  0.6480  1.0929  0.1109
 1445TIP3   OH225749   4.482   0.151  12.704  0.1685  0.3378 -0.3525
 1445TIP3    H125750   4.398   0.196  12.716  0.5967  1.0603  0.0496
 1445TIP3    H225751   4.527   0.162  12.788  0.4948 -0.4133 -0.4222
 1446TIP3   OH225752   1.887   0.433   1.236  0.2203 -0.0335 -0.4832
 1446TIP3    H125753   1.918   0.424   1.326 -0.6721  0.6746 -0.0850
 1446TIP3    H225754   1.861   0.345   1.210 -1.6564  0.0767  0.7902
 1447TIP3   OH225755   5.028   4.528   2.764  0.2761  0.1322  0.6933
 1447TIP3    H125756   5.028   4.432   2.757  3.7946  0.0415 -0.0472
 1447TIP3    H225757   5.033   4.544   2.858  0.6811 -0.4694  0.7828
 1448TIP3   OH225758   1.558   2.094   3.800 -0.0107  0.1583  0.1217
 1448TIP3    H125759   1.497   2.028   3.768 -1.4678  1.9502 -0.9323
 1448TIP3    H225760   1.585   2.061   3.886 -1.8607 -1.0520  0.2977
 1449TIP3   OH225761   1.478   4.455   6.029 -0.7753 -0.0454  0.2901
 1449TIP3    H125762   1.467   4.450   6.124  4.5938 -1.0244  1.1932
 1449TIP3    H225763   1.470   4.548   6.009 -0.0125  0.4529  2.1139
 1450TIP3   OH225764   1.877   3.328   6.125 -0.0645 -0.8560 -0.1944
 1450TIP3    H125765   1.914   3.239   6.122  1.0958 -0.4077  0.1442
 1450TIP3    H225766   1.858   3.343   6.218  1.6362 -0.0364  0.0608
 1451TIP3   OH225767   3.745   3.154   1.180 -0.3296 -0.1146  0.5544
 1451TIP3    H125768   3.690   3.080   1.209  0.0007 -0.1131  1.2203
 1451TIP3    H225769   3.788   3.183   1.260  1.1107 -0.5036 -0.0492
 1452TIP3   OH225770   3.665   0.295  16.820 -0.1238  0.1579  0.1865
 1452TIP3    H125771   3.589   0.240  16.800 -0.4903  0.4610  0.7072
 1452TIP3    H225772   3.729   0.234  16.857 -0.8359  0.1870  1.5383
 1453TIP3   OH225773   2.311   1.637  12.941 -0.1088  0.3089 -0.2001
 1453TIP3    H125774   2.306   1.621  13.035 -0.1704 -0.0436 -0.2639
 1453TIP3    H225775   2.300   1.551  12.901 -2.0881  0.7006 -0.5954
 1454TIP3   OH225776   1.494   0.002  14.260  0.0921 -0.1545  0.2200
 1454TIP3    H125777   1.544  -0.072  14.295  2.1387  0.7847 -0.5901
 1454TIP3    H225778   1.545   0.079  14.286  0.4511  0.7146 -2.7390
 1455TIP3   OH225779   5.181   6.500  12.540  0.4331 -0.1159  0.2079
 1455TIP3    H125780   5.145   6.521  12.626 -0.0580 -0.3848  0.0702
 1455TIP3    H225781   5.271   6.534  12.543  0.2758  0.2770  0.6661
 1456TIP3   OH225782   2.185   6.725  12.316 -0.2788 -0.3722 -0.1110
 1456TIP3    H125783   2.166   6.657  12.251  0.3139  0.3190 -1.0273
 1456TIP3    H225784   2.105   6.732  12.367 -0.6643 -1.1292 -0.5904
 1457TIP3   OH225785   6.396   0.894   5.774  0.1662 -0.3510  0.6346
 1457TIP3    H125786   6.444   0.850   5.844 -1.1582 -0.6637  1.3879
 1457TIP3    H225787   6.334   0.951   5.820 -0.9333 -0.7889 -0.2601
 1458TIP3   OH225788   4.085   1.979  15.020 -0.3284  0.1735  0.1549
 1458TIP3    H125789   4.153   2.032  15.061  0.8055 -0.3240 -1.0059
 1458TIP3    H225790   4.046   1.929  15.091 -0.2866  1.3123  1.0120
 1459TIP3   OH225791   4.152   5.600  12.422  0.0318 -0.2595 -0.2569
 1459TIP3    H125792   4.121   5.561  12.341 -0.0317  0.6252 -0.6652
 1459TIP3    H225793   4.245   5.575  12.427  0.2491  0.3741 -1.0234
 1460TIP3   OH225794   6.030   1.943  15.591  0.5706 -0.6261  0.0916
 1460TIP3    H125795   5.993   2.030  15.605 -0.1434 -0.9099  0.0078
 1460TIP3    H225796   6.108   1.941  15.646  1.0803  0.3714 -0.5514
 1461TIP3   OH225797   2.925   0.876   4.670  0.0637  0.0974 -0.1299
 1461TIP3    H125798   2.919   0.873   4.574  0.2841 -0.2910 -0.1361
 1461TIP3    H225799   2.849   0.927   4.697 -0.2001 -0.0978 -0.4930
 1462TIP3   OH225800   0.093   4.848   5.066 -0.4447 -0.2698  0.5219
 1462TIP3    H125801   0.036   4.771   5.066 -0.5641 -0.1895  1.1198
 1462TIP3    H225802   0.171   4.820   5.018 -1.3533 -0.0980 -1.0960
 1463TIP3   OH225803   0.204   5.621   0.888  0.1923 -0.5776  0.0400
 1463TIP3    H125804   0.165   5.535   0.904  1.5978 -1.0334  1.2345
 1463TIP3    H225805   0.195   5.633   0.794 -0.6408 -1.7199 -0.0621
 1464TIP3   OH225806   6.718   3.510   1.144 -0.0079  1.5179  0.4135
 1464TIP3    H125807   6.707   3.486   1.236  0.8255  0.6392  0.2880
 1464TIP3    H225808   6.675   3.440   1.096  0.4465  1.4539  0.1018
 1465TIP3   OH225809   0.692   2.882  11.619  0.5110  0.4180 -0.1395
 1465TIP3    H125810   0.613   2.830  11.605  0.3611  0.5943  0.0544
 1465TIP3    H225811   0.763   2.819  11.612  0.3837  0.3394 -0.7860
 1466TIP3   OH225812   1.187   0.082   0.675 -0.5801  0.4124 -0.2260
 1466TIP3    H125813   1.122   0.018   0.648 -0.7039  0.9759 -1.3136
 1466TIP3    H225814   1.234   0.105   0.594  0.8672  0.1324  0.5060
 1467TIP3   OH225815   0.574   5.383   5.561 -0.3378  0.2959  0.5823
 1467TIP3    H125816   0.482   5.376   5.537  0.2384  1.1323 -2.3005
 1467TIP3    H225817   0.600   5.471   5.532  1.5288 -0.1745  0.6750
 1468TIP3   OH225818   5.531   3.000   5.350  0.1333  0.5342 -0.2073
 1468TIP3    H125819   5.570   2.955   5.275 -0.5840 -0.5471  0.0507
 1468TIP3    H225820   5.569   2.955   5.426 -0.1857  0.7230  0.0633
 1469TIP3   OH225821   3.445   6.512  13.904  0.1595 -0.5798 -0.0260
 1469TIP3    H125822   3.497   6.446  13.858 -1.1830 -0.4340 -1.8842
 1469TIP3    H225823   3.486   6.520  13.990  1.4143 -2.5467 -0.3833
 1470TIP3   OH225824   1.387   3.461  12.432  0.5146 -0.1598  0.2768
 1470TIP3    H125825   1.316   3.503  12.384 -1.6744 -1.2169  2.3853
 1470TIP3    H225826   1.409   3.383  12.380  1.3704  1.0422 -1.2448
 1471TIP3   OH225827   3.258   4.525  15.229  0.0952  0.2495 -0.4031
 1471TIP3    H125828   3.169   4.504  15.202  0.4856 -0.8157 -0.9191
 1471TIP3    H225829   3.298   4.564  15.151 -0.4159  2.4349  0.3412
 1472TIP3   OH225830   0.731   0.286   0.314 -0.5033 -0.4344 -0.2330
 1472TIP3    H125831   0.693   0.207   0.276 -0.5989 -0.4962 -0.0165
 1472TIP3    H225832   0.796   0.315   0.251 -1.4689  0.1270 -1.0037
 1473TIP3   OH225833   2.348   1.306   5.718 -0.1740  0.4198 -0.1250
 1473TIP3    H125834   2.405   1.285   5.792 -0.4450  1.3772  0.3726
 1473TIP3    H225835   2.328   1.221   5.679  0.1033 -0.0932  0.8039
 1474TIP3   OH225836   2.478   5.709   2.199  0.2180  0.3820 -0.8513
 1474TIP3    H125837   2.412   5.744   2.260  0.4675  2.6659 -1.7748
 1474TIP3    H225838   2.550   5.680   2.254 -0.8249 -0.5124  0.0790
 1475TIP3   OH225839   4.664   1.358  15.217 -0.2852 -0.5232 -0.4402
 1475TIP3    H125840   4.624   1.432  15.263 -1.2672 -1.1419 -0.2621
 1475TIP3    H225841   4.697   1.301  15.287  0.4880 -0.2508 -0.5764
 1476TIP3   OH225842   0.195   2.616  17.017  0.1681  0.1069 -0.1364
 1476TIP3    H125843   0.258   2.622  16.946 -0.9537 -1.1812 -1.3261
 1476TIP3    H225844   0.245   2.582  17.092  1.1909  0.6976 -0.5389
 1477TIP3   OH225845   6.106   3.948  15.394 -0.4985 -0.2034 -0.1234
 1477TIP3    H125846   6.182   4.005  15.378 -0.6537  1.0610  3.0496
 1477TIP3    H225847   6.030   4.003  15.374 -0.6193  0.3943  1.7826
 1478TIP3   OH225848   6.061   5.619   2.593  0.1655  0.8626  0.0385
 1478TIP3    H125849   6.107   5.560   2.534 -0.2197 -0.4750  1.0333
 1478TIP3    H225850   5.989   5.654   2.540  0.6931  0.8470 -0.7066
 1479TIP3   OH225851   0.197   6.249  11.625  0.0435  0.4397 -0.0586
 1479TIP3    H125852   0.130   6.182  11.637  0.8514 -0.2100  1.0713
 1479TIP3    H225853   0.279   6.200  11.619  0.5153  1.2594 -0.6216
 1480TIP3   OH225854   0.641   1.371   5.604  0.1685 -0.4061  0.3720
 1480TIP3    H125855   0.616   1.416   5.685  0.2186  1.5709 -0.6423
 1480TIP3    H225856   0.658   1.280   5.630 -2.5621 -0.5296  2.0946
 1481TIP3   OH225857   6.247   1.383  17.093  0.8581  0.2751 -0.4557
 1481TIP3    H125858   6.313   1.375  17.024 -0.7150 -1.1798 -1.8812
 1481TIP3    H225859   6.288   1.344  17.170  1.7735 -0.3474 -1.2308
 1482TIP3   OH225860   1.197   1.166  16.872 -0.1616  0.0422 -0.5633
 1482TIP3    H125861   1.146   1.134  16.798 -0.5940 -1.3247  0.2840
 1482TIP3    H225862   1.285   1.179  16.837 -0.2926 -0.8611 -1.2493
 1483TIP3   OH225863   4.246   6.457   4.026  0.2805 -0.1433 -0.6875
 1483TIP3    H125864   4.268   6.491   4.113 -2.1625 -1.4053  0.5320
 1483TIP3    H225865   4.208   6.531   3.979 -1.3937 -0.1488  0.5519
 1484TIP3   OH225866   1.298   3.033   3.124  0.0544 -0.2839 -0.0619
 1484TIP3    H125867   1.344   3.076   3.197  0.5987  2.3294 -1.8004
 1484TIP3    H225868   1.367   2.988   3.075 -0.1072 -0.9275  0.2954
 1485TIP3   OH225869   0.707   6.603   1.237  0.3731  0.1661 -0.0680
 1485TIP3    H125870   0.639   6.657   1.196 -0.7779  1.8005  3.5438
 1485TIP3    H225871   0.665   6.518   1.250 -0.6556  0.8173  1.0890
 1486TIP3   OH225872   2.321   2.613  11.000  0.0907  0.5668 -0.4380
 1486TIP3    H125873   2.329   2.691  11.054  0.5570 -0.0713  0.4572
 1486TIP3    H225874   2.410   2.598  10.966  0.5183 -0.7075  1.0888
 1487TIP3   OH225875   6.483   4.873  11.435 -0.1066 -0.3975  0.4590
 1487TIP3    H125876   6.527   4.860  11.351 -1.5266  0.2144 -0.4072
 1487TIP3    H225877   6.477   4.785  11.472  0.2066 -0.7307 -0.2573
 1488TIP3   OH225878   3.469   5.486   0.682 -0.2891 -0.0745 -0.1500
 1488TIP3    H125879   3.423   5.565   0.710 -0.4652 -0.5484  0.9519
 1488TIP3    H225880   3.413   5.449   0.613 -0.2687  0.6830 -0.5855
 1489TIP3   OH225881   6.619   6.556   1.744  0.6794  0.1942  0.1969
 1489TIP3    H125882   6.550   6.539   1.680  0.6451 -0.1047  0.3119
 1489TIP3    H225883   6.688   6.493   1.722 -0.0376 -1.1169  1.5275
 1490TIP3   OH225884   3.261   3.754   5.234  0.4707 -0.5293  0.6097
 1490TIP3    H125885   3.297   3.836   5.266  2.1973 -1.6267  1.6533
 1490TIP3    H225886   3.327   3.688   5.256 -0.0663 -1.9701 -1.6997
 1491TIP3   OH225887   4.074   2.283   4.296  0.5818 -0.0254 -0.5360
 1491TIP3    H125888   4.019   2.229   4.352 -0.1578  0.4790 -0.7566
 1491TIP3    H225889   4.036   2.370   4.302  0.9431  0.1913 -1.2355
 1492TIP3   OH225890   6.135   2.558   4.859  0.0344 -0.1033  0.5686
 1492TIP3    H125891   6.127   2.557   4.954  0.4707 -1.5711  0.6116
 1492TIP3    H225892   6.087   2.481   4.830  1.7195 -0.9085 -0.2273
 1493TIP3   OH225893   0.670   2.504  13.080  0.1230  0.5487 -0.0734
 1493TIP3    H125894   0.593   2.488  13.135 -0.5791  1.2295 -0.8329
 1493TIP3    H225895   0.634   2.518  12.992  1.2613 -1.3642 -0.9074
 1494TIP3   OH225896   0.187   5.236   0.564  0.2954  0.0961 -0.5115
 1494TIP3    H125897   0.186   5.303   0.631 -0.2608 -0.6238  0.2078
 1494TIP3    H225898   0.249   5.269   0.498  1.2494  0.5666  0.5941
 1495TIP3   OH225899   4.164   4.518   2.232  0.7676  0.0212 -0.0679
 1495TIP3    H125900   4.139   4.611   2.234 -0.1308 -0.2112 -0.4335
 1495TIP3    H225901   4.148   4.491   2.142  1.0644 -0.4873  0.0301
 1496TIP3   OH225902   5.962   1.161  15.512 -0.6237 -0.1389 -0.3540
 1496TIP3    H125903   5.933   1.086  15.460  0.4505 -0.0248 -1.1481
 1496TIP3    H225904   5.972   1.232  15.449 -1.9403  0.7899  0.4425
 1497TIP3   OH225905   0.567   3.294  15.107 -0.0836 -0.4986 -0.7428
 1497TIP3    H125906   0.619   3.374  15.104 -0.4290 -0.0709  2.0610
 1497TIP3    H225907   0.482   3.319  15.069 -0.5433  0.8152  1.0365
 1498TIP3   OH225908   6.531   4.451   5.283  0.2261 -0.1208  0.3878
 1498TIP3    H125909   6.623   4.425   5.294 -0.2681 -1.2854  2.2467
 1498TIP3    H225910   6.506   4.487   5.368 -1.4498 -1.2551  0.4255
 1499TIP3   OH225911   0.596   0.648   0.309 -0.4320 -0.3063  0.0632
 1499TIP3    H125912   0.582   0.724   0.254  0.1891 -0.1396  0.1238
 1499TIP3    H225913   0.517   0.594   0.297 -2.0786  1.5291  2.0253
 1500TIP3   OH225914   5.336   0.708   6.652  0.0854 -0.0613  0.0659
 1500TIP3    H125915   5.396   0.668   6.589 -0.6724 -0.7610 -0.2319
 1500TIP3    H225916   5.332   0.646   6.724 -1.0284 -0.5187 -0.3579
 1501TIP3   OH225917   6.617   5.682   0.454 -0.3968  0.1945 -0.7329
 1501TIP3    H125918   6.582   5.597   0.426  0.3829 -0.7386  0.9554
 1501TIP3    H225919   6.711   5.666   0.465 -0.2023  1.3595 -0.6007
 1502TIP3   OH225920   3.594   2.048   4.394 -0.0912  0.3262  0.5868
 1502TIP3    H125921   3.509   2.024   4.431  0.2339 -4.3459 -1.0134
 1502TIP3    H225922   3.657   2.010   4.456  0.6409 -0.4377 -0.5970
 1503TIP3   OH225923   5.825   4.607  12.663  0.3948 -0.0946 -0.2401
 1503TIP3    H125924   5.879   4.558  12.601  2.5531  0.2616  1.2592
 1503TIP3    H225925   5.873   4.602  12.746 -1.6422  0.7063  1.0684
 1504TIP3   OH225926   2.443   3.250  16.123 -0.1829 -0.3386  0.0305
 1504TIP3    H125927   2.386   3.235  16.199 -0.6675  0.2006 -0.2234
 1504TIP3    H225928   2.445   3.165  16.078  2.8113 -1.7245  2.4074
 1505TIP3   OH225929   2.881   3.960   2.600  0.2060  0.4893 -0.1925
 1505TIP3    H125930   2.892   3.914   2.683  0.0826 -0.7471 -0.8323
 1505TIP3    H225931   2.912   3.898   2.534 -1.1157  0.8415 -1.1963
 1506TIP3   OH225932   3.389   3.720  11.176  0.5275 -0.5696  0.0191
 1506TIP3    H125933   3.437   3.661  11.119  1.9815  0.6891 -0.1176
 1506TIP3    H225934   3.387   3.676  11.261  0.3908 -1.4101 -0.4126
 1507TIP3   OH225935   1.389   2.236  14.825  0.1415 -0.0689  0.2528
 1507TIP3    H125936   1.443   2.288  14.885  1.6389 -0.3846 -0.7591
 1507TIP3    H225937   1.346   2.172  14.881 -1.4881  1.9802  1.4892
 1508TIP3   OH225938   3.732   2.682  17.315  0.1246  0.0292 -0.1966
 1508TIP3    H125939   3.638   2.694  17.301  0.1389  1.4722  0.6522
 1508TIP3    H225940   3.772   2.710  17.232 -0.1989 -0.9536 -0.6943
 1509TIP3   OH225941   0.637   1.759  11.065 -0.3617  0.1217  0.6934
 1509TIP3    H125942   0.553   1.780  11.025 -0.6546 -0.7456  0.8252
 1509TIP3    H225943   0.694   1.737  10.992 -0.3234  0.4493  0.6232
 1510TIP3   OH225944   1.065   4.479  11.636  0.3694  0.1250  0.1222
 1510TIP3    H125945   1.057   4.521  11.551  1.1095  0.3120  0.1385
 1510TIP3    H225946   0.984   4.500  11.682  0.5465  1.1655 -0.0368
 1511TIP3   OH225947   0.949   2.940  15.194  0.4941 -0.6020 -0.1424
 1511TIP3    H125948   0.995   3.024  15.193  0.7637 -0.7038  1.8217
 1511TIP3    H225949   0.990   2.889  15.124  0.6373  0.7125 -1.0530
 1512TIP3   OH225950   5.514   6.261   5.095 -0.1304  0.2859 -0.1437
 1512TIP3    H125951   5.467   6.339   5.123  0.6919  1.1145 -1.0050
 1512TIP3    H225952   5.454   6.189   5.112 -1.3225  1.2212 -0.3114
 1513TIP3   OH225953   0.414   0.798  11.728  0.6912 -0.3241  0.6490
 1513TIP3    H125954   0.467   0.737  11.678 -1.2538 -0.6017 -1.2300
 1513TIP3    H225955   0.449   0.885  11.707  0.1485 -0.4695 -0.9299
 1514TIP3   OH225956   0.820   3.117  11.567  0.0342 -0.6502 -0.0600
 1514TIP3    H125957   0.796   3.025  11.579  0.1404 -0.6359  0.2769
 1514TIP3    H225958   0.911   3.114  11.537  0.2090 -0.6410  0.4524
 1515TIP3   OH225959   2.342   2.621  14.430 -0.6457  0.0631 -0.0066
 1515TIP3    H125960   2.358   2.602  14.522  1.1324  0.7994 -0.1293
 1515TIP3    H225961   2.359   2.715  14.421 -0.0331 -0.1361 -1.2034
 1516TIP3   OH225962   1.057   1.645   0.261  0.2467 -0.3262 -0.0077
 1516TIP3    H125963   1.135   1.595   0.283 -0.2067 -0.3743  1.6057
 1516TIP3    H225964   0.985   1.584   0.274 -0.1280 -0.0688 -0.7923
 1517TIP3   OH225965   5.626   3.297   0.267  0.3963  0.0959  0.1944
 1517TIP3    H125966   5.613   3.390   0.252 -0.1448  0.0502  0.3729
 1517TIP3    H225967   5.584   3.280   0.351  1.1933 -0.1528  0.5534
 1518TIP3   OH225968   6.719   5.152   3.018 -0.6506  0.0073  0.0226
 1518TIP3    H125969   6.783   5.223   3.011  0.5613 -0.8605  1.6143
 1518TIP3    H225970   6.755   5.095   3.086 -1.2800 -2.4805 -1.6334
 1519TIP3   OH225971   0.105   6.244  16.122  0.6941 -0.4032 -0.4037
 1519TIP3    H125972   0.143   6.161  16.095 -0.3306 -1.1684  0.3897
 1519TIP3    H225973   0.078   6.287  16.041 -1.2974 -2.1280 -0.7252
 1520TIP3   OH225974   4.976   1.331  16.851 -0.4184 -0.3246  0.1806
 1520TIP3    H125975   4.922   1.273  16.905 -0.1849 -0.6735  0.0425
 1520TIP3    H225976   5.046   1.274  16.818 -0.7864 -0.2102 -0.8236
 1521TIP3   OH225977   6.302   0.923   4.289  0.0348  0.1470  0.0852
 1521TIP3    H125978   6.228   0.906   4.231  0.3465  0.8182 -0.5171
 1521TIP3    H225979   6.375   0.875   4.249  0.2287  0.5381 -0.0373
 1522TIP3   OH225980   3.811   6.556   5.598 -0.3923 -0.3451  0.4020
 1522TIP3    H125981   3.892   6.532   5.553 -0.4352 -1.1525  0.7405
 1522TIP3    H225982   3.741   6.524   5.541 -0.4641 -0.2612  0.4422
 1523TIP3   OH225983   3.704   2.112  11.721 -0.4679 -0.6876  0.0019
 1523TIP3    H125984   3.745   2.196  11.699  0.4436 -1.3284 -0.8144
 1523TIP3    H225985   3.610   2.128  11.709 -0.5978  0.9472  2.3870
 1524TIP3   OH225986   0.470   6.432  11.947 -0.3322 -0.5013  0.0779
 1524TIP3    H125987   0.419   6.395  12.019 -2.1148  1.3452 -0.1582
 1524TIP3    H225988   0.560   6.431  11.979 -1.1026  0.6105  2.5418
 1525TIP3   OH225989   1.431   1.009  13.675  0.0791  0.2885 -0.0173
 1525TIP3    H125990   1.439   1.031  13.582 -1.7287 -0.2169 -0.3366
 1525TIP3    H225991   1.356   1.061  13.705 -1.0812 -1.5552  0.4427
 1526TIP3   OH225992   0.602   0.388   4.407 -0.1004 -0.6230  0.1297
 1526TIP3    H125993   0.573   0.441   4.482  0.8053  0.6384 -0.3637
 1526TIP3    H225994   0.618   0.301   4.444 -1.0388 -0.4124  1.0998
 1527TIP3   OH225995   4.743   3.033  13.147  0.0115 -0.2720 -0.1165
 1527TIP3    H125996   4.676   2.989  13.199  0.6038 -0.0311  0.8785
 1527TIP3    H225997   4.825   3.015  13.193  0.5338  0.0907 -0.8797
 1528TIP3   OH225998   0.079   4.109  16.655  0.3216 -0.0626  0.1471
 1528TIP3    H125999   0.052   4.054  16.729 -0.4661  0.8851  0.5870
 1528TIP3    H226000   0.154   4.158  16.687  1.5746 -1.4321 -0.5203
 1529TIP3   OH226001   6.098   0.713  13.497  0.1813  0.6077  0.2008
 1529TIP3    H126002   6.190   0.721  13.473  0.2964 -0.0905  0.3977
 1529TIP3    H226003   6.054   0.690  13.415  0.2931  0.1954  0.2528
 1530TIP3   OH226004   6.570   3.629  12.120  1.1215 -0.2672 -0.3162
 1530TIP3    H126005   6.550   3.554  12.177  2.6083 -0.4378  0.0260
 1530TIP3    H226006   6.665   3.639  12.126  1.1269  0.6989 -1.5662
 1531TIP3   OH226007   6.472   1.198   1.047 -0.1661  0.6326  0.2326
 1531TIP3    H126008   6.412   1.151   0.988  1.9950  0.0939 -1.6894
 1531TIP3    H226009   6.499   1.133   1.111  2.7507 -0.9403 -2.3673
 1532TIP3   OH226010   5.033   4.066  15.987 -0.4081 -0.0515 -0.7431
 1532TIP3    H126011   5.076   4.102  16.064  0.3237 -1.1134 -0.6204
 1532TIP3    H226012   5.079   4.107  15.913 -0.5820  0.3706 -0.6207
 1533TIP3   OH226013   6.193   5.689  14.912  0.3337  0.3107  0.0762
 1533TIP3    H126014   6.137   5.764  14.897  0.8976  1.1103  1.6908
 1533TIP3    H226015   6.240   5.677  14.830 -0.8086  0.7942 -0.6797
 1534TIP3   OH226016   5.975   4.206  14.147  0.0518  0.3486 -0.6847
 1534TIP3    H126017   5.960   4.225  14.240  0.2033 -0.6955 -0.4281
 1534TIP3    H226018   5.892   4.228  14.104  0.0034  0.9041 -0.3154
 1535TIP3   OH226019   4.620   5.822   1.482  0.6588  0.6083  0.4443
 1535TIP3    H126020   4.544   5.880   1.472  1.4713  1.5080 -0.8083
 1535TIP3    H226021   4.582   5.736   1.500 -0.6143  1.2335  0.9281
 1536TIP3   OH226022   4.487   5.160  14.337 -0.1846  0.0992 -0.8620
 1536TIP3    H126023   4.568   5.184  14.382 -1.3446  0.3506  1.2289
 1536TIP3    H226024   4.420   5.214  14.378 -1.7338 -1.5203 -1.1457
 1537TIP3   OH226025   1.832   2.212   4.423 -0.0432  0.3792 -0.4406
 1537TIP3    H126026   1.761   2.229   4.486 -0.1574  0.5626 -0.6163
 1537TIP3    H226027   1.803   2.135   4.374 -1.0067  1.5240 -1.7746
 1538TIP3   OH226028   3.252   6.156   0.973 -0.3612  0.3999 -0.0103
 1538TIP3    H126029   3.172   6.207   0.960 -1.8711 -1.8998 -0.5200
 1538TIP3    H226030   3.220   6.066   0.984  2.1711 -0.5599  0.0375
 1539TIP3   OH226031   1.664   1.729   2.149  0.1981 -0.1093 -0.1102
 1539TIP3    H126032   1.754   1.762   2.150  0.0697  0.2224  0.2167
 1539TIP3    H226033   1.632   1.743   2.237  0.4212 -1.8849  0.2925
 1540TIP3   OH226034   6.719   2.779  13.576  0.1168 -0.0156  0.1938
 1540TIP3    H126035   6.691   2.865  13.544  2.3225  0.1988 -1.3865
 1540TIP3    H226036   6.739   2.793  13.668 -0.0181  1.0393  0.0756
 1541TIP3   OH226037   5.035   5.114   2.383  0.5760 -0.1954  0.0920
 1541TIP3    H126038   5.018   5.059   2.306 -1.3745 -0.8009  0.8796
 1541TIP3    H226039   5.042   5.051   2.455  1.0698  0.4352  0.5943
 1542TIP3   OH226040   2.366   5.502   1.843  0.0269 -0.4723 -0.8468
 1542TIP3    H126041   2.308   5.528   1.914 -0.7331 -1.9741 -0.8790
 1542TIP3    H226042   2.329   5.543   1.765 -2.5194 -3.2728 -1.2969
 1543TIP3   OH226043   1.373   5.804  11.634  0.6807  0.0430  0.1860
 1543TIP3    H126044   1.302   5.740  11.636 -0.7649  1.5935  1.2808
 1543TIP3    H226045   1.449   5.757  11.671  0.3535 -1.7119 -1.2226
 1544TIP3   OH226046   4.623   4.368  14.421  0.4421 -0.6106  0.0680
 1544TIP3    H126047   4.549   4.388  14.363  0.0768 -1.0889  0.3558
 1544TIP3    H226048   4.640   4.449  14.468 -1.9496 -1.2539  2.2767
 1545TIP3   OH226049   2.882   4.095  14.850  0.2514  0.1134 -0.0750
 1545TIP3    H126050   2.931   4.020  14.817 -0.8418 -0.8489  0.4178
 1545TIP3    H226051   2.922   4.116  14.934 -0.5594 -1.1077  0.6564
 1546TIP3   OH226052   1.758   0.171   4.561  0.5839 -0.0207 -0.2039
 1546TIP3    H126053   1.676   0.217   4.582  1.8552  3.2673 -1.7059
 1546TIP3    H226054   1.793   0.145   4.646 -0.9972  0.3384  0.6083
 1547TIP3   OH226055   6.331   5.300  11.859  0.3315 -0.0746  0.7981
 1547TIP3    H126056   6.287   5.279  11.776 -0.7821  0.0468  1.3349
 1547TIP3    H226057   6.423   5.277  11.844  0.7564  2.5235 -1.4338
 1548TIP3   OH226058   0.237   4.782  15.758  0.7326 -0.2649  0.2305
 1548TIP3    H126059   0.297   4.722  15.714  1.8623 -0.2706  1.7058
 1548TIP3    H226060   0.255   4.868  15.720  2.0930 -0.1719  1.0400
 1549TIP3   OH226061   0.186   3.164   4.393  0.6197  0.4774  0.1147
 1549TIP3    H126062   0.137   3.092   4.355 -2.1525  1.6413  1.2400
 1549TIP3    H226063   0.201   3.225   4.320 -3.0799  1.8589  0.2871
 1550TIP3   OH226064   2.568   5.184  13.697 -0.2677  0.3328  0.0006
 1550TIP3    H126065   2.477   5.173  13.725 -0.3074  0.9958  0.1505
 1550TIP3    H226066   2.619   5.140  13.765 -0.4400  0.6067  0.3105
 1551TIP3   OH226067   2.078   0.544  15.623  0.0566 -0.0495  0.2370
 1551TIP3    H126068   2.136   0.468  15.626  1.0051  0.6502 -0.0362
 1551TIP3    H226069   2.107   0.599  15.696 -0.5041  0.1378  0.3212
 1552TIP3   OH226070   0.238   0.052   6.458 -0.3053 -0.5580 -0.9244
 1552TIP3    H126071   0.287   0.134   6.464 -2.4383  0.7854 -0.3638
 1552TIP3    H226072   0.280  -0.006   6.521  0.5573  0.5033 -0.4918
 1553TIP3   OH226073   1.609   5.069   2.957 -1.1092  0.0683 -0.1259
 1553TIP3    H126074   1.673   5.138   2.974 -1.3009  0.1400  0.3266
 1553TIP3    H226075   1.610   5.058   2.862  3.2013 -3.3095 -0.0513
 1554TIP3   OH226076   3.391   2.751   2.827  0.5067 -0.3666  0.1699
 1554TIP3    H126077   3.392   2.657   2.811 -0.7979 -0.4578  0.4595
 1554TIP3    H226078   3.361   2.789   2.744 -0.1292 -0.3203  0.4116
 1555TIP3   OH226079   5.754   4.165  14.930  0.0709 -0.1583 -0.3753
 1555TIP3    H126080   5.809   4.177  15.007  0.3583  1.0890 -0.7509
 1555TIP3    H226081   5.665   4.159  14.965  0.3797 -1.9332  0.2151
 1556TIP3   OH226082   4.490   4.959   5.186  0.0204 -0.2975 -0.3312
 1556TIP3    H126083   4.473   5.052   5.172  0.0565 -0.4030 -1.1336
 1556TIP3    H226084   4.423   4.931   5.248 -0.2658  0.1673 -0.4298
 1557TIP3   OH226085   5.982   3.124   5.441  0.1198 -0.4907  1.0823
 1557TIP3    H126086   5.891   3.149   5.452 -0.1630 -0.9867 -0.0286
 1557TIP3    H226087   6.012   3.103   5.530 -1.2890 -1.8256  1.2849
 1558TIP3   OH226088   5.235   3.809  12.428  0.2223  0.4097 -0.3127
 1558TIP3    H126089   5.314   3.863  12.442  0.8941 -0.3291 -1.1110
 1558TIP3    H226090   5.258   3.753  12.354 -0.6251 -0.6753  0.2233
 1559TIP3   OH226091   6.475   2.644  13.539 -0.1664  0.4864  0.4445
 1559TIP3    H126092   6.570   2.648  13.549  0.0306 -0.9333 -0.4490
 1559TIP3    H226093   6.457   2.695  13.460  0.2404 -1.5335 -1.0331
 1560TIP3   OH226094   1.067   4.174  16.174  0.5441 -0.8968 -0.4202
 1560TIP3    H126095   1.124   4.107  16.212  0.5669 -0.1350  0.9514
 1560TIP3    H226096   1.022   4.129  16.103  2.2326 -1.7465 -1.0076
 1561TIP3   OH226097   4.562   4.585   3.977 -0.5809  0.8039 -0.6504
 1561TIP3    H126098   4.523   4.546   3.899 -3.0210 -0.3682  1.0275
 1561TIP3    H226099   4.506   4.660   3.997  0.3728  1.4448 -0.3143
 1562TIP3   OH226100   1.489   2.870   5.298  0.1642  0.5645 -0.0053
 1562TIP3    H126101   1.518   2.819   5.374  1.5901 -0.0963 -0.9396
 1562TIP3    H226102   1.571   2.897   5.255 -0.5866  2.0744 -0.5796
 1563TIP3   OH226103   0.128   4.941   4.258 -0.8191  0.3620  0.7453
 1563TIP3    H126104   0.149   4.958   4.166  0.6781  2.5909  1.4088
 1563TIP3    H226105   0.131   4.846   4.266  0.5741  0.1743 -1.1854
 1564TIP3   OH226106   1.565   4.682   2.739  0.4551 -0.2988  0.0554
 1564TIP3    H126107   1.544   4.773   2.721  1.5024  0.0001  0.2957
 1564TIP3    H226108   1.654   4.684   2.775  0.6268 -1.4456 -0.2639
 1565TIP3   OH226109   5.739   3.244  16.118  0.7035 -0.6838  0.2818
 1565TIP3    H126110   5.782   3.264  16.035  1.5056  0.3760  0.9353
 1565TIP3    H226111   5.760   3.318  16.175 -1.3287 -0.4830  0.8840
 1566TIP3   OH226112   3.365   1.503  11.824 -0.6051 -0.4447  0.2528
 1566TIP3    H126113   3.397   1.584  11.784  0.8367 -1.6415 -1.1416
 1566TIP3    H226114   3.283   1.484  11.778  0.3958 -1.1377 -1.2982
 1567TIP3   OH226115   1.308   3.801  17.027  0.0325 -0.5407  0.5948
 1567TIP3    H126116   1.355   3.884  17.028 -0.3832 -0.2838 -0.3469
 1567TIP3    H226117   1.377   3.735  17.025  0.3957 -0.1582 -1.4717
 1568TIP3   OH226118   3.690   4.144   4.898  0.2992 -0.1295  0.2048
 1568TIP3    H126119   3.648   4.065   4.932  0.9129  0.3007  2.0387
 1568TIP3    H226120   3.629   4.215   4.920  0.4449  0.0899 -0.0960
 1569TIP3   OH226121   5.930   2.011  17.018  0.2383 -0.4752  0.2461
 1569TIP3    H126122   5.957   1.987  16.929 -0.4215 -0.7421  0.1191
 1569TIP3    H226123   5.901   1.930  17.058  0.5246 -0.3532  0.7099
 1570TIP3   OH226124   3.699   3.969  15.516  0.4613  0.1652  0.7988
 1570TIP3    H126125   3.744   4.009  15.589  0.8376  0.3104  0.4868
 1570TIP3    H226126   3.720   4.024  15.440  0.3180 -0.1497  0.5237
 1571TIP3   OH226127   3.144   2.539   2.882  0.2641  0.4715  0.1502
 1571TIP3    H126128   3.106   2.601   2.944 -0.4537 -0.4044  0.6063
 1571TIP3    H226129   3.093   2.459   2.894  0.8525 -0.0562 -0.7780
 1572TIP3   OH226130   6.013   5.843   4.190 -0.3750 -0.0508  0.1775
 1572TIP3    H126131   6.051   5.801   4.267 -0.4283  1.3565  1.0071
 1572TIP3    H226132   5.920   5.819   4.194 -0.7483  1.4348  1.5950
 1573TIP3   OH226133   1.584   4.645   1.740  0.3049  0.1692 -0.2756
 1573TIP3    H126134   1.643   4.594   1.685  1.0335  1.6301 -0.9048
 1573TIP3    H226135   1.567   4.725   1.690  1.8240  2.0566  1.9607
 1574TIP3   OH226136   1.946   4.876   6.164  0.3465 -0.3085  0.0400
 1574TIP3    H126137   1.864   4.861   6.118  1.1620 -2.5800 -0.7961
 1574TIP3    H226138   1.988   4.790   6.167  1.9875  0.4800  1.8504
 1575TIP3   OH226139   3.718   3.012   6.216 -0.0473 -0.0041 -0.3194
 1575TIP3    H126140   3.707   3.062   6.135 -0.3838 -1.1915 -1.0239
 1575TIP3    H226141   3.724   3.079   6.284  2.3900  1.1138 -1.5172
 1576TIP3   OH226142   5.769   5.885  14.142  0.1936  0.3394 -0.7620
 1576TIP3    H126143   5.735   5.844  14.062 -1.1675  0.0784 -0.0696
 1576TIP3    H226144   5.733   5.974  14.140  0.6972  0.5468 -0.7566
 1577TIP3   OH226145   3.950   6.683  15.084 -0.0825 -0.8273 -0.5331
 1577TIP3    H126146   4.000   6.621  15.137  1.7637  1.7037  0.9579
 1577TIP3    H226147   4.012   6.755  15.067 -2.1635  0.7733 -1.8208
 1578TIP3   OH226148   6.148   4.484   1.352  0.1469 -0.5257 -0.3020
 1578TIP3    H126149   6.162   4.487   1.446  0.9871 -1.3444 -0.3941
 1578TIP3    H226150   6.055   4.506   1.341  0.0511 -0.4012  0.7042
 1579TIP3   OH226151   0.200   4.782  13.879  0.2621 -0.3295  0.6858
 1579TIP3    H126152   0.130   4.844  13.856 -1.0264 -0.3701  3.9505
 1579TIP3    H226153   0.198   4.717  13.809 -1.6262  0.7630 -0.3604
 1580TIP3   OH226154   1.537   6.614   5.815  0.1971  0.5677 -0.3738
 1580TIP3    H126155   1.600   6.686   5.805  2.5345 -1.3190 -0.2318
 1580TIP3    H226156   1.477   6.624   5.741  0.3068  2.7665 -0.2113
 1581TIP3   OH226157   3.198   5.987  16.393  0.3416 -0.4000  0.5689
 1581TIP3    H126158   3.170   6.024  16.309 -1.2623 -1.2112  0.7054
 1581TIP3    H226159   3.211   5.894  16.375  2.6043 -0.1500  0.6398
 1582TIP3   OH226160   0.850   0.598  11.491  0.6492  0.0877 -0.0983
 1582TIP3    H126161   0.943   0.620  11.489  0.4947  0.7306 -0.8542
 1582TIP3    H226162   0.815   0.636  11.410 -0.4166  0.5025  0.5371
 1583TIP3   OH226163   4.523   0.639  11.843  0.0239 -0.0766  0.2536
 1583TIP3    H126164   4.496   0.646  11.935 -1.7577 -0.3356 -0.2145
 1583TIP3    H226165   4.534   0.545  11.828 -1.0348 -0.1476 -0.1419
 1584TIP3   OH226166   0.101   3.682   0.942 -0.9158  0.0817  0.1561
 1584TIP3    H126167   0.192   3.674   0.972 -0.5120  0.9126 -0.8108
 1584TIP3    H226168   0.054   3.617   0.994  0.6545 -2.1470 -1.0317
 1585TIP3   OH226169   1.420   0.973  14.564  0.1644 -0.2445 -1.0871
 1585TIP3    H126170   1.463   0.913  14.503  2.1808 -1.0535  0.9637
 1585TIP3    H226171   1.482   0.981  14.636 -1.1271  2.4605 -0.1743
 1586TIP3   OH226172   5.580   3.832  16.669  0.2380 -0.0642  0.1270
 1586TIP3    H126173   5.652   3.770  16.659  1.6181  1.0919  2.2021
 1586TIP3    H226174   5.581   3.855  16.762 -0.3499  2.8844 -0.5037
 1587TIP3   OH226175   1.142   0.080  12.893  0.0735 -0.2527 -0.0031
 1587TIP3    H126176   1.192   0.012  12.847  0.1292  0.9612 -1.8399
 1587TIP3    H226177   1.070   0.101  12.834 -0.4146  0.7127  0.9009
 1588TIP3   OH226178   4.316   5.097   1.409 -0.2343 -0.0421  0.1519
 1588TIP3    H126179   4.284   5.024   1.462 -2.1798  0.6099 -0.0070
 1588TIP3    H226180   4.337   5.059   1.324 -1.5433 -0.4155 -0.0337
 1589TIP3   OH226181   1.600   5.950  11.532  0.2292 -0.1034 -0.1043
 1589TIP3    H126182   1.512   5.917  11.549  0.1125  1.2506  2.2360
 1589TIP3    H226183   1.587   6.039  11.499  0.6951  0.4300  1.0870
 1590TIP3   OH226184   6.744   4.285  13.025 -0.4201 -0.4522 -0.3238
 1590TIP3    H126185   6.657   4.260  13.057 -0.0066 -0.8968  0.4887
 1590TIP3    H226186   6.781   4.338  13.096  0.3742 -1.1457 -0.2079
 1591TIP3   OH226187   1.854   2.307  14.567 -0.2251 -0.0881  0.8976
 1591TIP3    H126188   1.872   2.397  14.540 -1.5310  0.1742  0.8532
 1591TIP3    H226189   1.814   2.315  14.653 -1.2069 -0.5487  0.5034
 1592TIP3   OH226190   5.470   2.801  10.550 -0.0532 -0.0988  0.2461
 1592TIP3    H126191   5.413   2.796  10.473 -0.6408 -1.3442  0.7322
 1592TIP3    H226192   5.558   2.784  10.516 -0.3056 -0.5939 -0.1694
 1593TIP3   OH226193   4.820   3.018   6.136  0.0550 -0.2817  0.5927
 1593TIP3    H126194   4.813   2.987   6.226 -0.4560  0.4111  0.7986
 1593TIP3    H226195   4.911   3.000   6.111  0.7860  1.3511  1.9266
 1594TIP3   OH226196   4.785   3.824   5.392  0.3394 -0.5129  0.1145
 1594TIP3    H126197   4.817   3.906   5.354  0.2873 -0.3805  0.3548
 1594TIP3    H226198   4.864   3.781   5.426  0.2226 -0.0053  1.0564
 1595TIP3   OH226199   5.182   6.314   5.212  0.0267  0.7341 -0.3833
 1595TIP3    H126200   5.213   6.236   5.259 -0.9429 -0.3599 -1.4870
 1595TIP3    H226201   5.257   6.373   5.211  0.2613  0.5855  2.0096
 1596TIP3   OH226202   6.388   1.816   3.534 -0.4146  0.1150 -0.9544
 1596TIP3    H126203   6.444   1.767   3.595 -1.3586 -1.1137 -1.0492
 1596TIP3    H226204   6.303   1.821   3.578 -0.5667  0.9839 -1.3104
 1597TIP3   OH226205   4.595   6.028   4.336 -0.1045  0.3054  0.4225
 1597TIP3    H126206   4.605   6.122   4.320 -0.6631  0.3592  0.3602
 1597TIP3    H226207   4.502   6.017   4.357  0.0070 -0.1989  0.6629
 1598TIP3   OH226208   4.120   2.565  11.941 -0.5974 -0.2931  0.3747
 1598TIP3    H126209   4.145   2.652  11.910  0.2951 -1.4736 -2.5560
 1598TIP3    H226210   4.026   2.573  11.961  0.0249  1.9822  3.1175
 1599TIP3   OH226211   3.441   2.625   1.292  0.2040  0.1166  0.1215
 1599TIP3    H126212   3.452   2.662   1.204  1.1989 -1.3991 -0.4416
 1599TIP3    H226213   3.447   2.700   1.351  0.5092  1.0425 -1.0518
 1600TIP3   OH226214   3.853   5.603   5.398 -0.2562  0.1854  0.3743
 1600TIP3    H126215   3.760   5.611   5.421 -0.5760  0.0771 -0.8226
 1600TIP3    H226216   3.858   5.629   5.306  0.4049 -2.5275 -0.4678
 1601TIP3   OH226217   5.943   3.278  12.093 -0.4150 -0.3416  0.1592
 1601TIP3    H126218   6.000   3.355  12.100  0.2128 -0.6080 -1.5374
 1601TIP3    H226219   5.916   3.260  12.183  0.1356  1.3222  0.7019
 1602TIP3   OH226220   4.703   4.530   3.597  0.2134  0.0666 -0.1239
 1602TIP3    H126221   4.643   4.455   3.587 -1.0716  0.9865  0.4137
 1602TIP3    H226222   4.761   4.525   3.521 -1.3697 -0.1216 -1.3711
 1603TIP3   OH226223   1.323   1.242   6.758  0.0312 -0.3449  0.1293
 1603TIP3    H126224   1.332   1.325   6.806  1.6257 -1.5129  2.0042
 1603TIP3    H226225   1.292   1.180   6.824  1.2125 -1.7835 -0.6186
 1604TIP3   OH226226   1.210   3.058  17.085 -0.8408  0.1372  0.1037
 1604TIP3    H126227   1.121   3.088  17.102 -0.7491 -0.1678  1.2058
 1604TIP3    H226228   1.262   3.094  17.156 -0.2954 -0.6348  0.1133
 1605TIP3   OH226229   3.945   2.520   4.299  0.4426 -0.1378 -0.5957
 1605TIP3    H126230   3.869   2.527   4.358  1.0342  0.8771  0.0858
 1605TIP3    H226231   3.989   2.605   4.307  0.6653 -0.0537 -2.3663
 1606TIP3   OH226232   3.160   4.879   3.694  0.3682 -0.4198  0.5821
 1606TIP3    H126233   3.197   4.832   3.768  1.4540  0.5046  0.6564
 1606TIP3    H226234   3.122   4.958   3.733  3.4284  1.5354 -0.0256
 1607TIP3   OH226235   3.661   6.707  16.974  0.9003  0.2815  0.6822
 1607TIP3    H126236   3.572   6.671  16.978  0.5410  1.0913  0.1852
 1607TIP3    H226237   3.693   6.702  17.064  1.6523 -3.1441  0.3563
 1608TIP3   OH226238   4.409   1.858   2.484  0.0222  0.0514 -0.0318
 1608TIP3    H126239   4.397   1.834   2.392  0.1194 -1.1145  0.2522
 1608TIP3    H226240   4.360   1.939   2.494  1.1968  1.0081 -1.4761
 1609TIP3   OH226241   6.544   6.087  15.220 -0.1652 -0.8673  0.7518
 1609TIP3    H126242   6.518   5.996  15.213  1.2901 -1.2337 -0.5568
 1609TIP3    H226243   6.618   6.086  15.280  0.1426 -0.6370  0.3867
 1610TIP3   OH226244   2.705   6.028  16.819  0.5040  0.1165  0.5802
 1610TIP3    H126245   2.746   6.105  16.780  0.2823  0.0935  0.2942
 1610TIP3    H226246   2.614   6.053  16.833 -0.3187 -0.9636 -2.1153
 1611TIP3   OH226247   4.574   0.152   4.665 -0.3992  0.8627  0.5365
 1611TIP3    H126248   4.622   0.121   4.589 -1.8064  0.3635 -0.1685
 1611TIP3    H226249   4.568   0.247   4.652 -4.2911  0.4603 -2.3033
 1612TIP3   OH226250   5.576   3.634  17.426  0.7060  0.1194 -0.1718
 1612TIP3    H126251   5.521   3.700  17.469 -2.3832 -2.2029 -0.1797
 1612TIP3    H226252   5.556   3.644  17.333 -0.0213 -0.9405 -0.1507
 1613TIP3   OH226253   1.549   6.578  15.972 -0.4394 -0.1892  0.5680
 1613TIP3    H126254   1.643   6.558  15.971 -0.2857  0.3605 -1.9233
 1613TIP3    H226255   1.538   6.632  16.051  1.7798  1.5448 -0.1871
 1614TIP3   OH226256   5.263   3.261  13.372  0.2588  0.4975 -0.1202
 1614TIP3    H126257   5.229   3.350  13.380  0.8489  0.5862  1.9777
 1614TIP3    H226258   5.187   3.208  13.348 -0.0950  1.5421 -1.3805
 1615TIP3   OH226259   3.859   2.920   5.813 -0.1793 -0.1599 -0.2776
 1615TIP3    H126260   3.876   2.988   5.879 -0.8287  1.2382 -1.4796
 1615TIP3    H226261   3.817   2.967   5.741  1.0397 -1.4988 -1.9577
 1616TIP3   OH226262   4.425   0.967  12.102  0.1383  0.4103 -0.0392
 1616TIP3    H126263   4.479   0.889  12.109  2.5449  1.8874 -0.7584
 1616TIP3    H226264   4.361   0.947  12.034 -0.8012 -1.6633  1.3632
 1617TIP3   OH226265   4.727   3.833   2.437 -0.0244 -0.3162  0.5010
 1617TIP3    H126266   4.641   3.875   2.429  1.0221  1.5487 -3.4773
 1617TIP3    H226267   4.788   3.904   2.456  1.2945 -0.4184 -2.6517
 1618TIP3   OH226268   1.805   2.799   3.445  0.1952 -0.1850  0.0698
 1618TIP3    H126269   1.845   2.886   3.437  2.2666 -0.7482  2.9095
 1618TIP3    H226270   1.821   2.773   3.535 -0.0509 -3.6989 -0.7504
 1619TIP3   OH226271   3.824   4.605  16.385 -0.1122  0.1412  0.1134
 1619TIP3    H126272   3.912   4.605  16.347  0.5101 -1.1146  1.4298
 1619TIP3    H226273   3.814   4.693  16.422  0.9202  0.0796  0.5982
 1620TIP3   OH226274   3.545   6.351  17.435 -0.4576  0.3762 -0.2065
 1620TIP3    H126275   3.630   6.312  17.414 -0.9218 -0.2603 -0.9542
 1620TIP3    H226276   3.482   6.280  17.424 -1.1395  0.9509 -0.0971
 1621TIP3   OH226277   5.615   1.996   1.002 -0.7464 -0.1000 -0.3528
 1621TIP3    H126278   5.607   2.091   0.995 -1.1154 -0.1342 -0.4244
 1621TIP3    H226279   5.539   1.969   1.054 -2.3996 -0.6755 -2.8819
 1622TIP3   OH226280   3.878   6.698   5.280 -0.0249 -0.2981 -0.0267
 1622TIP3    H126281   3.844   6.734   5.198 -2.5345  0.8491  1.4117
 1622TIP3    H226282   3.812   6.719   5.345  1.3724 -2.1188  2.1392
 1623TIP3   OH226283   2.333   5.497   3.796  0.1809 -0.2296 -0.0571
 1623TIP3    H126284   2.317   5.408   3.763  0.4874 -0.5236  0.5789
 1623TIP3    H226285   2.426   5.512   3.778  0.4454 -0.5377  1.0009
 1624TIP3   OH226286   4.569   6.023   2.367  0.3028  0.1661  0.1561
 1624TIP3    H126287   4.537   6.088   2.430  0.1563 -0.1479  0.4078
 1624TIP3    H226288   4.645   5.983   2.410  0.2897  0.0493  0.0705
 1625TIP3   OH226289   5.639   3.843   0.282  0.1309 -0.5179 -0.1269
 1625TIP3    H126290   5.548   3.868   0.265 -0.8773 -3.0731  0.9753
 1625TIP3    H226291   5.655   3.874   0.371  1.1407  1.7860 -1.0305
 1626TIP3   OH226292   2.576   5.773  13.192 -0.0918 -0.3339  0.3495
 1626TIP3    H126293   2.497   5.774  13.139 -0.9414  2.2745  1.5040
 1626TIP3    H226294   2.644   5.806  13.134  0.1631 -2.2728 -0.5468
 1627TIP3   OH226295   4.996   4.663  14.034 -0.1134  0.0210 -0.2699
 1627TIP3    H126296   5.057   4.700  14.098  0.3651  0.3695 -0.9189
 1627TIP3    H226297   5.031   4.576  14.015 -1.5698 -1.0790  1.7105
 1628TIP3   OH226298   4.669   6.021  14.757  0.2270 -0.1770 -0.3825
 1628TIP3    H126299   4.684   5.929  14.779 -0.9516 -0.4730 -0.7433
 1628TIP3    H226300   4.587   6.021  14.709  1.5918  0.7342 -2.8685
 1629TIP3   OH226301   2.986   2.731  11.536 -0.5141  0.1042  0.1737
 1629TIP3    H126302   2.975   2.727  11.631  2.0295  0.8156  0.5683
 1629TIP3    H226303   3.069   2.775  11.523 -0.0208 -1.3523 -2.3628
 1630TIP3   OH226304   4.534   0.271   0.613  0.1389 -0.0009 -0.0015
 1630TIP3    H126305   4.443   0.263   0.642  0.5101 -0.3039  1.1016
 1630TIP3    H226306   4.577   0.322   0.681  0.7664  0.2780 -0.5988
 1631TIP3   OH226307   3.807   4.177   1.682 -0.6457  0.6543  0.1416
 1631TIP3    H126308   3.799   4.240   1.612 -0.9599  1.9423  1.2991
 1631TIP3    H226309   3.809   4.229   1.762  0.2224 -0.7247  1.0793
 1632TIP3   OH226310   6.094   1.803  12.695 -0.7346  0.1444  0.8935
 1632TIP3    H126311   6.048   1.794  12.611  1.3448 -2.6443 -0.1343
 1632TIP3    H226312   6.160   1.870  12.678  0.2134 -0.9822 -0.0383
 1633TIP3   OH226313   4.411   1.932   4.274 -0.5516  0.1165  0.2307
 1633TIP3    H126314   4.351   1.866   4.309  0.3607 -0.3944  0.8804
 1633TIP3    H226315   4.355   2.006   4.251 -1.5774 -0.8442 -0.4271
 1634TIP3   OH226316   4.743   5.581  13.426  0.7422 -0.6431  0.0306
 1634TIP3    H126317   4.754   5.517  13.356  1.3929 -1.0783  0.5186
 1634TIP3    H226318   4.822   5.634  13.423  0.4094 -0.1515 -0.0783
 1635TIP3   OH226319   2.685   3.994  16.493 -0.5543 -0.1055  0.0838
 1635TIP3    H126320   2.777   4.019  16.500 -0.3103 -0.6582 -0.9816
 1635TIP3    H226321   2.677   3.918  16.551 -0.6793  0.7423  1.2317
 1636TIP3   OH226322   0.349   5.510   0.585 -0.1303 -0.3042  0.5203
 1636TIP3    H126323   0.333   5.480   0.496  0.7867 -0.7742  0.5021
 1636TIP3    H226324   0.444   5.520   0.591 -0.2081  0.0855  1.3301
 1637TIP3   OH226325   4.859   6.624  16.627 -0.1920  0.3955 -0.5785
 1637TIP3    H126326   4.886   6.637  16.718 -0.0832 -0.1240 -0.5283
 1637TIP3    H226327   4.764   6.629  16.628 -0.1982  0.2359 -0.4071
 1638TIP3   OH226328   5.941   6.127   5.338  0.1166 -0.4729 -0.3140
 1638TIP3    H126329   6.011   6.086   5.389  0.2777  0.3470  0.1430
 1638TIP3    H226330   5.870   6.063   5.339 -0.1204 -0.2302  1.5040
 1639TIP3   OH226331   4.568   4.861  11.420  0.5863  0.3911  0.3218
 1639TIP3    H126332   4.631   4.834  11.353 -0.1735 -1.2739  0.2295
 1639TIP3    H226333   4.499   4.795  11.417 -1.0612  2.0180  0.6069
 1640TIP3   OH226334   0.649   5.644   2.085  0.2539 -0.0102  0.0893
 1640TIP3    H126335   0.585   5.685   2.027 -0.3607 -0.9226  0.1072
 1640TIP3    H226336   0.659   5.555   2.051  1.1843 -0.0256  0.3570
 1641TIP3   OH226337   3.695   0.709  14.388  0.4660 -0.7125 -0.1169
 1641TIP3    H126338   3.620   0.768  14.377  1.3163  0.2023 -1.2224
 1641TIP3    H226339   3.727   0.727  14.476  0.9378  0.7829 -0.5700
 1642TIP3   OH226340   4.311   0.773  12.605 -0.1540  0.1897 -0.2480
 1642TIP3    H126341   4.289   0.864  12.586  3.2461  1.0604 -0.6913
 1642TIP3    H226342   4.287   0.726  12.526 -2.0747  0.6245  0.0320
 1643TIP3   OH226343   4.877   4.282  12.804 -0.4773 -0.2703  0.1956
 1643TIP3    H126344   4.796   4.249  12.842 -0.6975  0.2047  0.1515
 1643TIP3    H226345   4.850   4.321  12.721 -0.3427  0.6348  0.5593
 1644TIP3   OH226346   0.476   0.417   3.173  0.3508  0.4079 -0.9270
 1644TIP3    H126347   0.571   0.406   3.172  0.2692 -0.3215 -1.4361
 1644TIP3    H226348   0.453   0.417   3.266  0.7994  0.1466 -0.8138
 1645TIP3   OH226349   3.531   1.931  12.410 -0.3889  0.3151  0.4454
 1645TIP3    H126350   3.541   1.841  12.380  0.5170  0.3962  0.4674
 1645TIP3    H226351   3.584   1.983  12.350 -2.0090  1.0264 -0.4181
 1646TIP3   OH226352   1.799   5.952  12.246  0.1119  0.1717  0.8624
 1646TIP3    H126353   1.741   6.005  12.191 -0.2191  0.5331  1.5592
 1646TIP3    H226354   1.784   5.862  12.217  0.2162  0.3875  0.1035
 1647TIP3   OH226355   2.360   5.982   3.555 -0.4796 -0.2235 -0.2125
 1647TIP3    H126356   2.300   5.908   3.561 -1.6284  0.7325  0.7124
 1647TIP3    H226357   2.382   5.987   3.462 -0.6019 -1.5391 -0.3284
 1648TIP3   OH226358   4.686   4.790  13.284 -0.0446  0.1010  0.4335
 1648TIP3    H126359   4.741   4.768  13.208 -0.0438  0.3788  0.3511
 1648TIP3    H226360   4.650   4.706  13.312  0.8832 -0.1751  0.8500
 1649TIP3   OH226361   5.250   3.526  17.130  0.3145  0.0497  0.0040
 1649TIP3    H126362   5.189   3.552  17.061 -0.4128 -0.1815  0.5544
 1649TIP3    H226363   5.255   3.431  17.124 -0.3916 -0.0439  0.7987
 1650TIP3   OH226364   5.326   5.313   4.948 -0.2529  0.5905  0.4567
 1650TIP3    H126365   5.261   5.352   5.007  1.7980  1.1426  2.4763
 1650TIP3    H226366   5.375   5.388   4.914 -0.4529  0.1544 -0.8558
 1651TIP3   OH226367   5.765   3.227  17.394  0.1010 -0.1721 -0.3554
 1651TIP3    H126368   5.707   3.181  17.454 -1.4314  0.2102 -1.4596
 1651TIP3    H226369   5.853   3.204  17.423 -0.5906 -1.2492  1.0381
 1652TIP3   OH226370   0.402   1.181  17.215 -0.0041 -0.7427  0.2580
 1652TIP3    H126371   0.483   1.206  17.171 -0.4160 -1.3755 -0.8932
 1652TIP3    H226372   0.366   1.263  17.248 -0.0178 -0.1477 -1.1683
 1653TIP3   OH226373   5.353   0.511   6.833 -0.0767 -0.0444 -0.1373
 1653TIP3    H126374   5.297   0.440   6.865 -0.4719  1.5553  3.2023
 1653TIP3    H226375   5.438   0.470   6.819 -0.1320 -1.1999  2.2945
 1654TIP3   OH226376   2.354   5.359  13.227  0.2831 -0.4098  0.2748
 1654TIP3    H126377   2.282   5.295  13.228 -0.7074  0.6026 -1.5926
 1654TIP3    H226378   2.431   5.308  13.252 -0.2457 -2.6918 -2.3071
 1655TIP3   OH226379   4.274   6.597  15.030 -0.4681  0.1154  0.3765
 1655TIP3    H126380   4.325   6.646  15.095 -0.1476  0.8686 -0.4162
 1655TIP3    H226381   4.309   6.508  15.035 -0.0657  0.2906  0.8439
 1656TIP3   OH226382   2.256   2.691   0.108  0.0051  0.0925  0.1866
 1656TIP3    H126383   2.303   2.762   0.065  0.2095  0.4866  1.0419
 1656TIP3    H226384   2.278   2.613   0.057 -1.0369  0.7815 -1.3782
 1657TIP3   OH226385   1.289   1.572   0.980  0.1578 -0.0352 -0.0590
 1657TIP3    H126386   1.357   1.597   1.043 -0.2521  2.5260 -0.5141
 1657TIP3    H226387   1.336   1.524   0.912  1.0127 -0.7042  0.9659
 1658TIP3   OH226388   0.399   0.360  12.202  0.3940 -0.7184 -0.4377
 1658TIP3    H126389   0.402   0.447  12.162 -0.1074 -1.2127 -1.6025
 1658TIP3    H226390   0.309   0.350  12.232  0.2502 -1.1123 -0.9803
 1659TIP3   OH226391   5.167   0.090  16.682 -0.3187 -0.4533 -0.2816
 1659TIP3    H126392   5.113   0.142  16.623 -1.5242 -2.2676 -0.8595
 1659TIP3    H226393   5.226   0.040  16.625 -2.3018 -3.1303 -0.1756
 1660TIP3   OH226394   2.347   1.280  15.382  0.0713  0.1903 -0.2467
 1660TIP3    H126395   2.339   1.372  15.356  0.7392  0.7035  1.2186
 1660TIP3    H226396   2.436   1.274  15.418  0.0741 -1.0691 -0.4215
 1661TIP3   OH226397   6.679   2.220   3.131 -0.5884 -0.3134 -0.1194
 1661TIP3    H126398   6.764   2.219   3.088 -0.0972  0.5279  0.8157
 1661TIP3    H226399   6.650   2.311   3.125 -0.5220 -0.1748  1.2772
 1662TIP3   OH226400   1.837   2.444   3.551  0.2041  0.0262  0.4611
 1662TIP3    H126401   1.762   2.395   3.518  1.0552 -0.5114 -0.7389
 1662TIP3    H226402   1.799   2.505   3.615 -0.9473 -1.8793  1.7076
 1663TIP3   OH226403   0.138   1.039  15.013 -0.0627  0.1445 -0.2650
 1663TIP3    H126404   0.159   1.120  14.966 -0.2695 -1.0564 -2.5710
 1663TIP3    H226405   0.044   1.044  15.029 -0.6073 -0.6613 -2.7026
 1664TIP3   OH226406   0.081   4.137   6.251  0.1379 -0.8300  0.5502
 1664TIP3    H126407   0.069   4.227   6.221  0.6016 -1.2512 -1.0120
 1664TIP3    H226408   0.048   4.137   6.340 -1.2300  0.5504  0.0979
 1665TIP3   OH226409   1.131   1.653  10.847  0.8278  0.8773  0.0277
 1665TIP3    H126410   1.139   1.564  10.814 -1.8081  0.5586  0.0723
 1665TIP3    H226411   1.202   1.661  10.911  2.2123 -0.5480 -1.2541
 1666TIP3   OH226412   4.012   0.871   0.380 -0.4975  0.0712 -0.7090
 1666TIP3    H126413   3.958   0.950   0.368 -2.6805 -0.7885  2.3004
 1666TIP3    H226414   4.002   0.823   0.298 -0.9619  1.8347 -1.7522
 1667TIP3   OH226415   0.813   6.318  16.027 -0.3968  0.2095 -0.0554
 1667TIP3    H126416   0.883   6.262  15.994  0.0149 -0.0919  1.2768
 1667TIP3    H226417   0.746   6.257  16.058 -1.7213  0.4802 -2.1459
 1668TIP3   OH226418   6.190   3.192  14.047 -0.2829  0.9134  0.1028
 1668TIP3    H126419   6.126   3.173  13.978 -0.3928  0.1021  0.4067
 1668TIP3    H226420   6.197   3.287  14.048  0.1146  0.9237 -1.3707
 1669TIP3   OH226421   6.247   0.232  12.314  0.5164  0.1309  0.5191
 1669TIP3    H126422   6.165   0.225  12.265  0.1780 -0.9117  1.2058
 1669TIP3    H226423   6.241   0.317  12.357 -0.2328  0.0483  0.6006
 1670TIP3   OH226424   3.261   4.383  13.252  0.2312 -0.0517 -0.0081
 1670TIP3    H126425   3.332   4.342  13.301  0.1183  0.9806  1.0800
 1670TIP3    H226426   3.306   4.440  13.189  0.3915  0.5375  0.6226
 1671TIP3   OH226427   0.315   3.530  13.918  0.0376  0.1153 -0.1851
 1671TIP3    H126428   0.345   3.445  13.950 -0.5621 -0.0971 -0.1716
 1671TIP3    H226429   0.308   3.584  13.996 -0.4107 -0.0872 -0.0795
 1672TIP3   OH226430   3.824   1.640  17.363 -0.3865  1.0381 -0.7289
 1672TIP3    H126431   3.741   1.688  17.371  0.0517  1.7896 -0.6345
 1672TIP3    H226432   3.891   1.706  17.377  0.2483  0.5820 -1.5691
 1673TIP3   OH226433   2.778   5.422  14.922  0.2863 -0.0976 -0.2821
 1673TIP3    H126434   2.806   5.486  14.856  0.0233 -0.0036 -0.3051
 1673TIP3    H226435   2.839   5.350  14.912  0.5415  0.1209 -0.3066
 1674TIP3   OH226436   1.195   2.607  12.959  0.2043  0.5997 -0.9396
 1674TIP3    H126437   1.184   2.579  12.868  0.0981  0.1229 -0.7812
 1674TIP3    H226438   1.138   2.683  12.968  2.5917  2.7047 -2.1796
 1675TIP3   OH226439   6.241   1.501  13.937  0.0841 -0.2564 -0.0516
 1675TIP3    H126440   6.176   1.432  13.950  0.3073 -0.0763  2.5097
 1675TIP3    H226441   6.325   1.457  13.949  0.2491  0.3350  1.0225
 1676TIP3   OH226442   0.668   4.118   5.887 -0.2129 -0.0986 -0.0044
 1676TIP3    H126443   0.609   4.171   5.942 -0.7132 -0.2901 -0.3453
 1676TIP3    H226444   0.728   4.182   5.849 -0.2676  0.1178  0.2630
 1677TIP3   OH226445   5.209   4.700   4.710 -0.1392 -0.4815 -0.4391
 1677TIP3    H126446   5.249   4.687   4.624  1.9776  0.4078  0.3302
 1677TIP3    H226447   5.271   4.660   4.771 -0.1454  1.3527  0.8662
 1678TIP3   OH226448   6.213   1.599  12.005 -0.3190  0.2516 -0.5519
 1678TIP3    H126449   6.288   1.540  12.012  0.6278  1.5292  0.4255
 1678TIP3    H226450   6.214   1.629  11.914 -1.0479 -1.4780 -1.1812
 1679TIP3   OH226451   5.611   3.532  11.986 -0.1224  0.5867  0.1460
 1679TIP3    H126452   5.692   3.483  11.970 -0.4522  0.3080 -0.7197
 1679TIP3    H226453   5.567   3.482  12.055  0.7313  1.0977  1.0857
 1680TIP3   OH226454   2.256   5.242   6.303 -0.5259 -0.1188  0.4112
 1680TIP3    H126455   2.288   5.210   6.387 -1.4618 -1.1177  0.4044
 1680TIP3    H226456   2.168   5.276   6.322 -0.3331  0.6326  0.0259
 1681TIP3   OH226457   1.907   4.256   0.279 -0.2753  0.0160 -0.4235
 1681TIP3    H126458   1.859   4.339   0.272 -2.3950 -1.0304  0.6914
 1681TIP3    H226459   1.880   4.206   0.202 -0.3841 -0.2819 -0.1961
 1682TIP3   OH226460   2.721   1.859  12.471 -0.4786  0.2503  0.0768
 1682TIP3    H126461   2.781   1.838  12.400 -0.8184  1.9468 -0.7694
 1682TIP3    H226462   2.757   1.815  12.548  2.5008  2.0720 -0.1146
 1683TIP3   OH226463   4.915   1.970   0.291 -0.0396 -0.4344  0.3597
 1683TIP3    H126464   4.929   2.040   0.228 -0.3473  1.8763  2.7076
 1683TIP3    H226465   4.821   1.950   0.285  0.0389 -0.6160 -0.2797
 1684TIP3   OH226466   6.327   2.002  11.750 -0.2699 -0.4845  0.7984
 1684TIP3    H126467   6.395   1.970  11.809 -0.7860  1.6863  2.7090
 1684TIP3    H226468   6.245   1.972  11.788 -0.6152  1.0555  1.3515
 1685TIP3   OH226469   1.559   3.181  11.878  0.2465 -0.1837 -0.1648
 1685TIP3    H126470   1.532   3.231  11.955 -2.2105 -1.2681 -0.2524
 1685TIP3    H226471   1.515   3.097  11.886  1.1171 -0.8778 -2.0257
 1686TIP3   OH226472   3.555   2.058  12.150  0.3010  0.6576 -0.0633
 1686TIP3    H126473   3.545   1.973  12.107  1.9648 -0.3046  1.3276
 1686TIP3    H226474   3.646   2.083  12.133  0.1075  1.7047  0.3618
 1687TIP3   OH226475   5.241   0.524  16.014 -0.0160 -0.4058  0.0554
 1687TIP3    H126476   5.162   0.575  16.035  0.2794  0.1019 -0.0526
 1687TIP3    H226477   5.238   0.450  16.075 -0.2007 -0.0046  0.5435
 1688TIP3   OH226478   5.673   0.126   3.851 -0.4026 -0.4953  0.4684
 1688TIP3    H126479   5.663   0.193   3.919 -1.3045 -0.2637  0.1245
 1688TIP3    H226480   5.764   0.098   3.858  0.1779  1.2347  0.1674
 1689TIP3   OH226481   4.388   1.777   1.835 -0.9792 -0.3930  0.6345
 1689TIP3    H126482   4.304   1.809   1.802 -0.4603  0.0945 -0.2538
 1689TIP3    H226483   4.451   1.845   1.812  0.1594 -1.9441 -1.2633
 1690TIP3   OH226484   6.291   2.301   2.976 -1.0578  0.1216  0.4361
 1690TIP3    H126485   6.286   2.396   2.967  0.5612  0.3380  1.4281
 1690TIP3    H226486   6.346   2.273   2.902 -1.5130 -0.0496  0.1586
 1691TIP3   OH226487   6.247   1.475   3.573  0.5976 -0.1186  0.3714
 1691TIP3    H126488   6.220   1.383   3.568  1.4728 -0.3891  0.5840
 1691TIP3    H226489   6.304   1.479   3.649  0.1565  0.7151  0.6728
 1692TIP3   OH226490   5.390   6.571   5.862 -0.0978  0.1798 -0.7288
 1692TIP3    H126491   5.393   6.548   5.769 -0.7482 -1.1752 -0.4329
 1692TIP3    H226492   5.318   6.633   5.869 -0.5380 -0.2911 -1.0245
 1693TIP3   OH226493   6.714   4.708  13.721 -0.8137 -0.2928  0.2719
 1693TIP3    H126494   6.726   4.663  13.637 -3.1380 -0.7407  0.1012
 1693TIP3    H226495   6.662   4.647  13.773 -1.2037  0.8494  1.2703
 1694TIP3   OH226496   1.593   6.499   2.732 -0.1896 -0.0392  0.3591
 1694TIP3    H126497   1.619   6.557   2.660 -0.7732  0.1174  0.2676
 1694TIP3    H226498   1.674   6.482   2.780  0.0788  0.4375  0.0837
 1695TIP3   OH226499   4.657   3.150   3.501  0.1242 -0.3929 -0.2472
 1695TIP3    H126500   4.573   3.172   3.542 -1.3546  0.1773 -3.3312
 1695TIP3    H226501   4.660   3.054   3.504 -0.3172 -0.3980  0.4198
 1696TIP3   OH226502   6.449   5.099   5.855  0.1301  0.6603 -0.8483
 1696TIP3    H126503   6.480   5.012   5.880  2.0612  1.8531  1.3985
 1696TIP3    H226504   6.433   5.094   5.761  0.4629 -2.0036 -0.8311
 1697TIP3   OH226505   2.065   2.610  14.445 -0.0162 -1.0450  0.1225
 1697TIP3    H126506   2.157   2.592  14.462 -0.3930 -0.7951  2.8144
 1697TIP3    H226507   2.039   2.544  14.381  2.1043 -0.8006 -1.0935
 1698TIP3   OH226508   0.187   4.222  13.839  0.0058 -0.2100 -0.1502
 1698TIP3    H126509   0.198   4.132  13.867 -1.6476  0.0348  1.4448
 1698TIP3    H226510   0.148   4.267  13.914  2.0647  2.1886 -0.3658
 1699TIP3   OH226511   4.630   4.842  12.095 -0.9537 -0.0569 -1.2178
 1699TIP3    H126512   4.703   4.870  12.040 -0.9798  3.6279  0.3580
 1699TIP3    H226513   4.671   4.785  12.161  0.6850  2.1942 -0.1631
 1700TIP3   OH226514   4.620   1.512  13.086  0.3590  0.0829 -0.2920
 1700TIP3    H126515   4.533   1.518  13.125  0.4745  0.3964 -0.0735
 1700TIP3    H226516   4.638   1.418  13.079  1.0539 -0.0250  2.0569
 1701TIP3   OH226517   5.071   0.671  13.114 -0.2531 -0.2839 -0.8329
 1701TIP3    H126518   5.015   0.729  13.063 -2.3610 -0.2397  1.3677
 1701TIP3    H226519   5.132   0.729  13.159  0.3991 -0.1704 -1.8462
 1702TIP3   OH226520   2.866   2.110   0.019 -0.3248 -0.0748  0.0121
 1702TIP3    H126521   2.801   2.165  -0.025 -0.4052  0.0105  0.2382
 1702TIP3    H226522   2.944   2.166   0.025 -0.7459  0.3996  1.2245
 1703TIP3   OH226523   0.137   3.766  11.849  0.0764  0.1038 -0.0241
 1703TIP3    H126524   0.116   3.822  11.924  0.1376 -1.3104  1.1007
 1703TIP3    H226525   0.084   3.800  11.778 -3.0169 -0.8036  1.6583
 1704TIP3   OH226526   6.104   2.701   3.749  0.1954 -0.5448  0.0920
 1704TIP3    H126527   6.184   2.673   3.795 -0.9914 -3.3771  0.6760
 1704TIP3    H226528   6.096   2.638   3.677 -0.7498  0.6329 -0.8617
 1705TIP3   OH226529   5.421   6.043   4.407 -0.1724 -0.1279  0.1649
 1705TIP3    H126530   5.413   6.107   4.336 -1.6440 -0.8622 -0.3738
 1705TIP3    H226531   5.388   6.089   4.484 -3.2924 -0.8289 -0.6329
 1706TIP3   OH226532   5.290   3.441  14.230  0.4988 -0.3639 -0.0753
 1706TIP3    H126533   5.282   3.471  14.139  1.1545  0.2410  0.0540
 1706TIP3    H226534   5.261   3.350  14.228 -0.1321 -0.1639 -0.7648
 1707TIP3   OH226535   3.841   4.504  11.171 -0.3608  0.3910 -0.1209
 1707TIP3    H126536   3.776   4.519  11.240 -0.3720  1.7154 -0.4032
 1707TIP3    H226537   3.817   4.419  11.134  0.0315 -0.6976  1.9145
 1708TIP3   OH226538   5.044   0.946   5.412  0.2195  0.1946 -0.5055
 1708TIP3    H126539   5.053   1.033   5.450  1.0195  0.1132 -0.4911
 1708TIP3    H226540   4.950   0.929   5.412 -0.0323  1.4691 -1.4458
 1709TIP3   OH226541   5.023   1.120   2.675  0.0227  0.1977 -0.2635
 1709TIP3    H126542   5.064   1.044   2.715  0.3644 -0.1481 -1.2609
 1709TIP3    H226543   4.955   1.146   2.738  1.6142  0.6991  1.3476
 1710TIP3   OH226544   0.974   1.242  13.031  0.7447  0.6873  0.3611
 1710TIP3    H126545   1.055   1.236  13.081  0.8013  0.5401  0.2505
 1710TIP3    H226546   0.922   1.307  13.078  0.5313  0.0691  0.9943
 1711TIP3   OH226547   4.328   2.719   3.970 -0.0918  0.4321  0.0561
 1711TIP3    H126548   4.348   2.709   3.877  0.8490 -1.4449  0.4131
 1711TIP3    H226549   4.358   2.808   3.991 -0.7249  1.0474 -1.5082
 1712TIP3   OH226550   3.245   0.925  13.203  0.7755 -1.2179  0.1358
 1712TIP3    H126551   3.196   0.853  13.244 -0.7481 -0.9101 -1.0615
 1712TIP3    H226552   3.191   1.002  13.217  1.1771 -0.7566 -0.7618
 1713TIP3   OH226553   4.453   1.269  15.916 -0.5324 -0.1604  0.4846
 1713TIP3    H126554   4.468   1.212  15.991 -2.3494 -0.4437  0.6917
 1713TIP3    H226555   4.425   1.209  15.846  2.1263 -0.0316 -0.7970
 1714TIP3   OH226556   5.964   4.235  11.871 -0.2887 -0.2274  0.0236
 1714TIP3    H126557   6.041   4.193  11.909 -1.5933 -0.6121  2.4485
 1714TIP3    H226558   5.917   4.272  11.946 -2.3694  0.1829 -1.3807
 1715TIP3   OH226559   3.878   3.101   3.157  0.1393 -0.4955 -0.0096
 1715TIP3    H126560   3.790   3.116   3.121  0.0739 -0.8975 -0.0283
 1715TIP3    H226561   3.862   3.070   3.246  0.1305 -3.1647 -0.8611
 1716TIP3   OH226562   5.410   3.401   3.971 -0.1827  0.1409 -0.0574
 1716TIP3    H126563   5.374   3.456   3.901 -0.3785 -1.2872 -1.1083
 1716TIP3    H226564   5.505   3.412   3.964 -0.2284  0.5138 -0.1194
 1717TIP3   OH226565   4.320   0.123   3.935  0.0133 -0.6089  0.0843
 1717TIP3    H126566   4.304   0.216   3.948  2.8171  0.1915 -1.4290
 1717TIP3    H226567   4.389   0.101   3.997 -0.2264 -1.5534  0.0411
 1718TIP3   OH226568   6.126   1.032   7.105 -0.2599  0.2677 -0.6169
 1718TIP3    H126569   6.036   0.999   7.101 -0.2432 -0.0708  1.1283
 1718TIP3    H226570   6.180   0.954   7.119  0.0876  0.6607  0.3332
 1719TIP3   OH226571   5.273   2.146   2.326 -0.0661  0.8239  0.0274
 1719TIP3    H126572   5.227   2.064   2.308  1.2079  0.3448 -1.2122
 1719TIP3    H226573   5.241   2.206   2.258 -2.0207  1.8423  1.7308
 1720TIP3   OH226574   5.149   2.604   5.122 -0.1486 -0.0897  0.0198
 1720TIP3    H126575   5.092   2.662   5.071 -0.0942 -0.0369  0.0198
 1720TIP3    H226576   5.100   2.522   5.128 -0.4076  0.0868  0.3690
 1721TIP3   OH226577   4.391   2.995   3.525 -0.2666 -0.5365  0.2314
 1721TIP3    H126578   4.352   3.059   3.584  0.3004 -0.2217  0.2768
 1721TIP3    H226579   4.317   2.952   3.483 -0.6563  0.3614 -0.0263
 1722TIP3   OH226580   4.758   5.147  15.696  0.0107  0.7127  0.4142
 1722TIP3    H126581   4.753   5.194  15.779  0.8312  0.3568  0.6692
 1722TIP3    H226582   4.667   5.125  15.676 -0.0191 -1.3220  2.4523
 1723TIP3   OH226583   3.812   3.189  17.308 -0.3772 -0.7999 -0.4658
 1723TIP3    H126584   3.738   3.129  17.309  0.5107 -1.9645  1.8841
 1723TIP3    H226585   3.791   3.252  17.239 -3.6002 -0.9640  0.2416
 1724TIP3   OH226586   2.087   0.123  16.055 -0.0357 -0.3046  0.0113
 1724TIP3    H126587   2.145   0.072  16.111 -0.4467  0.3170  1.0385
 1724TIP3    H226588   2.000   0.086  16.070 -0.5739  1.4825  1.8308
 1725TIP3   OH226589   2.088   6.115   2.259  0.1554  1.3387 -0.1704
 1725TIP3    H126590   2.079   6.185   2.323 -1.9961  1.3151 -0.3407
 1725TIP3    H226591   1.998   6.085   2.244  0.3307  2.2143 -4.1444
 1726TIP3   OH226592   4.180   3.244  14.544 -0.5033 -0.5557  0.0947
 1726TIP3    H126593   4.139   3.278  14.623 -2.3427  0.1746 -1.1156
 1726TIP3    H226594   4.236   3.316  14.513  0.0406 -0.7594  0.5988
 1727TIP3   OH226595   1.049   6.583  10.718 -0.1236  0.7272 -0.1770
 1727TIP3    H126596   1.106   6.644  10.764 -1.3079  2.4104 -0.8501
 1727TIP3    H226597   1.039   6.621  10.631  0.4162 -1.3110 -1.1977
 1728TIP3   OH226598   4.001   3.622  12.084 -0.0473 -0.2155 -0.0652
 1728TIP3    H126599   3.952   3.650  12.006  0.7713 -0.8328 -0.8311
 1728TIP3    H226600   3.951   3.549  12.119  0.3736 -0.9474 -0.9362
 1729TIP3   OH226601   1.680   4.348  11.709  0.1044 -0.6624 -0.2296
 1729TIP3    H126602   1.659   4.414  11.643  0.1816  2.1597  2.3095
 1729TIP3    H226603   1.599   4.300  11.722 -1.0313  1.2464  0.1591
 1730TIP3   OH226604   3.431   2.253  13.061 -0.3658  0.6705  0.2642
 1730TIP3    H126605   3.394   2.283  12.978  0.3605  0.3925 -0.1759
 1730TIP3    H226606   3.359   2.259  13.123 -1.1954  0.0076 -0.5960
 1731TIP3   OH226607   3.938   3.543  13.336 -0.1441 -0.4189  0.4648
 1731TIP3    H126608   4.007   3.494  13.290  0.7121  1.7409 -0.7003
 1731TIP3    H226609   3.883   3.577  13.266 -0.4896  0.5847  1.2110
 1732TIP3   OH226610   1.231   1.568   5.825 -0.4282  0.3275  0.4559
 1732TIP3    H126611   1.234   1.487   5.774  1.1434 -0.4029  1.6112
 1732TIP3    H226612   1.160   1.554   5.888 -0.2151 -0.1414  0.5982
 1733TIP3   OH226613   3.109   0.739   1.832 -0.2657 -0.0670  0.0746
 1733TIP3    H126614   3.121   0.806   1.765  0.3268 -0.6293 -0.4056
 1733TIP3    H226615   3.017   0.713   1.824  0.3742 -2.0417 -2.4557
 1734TIP3   OH226616   1.130   2.078   4.651  0.4405  0.1320  0.1774
 1734TIP3    H126617   1.042   2.073   4.688  0.6376 -1.3004  0.5057
 1734TIP3    H226618   1.118   2.049   4.560  0.9108 -2.6878  0.9036
 1735TIP3   OH226619   0.604   2.059   5.181 -0.1701 -0.3677  0.2736
 1735TIP3    H126620   0.519   2.021   5.159 -0.1853  0.3307 -0.9616
 1735TIP3    H226621   0.656   2.048   5.101  0.2391  1.0350  0.3223
 1736TIP3   OH226622   3.944   6.508   3.660 -0.3403  0.4454 -0.1254
 1736TIP3    H126623   3.972   6.450   3.731 -0.2680 -1.4332 -1.6071
 1736TIP3    H226624   4.013   6.575   3.656  0.9576 -0.8389 -0.0059
 1737TIP3   OH226625   6.079   1.817   1.821 -0.9630  0.0680 -0.0041
 1737TIP3    H126626   6.169   1.798   1.795 -1.3102 -0.1567 -1.0999
 1737TIP3    H226627   6.054   1.893   1.768 -2.0020 -0.9692 -1.0759
 1738TIP3   OH226628   0.584   2.627   5.062 -0.0148  0.0503  0.9268
 1738TIP3    H126629   0.579   2.680   4.982  1.7998  0.6893  1.1972
 1738TIP3    H226630   0.678   2.611   5.074 -0.4330 -2.4407  1.3795
 1739TIP3   OH226631   3.844   3.628   2.459 -0.0935 -0.1459  0.0127
 1739TIP3    H126632   3.816   3.627   2.551  0.7123  0.7215  0.2884
 1739TIP3    H226633   3.802   3.705   2.422  0.5609  0.2184 -0.0022
 1740TIP3   OH226634   2.156   6.665   0.059 -0.0277 -0.3766 -0.0278
 1740TIP3    H126635   2.097   6.593   0.039  0.3246 -0.8371  0.5563
 1740TIP3    H226636   2.207   6.677  -0.021  1.1280 -1.9557  0.4251
 1741TIP3   OH226637   5.262   1.263   0.834  0.5661 -1.0963  0.4932
 1741TIP3    H126638   5.279   1.177   0.872  0.9891 -1.0377  0.4489
 1741TIP3    H226639   5.218   1.244   0.751 -1.3430 -1.1854  1.4750
 1742TIP3   OH226640   4.397   3.037   4.737  0.2106  0.2370  0.4012
 1742TIP3    H126641   4.336   3.002   4.671 -0.5967  0.6203  0.9225
 1742TIP3    H226642   4.361   3.123   4.758  2.7186  1.9141 -1.6172
 1743TIP3   OH226643   1.351   4.541   4.487 -0.6155  0.2306 -0.0494
 1743TIP3    H126644   1.257   4.556   4.498 -0.5919 -0.1196  0.7784
 1743TIP3    H226645   1.392   4.613   4.535 -0.5038 -1.4800  2.6650
 1744TIP3   OH226646   2.196   3.605   3.349 -0.0877 -0.1732  0.0041
 1744TIP3    H126647   2.238   3.551   3.283  0.0180  0.5343 -0.5294
 1744TIP3    H226648   2.104   3.578   3.348 -0.0128 -0.4198 -0.1700
 1745TIP3   OH226649   6.705   3.930   0.931 -0.4814 -0.0453 -0.0910
 1745TIP3    H126650   6.717   3.853   0.986 -0.9175 -0.9386 -1.2070
 1745TIP3    H226651   6.642   3.984   0.979 -1.0738 -0.9440  0.1663
 1746TIP3   OH226652   0.811   5.007   5.840 -0.1285  0.0011 -0.0944
 1746TIP3    H126653   0.781   4.994   5.930  1.1968 -0.3998  0.3161
 1746TIP3    H226654   0.819   5.101   5.831 -1.6856  0.1479 -0.3059
 1747TIP3   OH226655   4.645   6.401  11.196 -0.6344 -0.1196  0.4259
 1747TIP3    H126656   4.572   6.459  11.213 -0.3829  0.4108 -0.2423
 1747TIP3    H226657   4.619   6.317  11.233 -1.0033  0.4132  1.3924
 1748TIP3   OH226658   3.368   6.489   4.681  0.0341 -0.0426 -0.2042
 1748TIP3    H126659   3.299   6.431   4.713 -1.4739  0.5366 -2.1894
 1748TIP3    H226660   3.336   6.577   4.700  0.1163  0.2381 -1.2876
 1749TIP3   OH226661   6.284   6.634   3.391  0.1203 -0.6208  0.3236
 1749TIP3    H126662   6.302   6.694   3.463  0.0473 -1.4944  1.0827
 1749TIP3    H226663   6.242   6.689   3.324 -1.1458 -0.0681  1.5132
 1750TIP3   OH226664   5.886   3.117  13.136  0.0511 -0.0777 -0.0057
 1750TIP3    H126665   5.920   3.205  13.117  1.0055 -0.2320  0.9206
 1750TIP3    H226666   5.934   3.059  13.077 -1.9489  0.1662 -2.0468
 1751TIP3   OH226667   0.279   3.854  14.368  0.2754  0.2920 -0.0135
 1751TIP3    H126668   0.337   3.800  14.314  0.0707  0.3035 -0.2452
 1751TIP3    H226669   0.231   3.908  14.305  0.8399  1.1107  0.2325
 1752TIP3   OH226670   1.814   3.423  16.300 -0.2629  0.0263  0.3607
 1752TIP3    H126671   1.722   3.432  16.275  0.1322  0.8523 -0.8636
 1752TIP3    H226672   1.829   3.329  16.301 -0.6907 -0.0847 -1.1079
 1753TIP3   OH226673   1.730   2.240  12.370 -0.1560 -0.2003  0.2771
 1753TIP3    H126674   1.660   2.304  12.361  0.5450  0.2613 -3.3227
 1753TIP3    H226675   1.810   2.290  12.352  1.0990 -0.9782  3.0539
 1754TIP3   OH226676   4.247   1.521  13.986 -0.1202  0.4679 -0.1074
 1754TIP3    H126677   4.163   1.498  14.024 -0.9771 -0.7080 -2.4797
 1754TIP3    H226678   4.256   1.615  13.999 -1.4572  0.4824  0.7956
 1755TIP3   OH226679   1.777   0.490  12.793 -0.0637 -0.0879 -0.5399
 1755TIP3    H126680   1.792   0.468  12.701 -0.0816 -0.7776 -0.3763
 1755TIP3    H226681   1.782   0.407  12.839  0.3475  0.3067  0.1438
 1756TIP3   OH226682   5.119   4.828   4.022  0.1251 -0.1586 -0.1608
 1756TIP3    H126683   5.142   4.916   3.992  1.2949 -1.2597 -2.7956
 1756TIP3    H226684   5.030   4.814   3.991  0.4941 -0.4375 -1.1231
 1757TIP3   OH226685   2.098   4.271  13.247  0.7923  0.1050 -0.1350
 1757TIP3    H126686   2.118   4.192  13.297 -0.8972 -0.3719 -0.1631
 1757TIP3    H226687   2.148   4.340  13.290 -0.6423 -0.2714  2.3097
 1758TIP3   OH226688   0.358   6.734   2.598  0.2522  0.3470 -0.7514
 1758TIP3    H126689   0.426   6.752   2.533  1.3145 -0.2130  0.1440
 1758TIP3    H226690   0.401   6.753   2.682 -0.2921 -1.1303 -0.0927
 1759TIP3   OH226691   2.780   0.555  12.505 -0.3490 -0.2349  0.0548
 1759TIP3    H126692   2.717   0.543  12.576 -2.1208  1.1020 -1.1880
 1759TIP3    H226693   2.812   0.467  12.485 -1.3008 -0.8588  1.1964
 1760TIP3   OH226694   5.152   4.317  12.979  0.2547  0.5688  0.2082
 1760TIP3    H126695   5.143   4.332  13.073 -0.2937 -0.5459  0.3558
 1760TIP3    H226696   5.063   4.329  12.944  0.4422  0.9075 -0.1592
 1761TIP3   OH226697   0.126   0.903  17.290  0.1711  0.4467  0.3551
 1761TIP3    H126698   0.131   0.883  17.383 -1.2722 -3.2186 -0.1922
 1761TIP3    H226699   0.050   0.961  17.281 -1.5678 -1.5987  1.2308
 1762TIP3   OH226700   5.128   4.833   5.777 -0.1501 -0.1772  0.5986
 1762TIP3    H126701   5.203   4.892   5.768 -0.3404 -0.1504 -1.5351
 1762TIP3    H226702   5.160   4.761   5.830  0.3714  1.3657  2.4812
 1763TIP3   OH226703   1.686   1.248  15.670 -0.6781 -0.5633 -0.3542
 1763TIP3    H126704   1.674   1.316  15.604 -1.7059 -0.2444  0.1335
 1763TIP3    H226705   1.597   1.218  15.689 -0.6460  0.8216  2.4171
 1764TIP3   OH226706   4.540   2.256  13.726 -0.0618  0.3111  0.3969
 1764TIP3    H126707   4.457   2.232  13.767 -0.9116  0.6288 -1.0644
 1764TIP3    H226708   4.541   2.352  13.728  0.8696  0.3041  1.5052
 1765TIP3   OH226709   1.555   3.648  11.263  0.0062 -0.7165 -0.0886
 1765TIP3    H126710   1.565   3.572  11.205  3.8145 -1.3527  1.1209
 1765TIP3    H226711   1.501   3.615  11.335 -1.9924 -0.8878 -1.5660
 1766TIP3   OH226712   1.738   4.087  17.152 -0.0279  0.2977  0.2219
 1766TIP3    H126713   1.760   4.019  17.216 -0.6131  0.9408  1.1425
 1766TIP3    H226714   1.736   4.168  17.204  0.6752  1.0246 -0.8545
 1767TIP3   OH226715   3.041   6.493  14.551  0.2892  0.1894  0.6910
 1767TIP3    H126716   3.027   6.587  14.542 -0.5984 -0.0696 -1.2607
 1767TIP3    H226717   2.979   6.466  14.618 -1.4854  0.6219 -0.7056
 1768TIP3   OH226718   4.278   6.517   5.792 -0.2792  0.2895 -0.8189
 1768TIP3    H126719   4.201   6.486   5.743  0.0261 -2.0391  0.0619
 1768TIP3    H226720   4.255   6.503   5.884  1.2668 -0.7034 -0.5560
 1769TIP3   OH226721   4.776   3.776  15.376  0.5372  0.3521 -0.5009
 1769TIP3    H126722   4.798   3.843  15.441 -0.1098 -0.5860  0.7235
 1769TIP3    H226723   4.780   3.694  15.424  1.9167 -0.5946 -2.1049
 1770TIP3   OH226724   4.875   1.843  15.893 -0.1396  0.5576 -0.8094
 1770TIP3    H126725   4.866   1.748  15.897 -1.0752  0.5328 -2.4889
 1770TIP3    H226726   4.840   1.867  15.807 -0.2681  2.4595 -0.2797
 1771TIP3   OH226727   4.644   1.017  14.354  0.1532  0.1168  0.0347
 1771TIP3    H126728   4.670   0.972  14.274  0.5850  0.7782 -0.2038
 1771TIP3    H226729   4.566   1.066  14.330  1.3904  1.8957 -0.5476
 1772TIP3   OH226730   0.857   3.901  17.428 -0.1432 -0.5511  0.1776
 1772TIP3    H126731   0.905   3.848  17.492 -2.0807 -2.7034 -0.0042
 1772TIP3    H226732   0.784   3.938  17.477 -0.4696 -0.4887 -0.3423
 1773TIP3   OH226733   1.841   3.269  12.413  0.5102 -0.0312  0.4314
 1773TIP3    H126734   1.752   3.238  12.431  0.0145 -0.0785 -1.8440
 1773TIP3    H226735   1.858   3.244  12.323  2.0988  1.7277  0.1675
 1774TIP3   OH226736   2.898   2.281  12.684 -0.3786 -0.8119 -0.4467
 1774TIP3    H126737   2.831   2.240  12.630 -2.0795  0.6720  0.4389
 1774TIP3    H226738   2.945   2.339  12.624 -2.3431  0.9369 -0.4326
 1775TIP3   OH226739   1.388   6.623   4.788 -0.1293 -0.4177 -0.1714
 1775TIP3    H126740   1.434   6.539   4.787 -0.8304 -0.8077 -0.4497
 1775TIP3    H226741   1.296   6.600   4.772 -0.1447  0.5281 -1.5215
 1776TIP3   OH226742   2.128   4.323   5.513 -0.2834 -0.4800 -0.3729
 1776TIP3    H126743   2.093   4.344   5.426 -0.1053  0.3236 -0.2584
 1776TIP3    H226744   2.069   4.367   5.574 -0.6514 -1.3831 -0.0565
 1777TIP3   OH226745   4.322   2.739  16.183 -0.3693  0.8440  0.0809
 1777TIP3    H126746   4.326   2.775  16.094  1.7633 -3.2269 -1.7111
 1777TIP3    H226747   4.397   2.779  16.228  0.3319  0.7175 -0.9414
 1778TIP3   OH226748   1.652   6.023  17.115 -0.1208 -0.4761  0.2366
 1778TIP3    H126749   1.646   6.047  17.208 -1.6180  0.5066 -0.0786
 1778TIP3    H226750   1.717   6.083  17.079 -0.7879  0.3030  0.3121
 1779TIP3   OH226751   3.427   2.442  12.358  0.5985 -0.6638 -0.0092
 1779TIP3    H126752   3.475   2.493  12.293  1.2613 -0.9950  0.2208
 1779TIP3    H226753   3.413   2.357  12.316  1.3658 -1.0077  0.4252
 1780TIP3   OH226754   1.137   0.265  17.409  0.0169  0.0137  0.3311
 1780TIP3    H126755   1.075   0.338  17.398  0.7664  0.5041 -0.9823
 1780TIP3    H226756   1.195   0.272  17.333  0.5362 -1.5551  0.5443
 1781TIP3   OH226757   5.435   2.659   4.712 -0.4674 -0.3529  0.1710
 1781TIP3    H126758   5.340   2.663   4.727 -0.3024  0.3868  1.1166
 1781TIP3    H226759   5.473   2.679   4.797  0.5467 -1.4050 -0.0203
 1782TIP3   OH226760   2.154   3.956   2.263 -0.1272 -0.0611 -0.9436
 1782TIP3    H126761   2.079   3.973   2.321  0.1347 -0.5451 -0.4573
 1782TIP3    H226762   2.159   3.861   2.258  1.1801 -0.0677 -0.0050
 1783TIP3   OH226763   6.700   0.879  14.874 -0.3600 -0.2333 -0.3270
 1783TIP3    H126764   6.614   0.913  14.899 -1.3570 -3.0721  0.4824
 1783TIP3    H226765   6.757   0.903  14.946 -1.0578 -0.4238  0.3004
 1784TIP3   OH226766   1.169   6.100  15.502  0.3179  0.6571  0.2079
 1784TIP3    H126767   1.143   6.022  15.551  1.3474  0.3820  0.3288
 1784TIP3    H226768   1.222   6.066  15.429 -2.4255  0.8907 -2.0669
 1785TIP3   OH226769   1.383   4.604   4.233 -0.2111  0.6464 -0.4187
 1785TIP3    H126770   1.364   4.578   4.323 -2.0978  0.6393 -0.7777
 1785TIP3    H226771   1.419   4.525   4.193  0.1867  0.5062  0.2003
 1786TIP3   OH226772   5.235   3.390  12.869 -0.0906  0.2311  0.4275
 1786TIP3    H126773   5.206   3.344  12.790  1.1985 -1.7293  1.0096
 1786TIP3    H226774   5.215   3.482  12.853  0.4504 -0.0664 -2.3165
 1787TIP3   OH226775   4.295   2.143  15.202 -0.8844  0.1335 -0.3658
 1787TIP3    H126776   4.346   2.097  15.137 -0.8999  0.4867 -0.6331
 1787TIP3    H226777   4.275   2.228  15.162  0.4540  1.0063  0.6943
 1788TIP3   OH226778   5.363   1.174  13.378 -0.0313 -0.0854  0.0731
 1788TIP3    H126779   5.291   1.237  13.380 -0.4515 -0.5514 -0.0347
 1788TIP3    H226780   5.411   1.189  13.459  0.0315  0.5548 -0.0789
 1789TIP3   OH226781   6.021   6.448  15.810 -0.1690  0.1399  0.3769
 1789TIP3    H126782   5.978   6.376  15.856  1.4636 -2.4757 -1.8793
 1789TIP3    H226783   5.950   6.505  15.781 -1.9896 -2.7123 -1.1587
 1790TIP3   OH226784   0.655   3.963  13.735  0.0557  0.5193 -0.0707
 1790TIP3    H126785   0.580   3.977  13.676 -0.3586  0.9825  0.5569
 1790TIP3    H226786   0.648   3.871  13.760 -0.0893  0.4631 -0.3097
 1791TIP3   OH226787   0.690   4.307  14.131  0.6434 -0.0301  0.1671
 1791TIP3    H126788   0.651   4.309  14.043  0.7006 -0.0500  0.1411
 1791TIP3    H226789   0.685   4.216  14.157  1.0780 -0.1132 -0.0204
 1792TIP3   OH226790   0.171   6.642   6.229 -0.1010 -0.1468 -0.3758
 1792TIP3    H126791   0.256   6.605   6.206  0.2927  0.8041 -0.4748
 1792TIP3    H226792   0.191   6.709   6.294 -0.7255  0.3808 -0.7198
 1793TIP3   OH226793   1.525   5.349  10.782  0.0588  0.0210 -0.2522
 1793TIP3    H126794   1.478   5.303  10.712  0.0567 -1.2339  0.5334
 1793TIP3    H226795   1.462   5.413  10.815  0.3837  1.2901 -1.9984
 1794TIP3   OH226796   5.317   2.566  16.669  0.0183 -0.0603 -0.4549
 1794TIP3    H126797   5.338   2.501  16.602  0.4576  0.7645 -1.1533
 1794TIP3    H226798   5.304   2.516  16.749  1.6182 -0.9136 -0.6846
 1795TIP3   OH226799   6.435   3.014   4.583  0.7199  0.1837 -0.2302
 1795TIP3    H126800   6.425   3.070   4.506 -0.0760 -1.2468 -1.2049
 1795TIP3    H226801   6.360   3.035   4.638  0.5367  0.2288 -0.4945
 1796TIP3   OH226802   4.217   0.736   0.890  0.0309 -0.4359  0.6360
 1796TIP3    H126803   4.224   0.777   0.804 -0.4206 -1.4073  0.1191
 1796TIP3    H226804   4.237   0.807   0.952  0.4675  0.2490 -0.2587
 1797TIP3   OH226805   3.338   3.094   2.073  0.0028 -0.4819  0.2248
 1797TIP3    H126806   3.343   3.128   2.162  0.2079 -0.2251  0.1143
 1797TIP3    H226807   3.336   3.171   2.017  2.8944 -0.5979 -0.1735
 1798TIP3   OH226808   2.105   0.749   4.513 -0.3180  0.1602  0.0372
 1798TIP3    H126809   2.195   0.782   4.509  0.1492 -1.0290  0.3957
 1798TIP3    H226810   2.106   0.670   4.459 -0.3038 -1.6724  2.5576
 1799TIP3   OH226811   6.065   2.262  12.523  0.1605 -0.0126  0.1487
 1799TIP3    H126812   6.095   2.172  12.535  1.0442  0.4176  1.3017
 1799TIP3    H226813   6.143   2.315  12.533 -0.5278  0.9554  0.5014
 1800TIP3   OH226814   0.229   1.426  11.487  0.0233  0.6579  0.6514
 1800TIP3    H126815   0.186   1.506  11.518 -2.2388 -1.2012  2.7749
 1800TIP3    H226816   0.315   1.428  11.530  0.3382  2.2709  0.0289
 1801TIP3   OH226817   2.422   2.779   4.063  0.0225  0.4945 -0.3492
 1801TIP3    H126818   2.440   2.873   4.056 -0.9038  0.6993 -0.1088
 1801TIP3    H226819   2.373   2.770   4.145 -1.2690  0.0300 -1.1416
 1802TIP3   OH226820   1.730   2.631   4.051 -0.5669 -0.0290  0.0170
 1802TIP3    H126821   1.746   2.551   4.001 -2.7355 -0.0151 -0.7855
 1802TIP3    H226822   1.762   2.610   4.139  4.0107  0.2049 -1.3387
 1803TIP3   OH226823   2.558   1.026   5.528  0.0346 -0.7224 -0.2610
 1803TIP3    H126824   2.472   1.046   5.565  0.2037 -2.4291  1.1990
 1803TIP3    H226825   2.545   0.944   5.481  0.7831 -0.8371 -0.2772
 1804TIP3   OH226826   5.451   4.768  13.734  0.5737  0.5881 -0.6573
 1804TIP3    H126827   5.424   4.852  13.772 -2.0133 -0.3619 -0.2111
 1804TIP3    H226828   5.485   4.791  13.647 -2.5780  1.9384 -1.6624
 1805TIP3   OH226829   3.158   0.765  16.193  0.4398  0.1393  0.4441
 1805TIP3    H126830   3.240   0.751  16.240  0.4025 -0.9584  0.2071
 1805TIP3    H226831   3.180   0.747  16.101 -0.0684 -0.2116  0.3889
 1806TIP3   OH226832   2.568   2.454   3.569 -0.9351  0.0760  0.3837
 1806TIP3    H126833   2.525   2.428   3.487  0.0059 -0.5491  0.0607
 1806TIP3    H226834   2.519   2.530   3.599 -2.6229 -0.9613  0.3574
 1807TIP3   OH226835   3.393   0.553   6.540 -0.6166 -0.1222 -0.3349
 1807TIP3    H126836   3.371   0.638   6.578  0.5381  0.1864 -0.3205
 1807TIP3    H226837   3.315   0.528   6.491 -1.5334  0.2443  0.8671
 1808TIP3   OH226838   2.631   2.451   4.200 -0.5385 -0.1157 -0.0290
 1808TIP3    H126839   2.700   2.518   4.199  0.0886 -0.7049  1.2701
 1808TIP3    H226840   2.592   2.456   4.113 -1.0293  2.4640  0.2697
 1809TIP3   OH226841   1.537   3.189  16.120 -0.3211  0.1725  0.1447
 1809TIP3    H126842   1.524   3.202  16.026  1.9273  0.0748 -0.2403
 1809TIP3    H226843   1.540   3.094  16.130 -0.1476  0.1857  0.2297
 1810TIP3   OH226844   3.446   2.641  14.408  0.0344  0.2794 -0.3573
 1810TIP3    H126845   3.535   2.621  14.378 -0.2569 -0.8774 -0.4850
 1810TIP3    H226846   3.419   2.715  14.354  0.0384 -0.8942 -2.0614
 1811TIP3   OH226847   6.410   1.449   4.386 -0.4501 -0.1432  0.3454
 1811TIP3    H126848   6.353   1.512   4.342 -0.5838 -0.7012 -0.3030
 1811TIP3    H226849   6.370   1.364   4.366  0.4183 -0.5124  0.1675
 1812TIP3   OH226850   2.031   2.964  12.440  0.0861  0.1001  0.2015
 1812TIP3    H126851   2.116   2.933  12.471  0.6740  1.1674 -0.2648
 1812TIP3    H226852   2.003   2.899  12.376  1.3111  0.5302 -0.8081
 1813TIP3   OH226853   1.774   6.280   2.881 -0.0920  0.4310  0.2439
 1813TIP3    H126854   1.865   6.252   2.894 -0.4991 -0.6856  0.8621
 1813TIP3    H226855   1.754   6.254   2.791  0.5845  1.8551 -0.3411
 1814TIP3   OH226856   2.866   2.294   0.878  0.4093 -0.2995  0.4956
 1814TIP3    H126857   2.929   2.346   0.828 -0.6788  1.4066  0.7891
 1814TIP3    H226858   2.799   2.270   0.815 -0.5027  1.0822  0.8876
 1815TIP3   OH226859   5.350   5.724  15.724 -0.2606 -0.4270 -0.2510
 1815TIP3    H126860   5.296   5.652  15.757 -0.7641 -0.7128 -1.6346
 1815TIP3    H226861   5.434   5.682  15.703 -0.1611 -0.3739  0.0336
 1816TIP3   OH226862   2.546   3.741   4.045 -0.0216  0.9116  0.5979
 1816TIP3    H126863   2.612   3.698   3.990  0.0057 -1.7096  2.4705
 1816TIP3    H226864   2.463   3.723   4.002  0.2865  2.8298 -0.9148
 1817TIP3   OH226865   4.614   4.892   0.903  0.2308 -0.0656  0.4912
 1817TIP3    H126866   4.705   4.915   0.922  1.1560 -0.7943 -2.4647
 1817TIP3    H226867   4.599   4.923   0.814 -2.7373  0.7333  1.1421
 1818TIP3   OH226868   4.297   5.677  15.249  0.2918 -0.8437 -0.3886
 1818TIP3    H126869   4.329   5.763  15.219  0.6480 -0.3934  1.2172
 1818TIP3    H226870   4.352   5.656  15.324 -2.1370 -0.7793  1.4996
 1819TIP3   OH226871   0.710   0.807  12.767 -0.2734 -0.7387 -0.3459
 1819TIP3    H126872   0.666   0.875  12.715  0.9048  1.3063  1.1625
 1819TIP3    H226873   0.754   0.856  12.837 -0.7729 -3.2285  1.8596
 1820TIP3   OH226874   4.019   4.794  16.438 -0.4842 -0.6315  0.0637
 1820TIP3    H126875   4.015   4.886  16.467  0.8709 -0.9476  1.3728
 1820TIP3    H226876   3.985   4.796  16.349 -1.9306  0.9041  0.5762
 1821TIP3   OH226877   3.306   6.304  16.546 -0.0771 -0.3696 -0.3208
 1821TIP3    H126878   3.336   6.298  16.455  0.3751  0.8950 -0.2831
 1821TIP3    H226879   3.381   6.274  16.597  0.1752  0.2097 -0.3334
 1822TIP3   OH226880   5.671   1.588   3.550 -0.4745 -0.1120 -0.1740
 1822TIP3    H126881   5.577   1.606   3.551 -0.3788  0.4884 -1.1393
 1822TIP3    H226882   5.692   1.568   3.642 -1.2682  1.2242  0.3271
 1823TIP3   OH226883   0.238   2.251  11.699  0.8006  0.3623  0.0362
 1823TIP3    H126884   0.258   2.334  11.741  0.7628  0.2767  0.2290
 1823TIP3    H226885   0.257   2.185  11.766  1.1802  0.1912 -0.2384
 1824TIP3   OH226886   4.032   4.355  14.663 -0.2012  0.8042 -0.2338
 1824TIP3    H126887   4.014   4.275  14.712  0.0942  1.3632  0.8424
 1824TIP3    H226888   4.091   4.329  14.593 -0.1287  0.0795  0.0928
 1825TIP3   OH226889   5.788   1.761  16.217 -0.0040  0.0541 -0.2626
 1825TIP3    H126890   5.825   1.721  16.139  1.5657  0.8685  0.0163
 1825TIP3    H226891   5.694   1.761  16.202  0.2741  0.3790 -2.2588
 1826TIP3   OH226892   4.008   5.009   0.017  0.7565  0.8510  0.1974
 1826TIP3    H126893   3.983   4.918   0.033 -0.1322  0.5116 -2.5171
 1826TIP3    H226894   3.955   5.060   0.079 -0.5938 -0.3677  0.1013
 1827TIP3   OH226895   6.513   6.133   1.980 -0.2260  0.1213  0.0270
 1827TIP3    H126896   6.476   6.220   1.968 -2.2212 -0.6333  0.3084
 1827TIP3    H226897   6.482   6.084   1.903 -0.8162 -0.8418  0.8558
 1828TIP3   OH226898   5.069   1.805   6.869  0.2336  0.4102 -0.2607
 1828TIP3    H126899   5.120   1.740   6.820  0.2261  0.7843 -0.7759
 1828TIP3    H226900   5.016   1.849   6.802 -1.8229 -0.8962  0.4116
 1829TIP3   OH226901   1.470   5.136   2.088 -0.3174 -0.4217 -0.3005
 1829TIP3    H126902   1.540   5.074   2.107  1.1829  1.1448 -0.4748
 1829TIP3    H226903   1.405   5.120   2.156 -0.3936 -2.6992 -0.8140
 1830TIP3   OH226904   5.031   5.706  10.479  0.1758  0.2013  0.3193
 1830TIP3    H126905   5.124   5.703  10.456 -0.2580 -2.4683 -1.6550
 1830TIP3    H226906   5.003   5.793  10.453  2.2045  1.3026  1.5419
 1831TIP3   OH226907   6.013   2.699  14.626 -0.2561 -0.0905  0.2401
 1831TIP3    H126908   5.947   2.768  14.617 -0.1243  0.0628  0.4422
 1831TIP3    H226909   5.991   2.636  14.557 -1.0009 -0.3544  0.7115
 1832TIP3   OH226910   5.883   0.157  14.967  0.4925  0.2176 -0.7163
 1832TIP3    H126911   5.901   0.089  15.031 -0.9602 -0.1930 -0.7141
 1832TIP3    H226912   5.914   0.122  14.884  3.2019  1.1014 -0.1816
 1833TIP3   OH226913   1.001   6.454  11.969  0.3454  0.3128  0.1501
 1833TIP3    H126914   1.045   6.430  12.051 -0.2787 -0.8462  0.1746
 1833TIP3    H226915   1.066   6.503  11.920  0.7393  1.0060  1.3263
 1834TIP3   OH226916   1.148   3.870  13.193 -0.2601  0.1726  0.4108
 1834TIP3    H126917   1.212   3.826  13.249  0.8030 -0.0118 -0.8975
 1834TIP3    H226918   1.181   3.856  13.104 -2.4784 -0.5070 -0.3615
 1835TIP3   OH226919   5.849   2.275  12.070  0.0438 -0.2657  0.0004
 1835TIP3    H126920   5.801   2.334  12.012  0.2535  0.2033  0.2984
 1835TIP3    H226921   5.841   2.315  12.157  0.3484 -0.5771  0.1730
 1836TIP3   OH226922   3.571   2.273  16.015 -0.1805  0.7059 -0.0016
 1836TIP3    H126923   3.644   2.266  15.954 -1.1938 -1.3640 -1.1186
 1836TIP3    H226924   3.607   2.243  16.099  0.5825  1.0301 -0.2051
 1837TIP3   OH226925   5.130   5.325   5.157 -0.2168  0.2040  0.1064
 1837TIP3    H126926   5.155   5.325   5.250  1.4046  2.1694 -0.2652
 1837TIP3    H226927   5.053   5.382   5.153 -1.0921 -0.9235  0.3906
 1838TIP3   OH226928   4.798   1.212   5.942 -0.1753  0.0983 -0.4127
 1838TIP3    H126929   4.878   1.257   5.966 -0.6295  0.2762  0.8705
 1838TIP3    H226930   4.818   1.119   5.953 -0.2215  0.1559  0.1818
 1839TIP3   OH226931   1.588   4.190  12.635  0.2676  0.5696  0.1795
 1839TIP3    H126932   1.564   4.229  12.720  2.2274  0.9845  0.5981
 1839TIP3    H226933   1.614   4.101  12.656  1.0053  0.7540  0.0554
 1840TIP3   OH226934   0.857   5.468   5.033 -0.6899  0.7309 -0.2049
 1840TIP3    H126935   0.949   5.480   5.058 -1.1748  0.8799  1.6254
 1840TIP3    H226936   0.859   5.466   4.937  1.1131  1.5820 -0.2297
 1841TIP3   OH226937   1.869   5.300  11.784  0.3391 -0.3121 -0.7939
 1841TIP3    H126938   1.946   5.261  11.743  0.7001 -1.1812  0.6542
 1841TIP3    H226939   1.905   5.370  11.839 -0.1705  1.0815 -2.1813
 1842TIP3   OH226940   6.546   6.185   2.718 -0.3825  0.3953  0.0497
 1842TIP3    H126941   6.567   6.201   2.626 -1.5180 -1.1879 -0.5244
 1842TIP3    H226942   6.595   6.107   2.741 -0.6036  0.4112  0.5844
 1843TIP3   OH226943   1.268   1.803  12.135 -0.8017 -0.3267 -0.3824
 1843TIP3    H126944   1.361   1.783  12.122 -0.6202 -0.1406  0.5707
 1843TIP3    H226945   1.268   1.879  12.192 -1.5295  0.6502 -1.6290
 1844TIP3   OH226946   4.626   5.562   6.826 -0.4303 -0.1525 -0.1030
 1844TIP3    H126947   4.668   5.509   6.894 -1.2057 -1.7335 -0.8046
 1844TIP3    H226948   4.698   5.614   6.789  0.0919  0.3607  1.5348
 1845TIP3   OH226949   1.410   6.407  14.894  0.1485 -0.0544 -0.2200
 1845TIP3    H126950   1.398   6.491  14.850 -0.4668 -0.9428 -1.8333
 1845TIP3    H226951   1.502   6.385  14.881  0.1679  0.0871 -0.3114
 1846TIP3   OH226952   3.468   1.216  15.206  0.5474 -0.4704 -0.1582
 1846TIP3    H126953   3.473   1.301  15.249  0.5623  0.2061 -1.4567
 1846TIP3    H226954   3.544   1.168  15.238  0.2492 -0.2038  0.9912
 1847TIP3   OH226955   3.147   2.385   4.000 -0.0986 -0.4404 -0.5678
 1847TIP3    H126956   3.116   2.384   4.091 -2.3292  2.8587 -1.1076
 1847TIP3    H226957   3.228   2.436   4.003  0.2619 -1.0158 -0.3588
 1848TIP3   OH226958   1.860   5.591   4.145 -0.0516  0.0262 -0.0042
 1848TIP3    H126959   1.906   5.508   4.135 -1.5043 -0.7389 -0.5981
 1848TIP3    H226960   1.880   5.619   4.235  0.6564 -0.8171  0.1137
 1849TIP3   OH226961   3.251   2.147   2.496  0.4078  0.3394  0.3264
 1849TIP3    H126962   3.283   2.128   2.408  2.4756  0.7568  0.9324
 1849TIP3    H226963   3.224   2.238   2.492 -0.0575  0.1896 -0.0191
 1850TIP3   OH226964   4.226   4.432   5.729  0.2404  0.2477  0.1325
 1850TIP3    H126965   4.144   4.384   5.733  1.1632 -1.3621  0.7108
 1850TIP3    H226966   4.227   4.486   5.809 -0.7646  1.2006 -0.4796
 1851TIP3   OH226967   2.526   5.448  13.760 -0.4330  0.9136 -0.1089
 1851TIP3    H126968   2.536   5.362  13.720 -0.8013  1.4791 -1.5223
 1851TIP3    H226969   2.529   5.432  13.854  0.2695 -0.5307 -0.3459
 1852TIP3   OH226970   2.231   5.377   0.285 -0.5124  0.6591 -0.0644
 1852TIP3    H126971   2.259   5.412   0.200 -0.7907 -2.3570 -1.5296
 1852TIP3    H226972   2.138   5.357   0.272 -0.8796  1.2920  1.4116
 1853TIP3   OH226973   2.019   1.430   4.502  0.0733 -0.2370 -0.1143
 1853TIP3    H126974   2.056   1.366   4.562  1.3065  0.6258  0.0785
 1853TIP3    H226975   1.925   1.432   4.524  0.8189  2.0357  3.7970
 1854TIP3   OH226976   5.218   1.416  13.528  0.2601  0.6398  0.0455
 1854TIP3    H126977   5.192   1.433  13.619  1.0283  2.7489 -0.0849
 1854TIP3    H226978   5.139   1.380  13.488 -0.0129 -0.5960  1.5868
 1855TIP3   OH226979   3.330   4.137  15.490  0.2268  0.4113  0.0641
 1855TIP3    H126980   3.406   4.137  15.548  0.2416 -0.1209  0.0546
 1855TIP3    H226981   3.362   4.094  15.410  0.2180  1.1658 -0.3553
 1856TIP3   OH226982   6.284   5.620   4.282 -0.2873 -0.1368 -0.0158
 1856TIP3    H126983   6.274   5.686   4.350 -0.9059 -0.9884  0.7484
 1856TIP3    H226984   6.204   5.567   4.288 -0.4978 -0.0653 -1.5986
 1857TIP3   OH226985   4.839   4.272  15.025  0.7300  0.1187  0.1033
 1857TIP3    H126986   4.823   4.266  14.931 -0.7570  1.2184  0.2406
 1857TIP3    H226987   4.849   4.182  15.054  2.2929 -0.1997 -1.2480
 1858TIP3   OH226988   6.145   6.366   4.045 -0.1461  0.0830 -0.9398
 1858TIP3    H126989   6.084   6.292   4.039  0.9696 -0.8072 -1.6589
 1858TIP3    H226990   6.231   6.326   4.057  0.2581  1.3427  0.6464
 1859TIP3   OH226991   4.433   2.520  15.583  0.3048 -0.2059 -0.0916
 1859TIP3    H126992   4.509   2.577  15.585  0.1861  0.0692 -1.8612
 1859TIP3    H226993   4.379   2.548  15.658  1.4006  0.3132  0.5199
 1860TIP3   OH226994   4.453   5.555  16.377 -0.2034  0.0746 -0.1041
 1860TIP3    H126995   4.474   5.491  16.309 -1.9158  1.2851 -1.9064
 1860TIP3    H226996   4.503   5.633  16.352 -1.9102  0.9863 -0.8989
 1861TIP3   OH226997   6.167   1.515  16.267  0.1488 -0.0600  0.1587
 1861TIP3    H126998   6.222   1.592  16.255 -1.4318  1.3474  1.3205
 1861TIP3    H226999   6.126   1.528  16.353 -2.9259 -0.3549 -1.1190
 1862TIP3   OH227000   0.710   5.110  14.993 -0.0497  0.1114  0.7241
 1862TIP3    H127001   0.652   5.167  14.942 -1.4207 -0.9567  1.0201
 1862TIP3    H227002   0.775   5.079  14.930 -2.8677 -2.8323 -1.0752
 1863TIP3   OH227003   5.886   5.445  11.269 -0.0767 -0.3076 -0.4947
 1863TIP3    H127004   5.814   5.485  11.319 -1.4626 -0.9061 -1.9516
 1863TIP3    H227005   5.902   5.506  11.198  0.2943 -0.5949 -0.6588
 1864TIP3   OH227006   2.063   3.128  15.313 -0.0813  0.0904  0.5044
 1864TIP3    H127007   2.154   3.160  15.312 -0.5931  1.8209 -2.1600
 1864TIP3    H227008   2.054   3.082  15.230 -1.9285  0.9224  0.2089
 1865TIP3   OH227009   1.368   0.012  12.359 -0.2493  0.6864  0.6392
 1865TIP3    H127010   1.295   0.000  12.420 -0.7725  2.4270  0.3979
 1865TIP3    H227011   1.413   0.091  12.390 -0.5796  1.6680 -1.2302
 1866TIP3   OH227012   3.435   2.475  15.902 -0.6165 -0.1705 -0.4668
 1866TIP3    H127013   3.480   2.398  15.936  4.7295  1.0582 -3.6199
 1866TIP3    H227014   3.386   2.443  15.826  3.2307 -0.5675 -3.0514
 1867TIP3   OH227015   4.515   5.615   3.293 -0.1633 -0.5300  0.1709
 1867TIP3    H127016   4.479   5.567   3.368  0.2954 -1.1862 -0.0201
 1867TIP3    H227017   4.516   5.551   3.222 -0.5835  0.0820 -0.4013
 1868TIP3   OH227018   2.593   2.972  17.224 -0.3566  0.3922  0.2204
 1868TIP3    H127019   2.630   2.884  17.225  0.3166  0.6707  0.4610
 1868TIP3    H227020   2.652   3.021  17.167  0.0282  1.0021  1.1208
 1869TIP3   OH227021   2.689   2.411  12.828 -0.1612 -0.3166  0.3167
 1869TIP3    H127022   2.751   2.463  12.777 -1.6831 -0.4656 -1.7922
 1869TIP3    H227023   2.733   2.326  12.838  0.1565 -0.3038 -0.8171
 1870TIP3   OH227024   6.114   5.495  15.319  0.2555  0.7771 -0.1171
 1870TIP3    H127025   6.127   5.495  15.224 -0.8520  1.4384 -0.2821
 1870TIP3    H227026   6.133   5.404  15.345  0.4400  0.5524 -0.9771
 1871TIP3   OH227027   0.999   0.826   1.522 -0.2358 -0.4621 -0.5286
 1871TIP3    H127028   1.004   0.915   1.557 -3.4648  1.1825 -3.6662
 1871TIP3    H227029   0.935   0.782   1.578 -0.4035 -0.0638 -0.4070
 1872TIP3   OH227030   6.240   1.748  13.840 -0.5194 -0.2080 -0.0670
 1872TIP3    H127031   6.303   1.773  13.908 -0.2008 -0.0383 -0.4248
 1872TIP3    H227032   6.221   1.656  13.858 -1.0998  0.0588  0.7783
 1873TIP3   OH227033   3.469   3.794  12.393  0.2712 -0.1445 -0.0176
 1873TIP3    H127034   3.444   3.885  12.381  1.2429  0.2332  0.7552
 1873TIP3    H227035   3.514   3.770  12.312  3.4965  1.2735  1.1962
 1874TIP3   OH227036   3.190   5.750  13.147 -0.1674 -0.1864 -0.0535
 1874TIP3    H127037   3.172   5.656  13.144 -0.4655 -0.1116 -0.8393
 1874TIP3    H227038   3.122   5.786  13.204 -1.8925 -0.0685 -2.0690
 1875TIP3   OH227039   4.067   6.155  15.774  0.2752  0.0522  0.0109
 1875TIP3    H127040   4.044   6.066  15.802  0.5562 -0.4885 -1.3864
 1875TIP3    H227041   4.139   6.180  15.832  1.3988 -1.3548 -0.7195
 1876TIP3   OH227042   1.365   2.001  13.531  0.3365  0.1604 -0.0229
 1876TIP3    H127043   1.281   1.959  13.552 -0.5916  1.1246 -1.5763
 1876TIP3    H227044   1.366   2.080  13.585 -0.8238  1.2707 -1.5092
 1877TIP3   OH227045   3.681   4.286  13.239 -0.3030  0.0475  0.4675
 1877TIP3    H127046   3.626   4.305  13.163  1.5570 -1.5973 -1.4177
 1877TIP3    H227047   3.627   4.230  13.294 -1.2233  0.1475 -0.3043
 1878TIP3   OH227048   3.657   0.504  12.004  0.0137  0.1919  0.5955
 1878TIP3    H127049   3.614   0.423  11.976 -2.0836  1.6410 -0.6155
 1878TIP3    H227050   3.604   0.537  12.076  0.7515  0.5876  0.9723
 1879TIP3   OH227051   3.729   5.729   0.818 -0.5709 -0.0809  0.5282
 1879TIP3    H127052   3.770   5.791   0.758 -0.1331  1.2594  2.1389
 1879TIP3    H227053   3.798   5.667   0.839  0.4281  1.5421  2.3824
 1880TIP3   OH227054   6.292   1.835  15.311 -0.0676  0.2578  0.1280
 1880TIP3    H127055   6.342   1.820  15.391  0.2243 -0.1468 -0.1268
 1880TIP3    H227056   6.320   1.921  15.281  0.3315  0.1200  0.0955
 1881TIP3   OH227057   2.756   3.043   4.918  0.4287 -0.3142 -0.2287
 1881TIP3    H127058   2.788   3.081   4.836 -0.5243  1.0595 -0.0013
 1881TIP3    H227059   2.833   3.037   4.974  0.7722  0.4478 -0.6034
 1882TIP3   OH227060   2.819   2.585  10.998 -0.5011 -0.1104  0.6247
 1882TIP3    H127061   2.847   2.656  11.056 -1.8524  0.9766 -0.0152
 1882TIP3    H227062   2.893   2.524  10.998 -0.6046 -0.3778  3.8069
 1883TIP3   OH227063   2.195   2.582   0.550  0.2289 -0.5661 -0.1293
 1883TIP3    H127064   2.220   2.489   0.558  0.2718 -0.6444 -1.1118
 1883TIP3    H227065   2.275   2.629   0.573  0.5062 -0.7890 -0.6190
 1884TIP3   OH227066   0.200   1.888   0.920  0.0892  0.5521 -0.6498
 1884TIP3    H127067   0.186   1.982   0.925  0.7847  0.7588 -2.1369
 1884TIP3    H227068   0.116   1.852   0.893  0.2257  0.9193 -1.5880
 1885TIP3   OH227069   2.425   3.314  11.921 -0.3935 -0.1322 -0.3926
 1885TIP3    H127070   2.512   3.349  11.904 -0.8283  1.1143 -0.1310
 1885TIP3    H227071   2.396   3.359  12.001 -1.3539 -0.3806 -0.5861
 1886TIP3   OH227072   6.735   5.571   2.792 -0.1289 -0.2500  0.1455
 1886TIP3    H127073   6.673   5.621   2.739  0.3343 -1.5122 -1.6708
 1886TIP3    H227074   6.768   5.634   2.856 -0.1727  1.5733 -1.5297
 1887TIP3   OH227075   3.448   0.790   4.170 -0.4984 -0.5310 -0.0108
 1887TIP3    H127076   3.454   0.762   4.078  0.1457 -0.6211  0.0563
 1887TIP3    H227077   3.363   0.833   4.176  0.3940  1.5285 -1.2284
 1888TIP3   OH227078   3.856   4.261  16.576  0.0256 -0.2776  0.1776
 1888TIP3    H127079   3.787   4.327  16.575 -1.2008 -1.5125 -0.6457
 1888TIP3    H227080   3.817   4.185  16.620  1.7475 -0.1500  2.0598
 1889TIP3   OH227081   0.833   0.489  15.436  0.1228  0.0114 -0.3900
 1889TIP3    H127082   0.764   0.482  15.501 -0.4178 -0.5704 -1.0182
 1889TIP3    H227083   0.848   0.399  15.406  1.6415  0.0150  0.2305
 1890TIP3   OH227084   6.636   0.599   5.721 -0.2693  0.0385 -0.5956
 1890TIP3    H127085   6.641   0.559   5.808  2.2193 -0.6265 -0.9717
 1890TIP3    H227086   6.551   0.571   5.686  0.3649 -3.0239  0.0698
 1891TIP3   OH227087   2.151   0.627  10.589 -0.4269  0.2810 -0.1613
 1891TIP3    H127088   2.219   0.677  10.544 -0.1787 -0.8456 -1.0815
 1891TIP3    H227089   2.069   0.659  10.552 -0.3782  1.1539  0.4512
 1892TIP3   OH227090   5.625   1.069  12.192  0.4271  0.1412 -0.1890
 1892TIP3    H127091   5.658   1.156  12.170  0.7670  0.3193  0.9945
 1892TIP3    H227092   5.600   1.075  12.284  0.2581 -0.9576 -0.1484
 1893TIP3   OH227093   3.682   4.596  16.048 -0.2482 -0.6527  0.6177
 1893TIP3    H127094   3.595   4.583  16.086 -0.7416  0.8461  0.0469
 1893TIP3    H227095   3.671   4.571  15.956 -0.5734  1.2412  0.1065
 1894TIP3   OH227096   2.603   2.359  16.749  0.0792  0.2729 -0.4097
 1894TIP3    H127097   2.619   2.422  16.819 -2.0691 -0.0503  0.4653
 1894TIP3    H227098   2.672   2.294  16.757  0.0594  0.4248  1.2182
 1895TIP3   OH227099   4.357   4.803   1.898  0.4148 -0.0385 -0.2123
 1895TIP3    H127100   4.401   4.738   1.844  0.6365  0.6037 -0.8157
 1895TIP3    H227101   4.266   4.802   1.866  0.2345 -0.5861  0.2963
 1896TIP3   OH227102   2.554   4.388  12.807  0.2911  0.0976  0.4866
 1896TIP3    H127103   2.596   4.472  12.787 -0.1822  0.0478 -0.8195
 1896TIP3    H227104   2.618   4.341  12.860  1.0706  0.8017  0.1866
 1897TIP3   OH227105   1.444   3.561   1.120  0.0598  0.0376 -0.5425
 1897TIP3    H127106   1.401   3.519   1.194  0.2402 -0.3444 -0.6557
 1897TIP3    H227107   1.503   3.495   1.085  0.4670  0.4352 -0.6205
 1898TIP3   OH227108   2.347   6.222  14.143  0.2051  0.6491  0.5201
 1898TIP3    H127109   2.389   6.209  14.058 -1.4333  0.1137 -0.2352
 1898TIP3    H227110   2.411   6.273  14.194  1.5308  0.3136 -0.7492
 1899TIP3   OH227111   0.664   0.369   0.979 -0.2854 -0.1632  0.0984
 1899TIP3    H127112   0.587   0.381   1.034 -1.0681  0.1841 -1.0468
 1899TIP3    H227113   0.699   0.457   0.966 -1.5325  0.1127 -1.9184
 1900TIP3   OH227114   3.477   2.525   3.745  0.0561 -1.1720  0.1740
 1900TIP3    H127115   3.468   2.468   3.821 -0.1947 -2.0959 -0.5237
 1900TIP3    H227116   3.538   2.593   3.772 -0.7568 -0.9495  1.4998
 1901TIP3   OH227117   6.738   1.916   6.267  0.7556 -0.1449  0.2197
 1901TIP3    H127118   6.667   1.944   6.325  0.7916 -0.4428  0.4122
 1901TIP3    H227119   6.814   1.966   6.296  0.7896 -0.3410  0.4782
 1902TIP3   OH227120   1.811   0.532   3.363  0.2121 -0.1502 -0.5796
 1902TIP3    H127121   1.845   0.443   3.374  1.0207 -0.0755 -2.1660
 1902TIP3    H227122   1.763   0.530   3.280 -1.1559  0.5103  0.1559
 1903TIP3   OH227123   0.285   5.565   5.095 -0.1253  0.2752  0.2678
 1903TIP3    H127124   0.252   5.475   5.097 -0.3174  0.3445  0.2929
 1903TIP3    H227125   0.210   5.617   5.067 -0.2303  0.5161  0.9757
 1904TIP3   OH227126   2.213   6.586  11.680 -0.7473  0.8086  0.0865
 1904TIP3    H127127   2.176   6.650  11.619 -2.9304  0.2196  0.7133
 1904TIP3    H227128   2.141   6.566  11.740  0.1103 -1.6686  0.3784
 1905TIP3   OH227129   1.577   0.649   0.331 -0.2704 -0.0033 -0.1044
 1905TIP3    H127130   1.502   0.693   0.371 -0.5662 -0.8408  0.2838
 1905TIP3    H227131   1.541   0.568   0.296  0.5562 -0.6829  0.5731
 1906TIP3   OH227132   0.750   4.481   4.656 -0.1563 -0.0990 -0.0543
 1906TIP3    H127133   0.707   4.494   4.741  0.6767  0.9731  0.2347
 1906TIP3    H227134   0.810   4.408   4.671  0.1311  0.2135  0.3412
 1907TIP3   OH227135   5.029   1.300   4.206 -0.3525  0.1689  0.2956
 1907TIP3    H127136   5.089   1.270   4.274  0.2411 -0.4186 -0.4539
 1907TIP3    H227137   4.978   1.369   4.247  1.2016  1.0586  0.8171
 1908TIP3   OH227138   3.450   2.733   1.024  0.5457 -0.5509  0.6503
 1908TIP3    H127139   3.413   2.817   0.998  1.5734 -0.6018 -1.1343
 1908TIP3    H227140   3.384   2.668   0.997 -0.2560 -0.3405  2.0476
 1909TIP3   OH227141   0.257   4.002   3.980 -0.2360 -0.4344  0.4575
 1909TIP3    H127142   0.203   4.014   3.902  0.1111  1.0134  0.4136
 1909TIP3    H227143   0.257   4.087   4.023  0.3166 -0.9669  1.5733
 1910TIP3   OH227144   6.155   4.515   2.960  0.1388  0.1921 -0.3947
 1910TIP3    H127145   6.175   4.598   2.916 -2.2457  0.2271 -1.5630
 1910TIP3    H227146   6.096   4.539   3.031 -0.6266 -0.4954 -0.7856
 1911TIP3   OH227147   4.231   0.448  13.331  0.3549  0.1020  0.0954
 1911TIP3    H127148   4.248   0.378  13.395  1.7613  0.0975 -0.2537
 1911TIP3    H227149   4.254   0.529  13.378  1.8374  0.0692 -0.4962
 1912TIP3   OH227150   0.055   6.689   5.227  0.4686  0.5071  0.1792
 1912TIP3    H127151   0.033   6.596   5.234 -0.9699  0.8798  0.8978
 1912TIP3    H227152   0.144   6.690   5.191 -0.1864 -1.1214 -1.6802
 1913TIP3   OH227153   2.616   0.242   2.465  0.1077 -0.2591  0.2468
 1913TIP3    H127154   2.545   0.304   2.446  0.6283  0.1314 -0.4896
 1913TIP3    H227155   2.594   0.164   2.414 -0.2793 -0.5063  0.7730
 1914TIP3   OH227156   2.045   2.811   3.186 -0.1185  0.1823  0.4281
 1914TIP3    H127157   2.096   2.808   3.105  1.9040 -0.0788  1.6520
 1914TIP3    H227158   1.975   2.748   3.172  0.0568  0.2846 -1.1755
 1915TIP3   OH227159   1.667   5.547   3.356 -0.5539  0.7053 -0.4981
 1915TIP3    H127160   1.613   5.508   3.425 -0.7942  1.4538 -0.2484
 1915TIP3    H227161   1.718   5.474   3.321 -0.6341  0.2619  0.2803
 1916TIP3   OH227162   2.075   3.317   5.844  0.4394 -0.5525 -0.6215
 1916TIP3    H127163   2.077   3.326   5.749  2.1881 -2.6692 -0.8571
 1916TIP3    H227164   2.016   3.243   5.860 -1.8232  1.3179  0.1774
 1917TIP3   OH227165   0.555   1.498   3.568  0.1727 -0.2167 -0.0867
 1917TIP3    H127166   0.611   1.480   3.492  0.0543  2.1635 -0.8241
 1917TIP3    H227167   0.611   1.549   3.627  0.0232 -1.3910  1.0905
 1918TIP3   OH227168   5.342   0.703  14.585  0.1416  0.6932  0.2018
 1918TIP3    H127169   5.307   0.779  14.631 -1.4802 -0.0448  0.2479
 1918TIP3    H227170   5.272   0.638  14.588  1.4362 -0.7723  0.0552
 1919TIP3   OH227171   3.237   1.920   3.239 -0.1803  0.0440 -0.4827
 1919TIP3    H127172   3.272   1.868   3.167 -0.4197 -0.3796 -0.3011
 1919TIP3    H227173   3.314   1.957   3.282  0.1771 -1.8499  0.6369
 1920TIP3   OH227174   1.177   0.568  15.474  0.2607  0.0354  0.4649
 1920TIP3    H127175   1.203   0.484  15.437 -0.7515  0.7223 -2.0751
 1920TIP3    H227176   1.214   0.633  15.414 -2.1019  1.2211  0.1567
 1921TIP3   OH227177   4.283   0.856   0.221 -0.1387 -0.0993  0.3599
 1921TIP3    H127178   4.225   0.913   0.272 -1.0891 -1.8899  1.3635
 1921TIP3    H227179   4.243   0.853   0.134 -1.2884 -0.8748  0.8910
 1922TIP3   OH227180   6.039   4.302  11.482  0.1670  0.2811  0.7889
 1922TIP3    H127181   6.065   4.321  11.572  2.9362 -0.2443  0.1847
 1922TIP3    H227182   6.121   4.301  11.433 -1.1173 -0.8690 -1.4874
 1923TIP3   OH227183   0.694   2.571  17.258  0.1440  0.4440  0.4261
 1923TIP3    H127184   0.695   2.522  17.340 -0.4061  1.8322  1.3069
 1923TIP3    H227185   0.601   2.577  17.235  0.4001 -1.7684 -1.4899
 1924TIP3   OH227186   5.457   6.308   4.348  0.1415 -0.3572 -0.2272
 1924TIP3    H127187   5.391   6.376   4.357  0.1242 -0.4970  0.8115
 1924TIP3    H227188   5.477   6.306   4.254 -0.8084  0.1628 -0.4493
 1925TIP3   OH227189   2.104   1.099   0.725  0.1969 -0.1281  0.1018
 1925TIP3    H127190   2.050   1.021   0.709  0.4739 -0.0360 -1.4408
 1925TIP3    H227191   2.160   1.105   0.647  0.7466  1.1524  0.5801
 1926TIP3   OH227192   3.272   0.682  16.774  0.1947  0.4655  0.2883
 1926TIP3    H127193   3.267   0.778  16.776 -1.0069  0.4014  1.1341
 1926TIP3    H227194   3.216   0.657  16.701  3.3528  0.4895 -2.4313
 1927TIP3   OH227195   1.232   6.213   0.720  0.7652 -0.0574 -0.1592
 1927TIP3    H127196   1.156   6.156   0.714  0.5651  0.0686  0.9199
 1927TIP3    H227197   1.195   6.300   0.735  1.0237  0.5674 -2.6428
 1928TIP3   OH227198   1.988   5.386   3.762 -0.2745 -0.9153  0.6726
 1928TIP3    H127199   2.073   5.374   3.720 -1.3281 -1.4368 -1.4529
 1928TIP3    H227200   1.962   5.299   3.790 -0.9223 -1.1097 -0.4472
 1929TIP3   OH227201   0.047   1.765   2.697 -0.0733 -0.1640 -0.1935
 1929TIP3    H127202   0.009   1.834   2.643  1.2869  0.3051 -0.6071
 1929TIP3    H227203  -0.028   1.718   2.733 -1.0540  1.6883  0.3084
 1930TIP3   OH227204   6.021   0.382  14.395 -0.1442 -0.6164 -0.4096
 1930TIP3    H127205   5.977   0.412  14.475  0.0905 -0.3070 -0.3950
 1930TIP3    H227206   6.012   0.455  14.334  0.9870 -0.2547 -0.1616
 1931TIP3   OH227207   0.566   5.937   2.673  0.5273  0.0924 -0.9298
 1931TIP3    H127208   0.590   5.850   2.641 -0.1951 -0.6482  0.4691
 1931TIP3    H227209   0.554   5.925   2.767 -2.3955  1.0437 -1.0940
 1932TIP3   OH227210   3.141   3.522   3.437  1.0384  0.0158 -0.1416
 1932TIP3    H127211   3.225   3.490   3.469  0.5280  0.3922  1.7194
 1932TIP3    H227212   3.101   3.562   3.514 -0.3483  0.8800 -1.2753
 1933TIP3   OH227213   1.645   5.902   1.763 -0.4329 -0.4206  0.1256
 1933TIP3    H127214   1.654   5.916   1.668 -0.4293  1.5431  0.3768
 1933TIP3    H227215   1.553   5.918   1.781 -0.2163  0.3610  0.5996
 1934TIP3   OH227216   3.902   1.073  12.535  0.1359 -0.3024 -0.0472
 1934TIP3    H127217   3.970   1.136  12.559  0.6146 -0.5842 -0.6360
 1934TIP3    H227218   3.915   0.999  12.595  1.3544 -1.0216 -1.1326
 1935TIP3   OH227219   0.686   2.424   0.414 -0.1340  0.0638  0.4914
 1935TIP3    H127220   0.601   2.420   0.370 -0.1288  0.7523  0.3995
 1935TIP3    H227221   0.691   2.343   0.464  0.2814 -1.2221 -1.5386
 1936TIP3   OH227222   4.578   0.402   2.384 -0.0020  0.1289 -0.0912
 1936TIP3    H127223   4.563   0.487   2.343 -0.1136 -0.3272 -1.0252
 1936TIP3    H227224   4.607   0.346   2.312 -2.6998 -1.3936 -0.1307
 1937TIP3   OH227225   1.293   1.559   3.166  0.7074 -0.0405 -0.2711
 1937TIP3    H127226   1.312   1.601   3.249  1.6529  0.4013 -0.6966
 1937TIP3    H227227   1.224   1.496   3.186  1.3063 -0.3320  0.9509
 1938TIP3   OH227228   2.019   0.824  15.987  0.2019 -0.1940  0.3883
 1938TIP3    H127229   2.013   0.882  16.063  0.8587 -0.4938  0.6759
 1938TIP3    H227230   1.943   0.847  15.933  1.1968  1.9438 -0.2137
 1939TIP3   OH227231   5.115   2.022   3.422  0.3877  0.3329  0.2523
 1939TIP3    H127232   5.035   1.973   3.403  0.6671  0.5091 -1.4854
 1939TIP3    H227233   5.084   2.112   3.437  0.3178  0.5834 -1.2787
 1940TIP3   OH227234   3.878   0.944   2.785 -0.6925  0.0361 -0.3155
 1940TIP3    H127235   3.787   0.954   2.756  0.4185  1.5427 -3.8244
 1940TIP3    H227236   3.909   0.866   2.740  0.3622  0.9044 -1.1651
 1941TIP3   OH227237   2.712   5.520  13.112 -0.1936 -0.0681  0.0529
 1941TIP3    H127238   2.676   5.603  13.144  0.1418  0.1258 -0.0661
 1941TIP3    H227239   2.721   5.533  13.017  0.1354 -0.1362  0.0742
 1942TIP3   OH227240   3.453   2.994   4.653 -0.2432 -0.1912  0.1575
 1942TIP3    H127241   3.473   3.079   4.693  0.2357 -1.3847  2.5972
 1942TIP3    H227242   3.395   2.951   4.716  1.0105 -2.4044 -0.1261
 1943TIP3   OH227243   4.507   3.874  16.417 -0.0290  0.4311 -0.0562
 1943TIP3    H127244   4.452   3.912  16.486 -0.2941 -0.1689  0.0803
 1943TIP3    H227245   4.560   3.808  16.463  0.3445  0.5612 -0.2990
 1944TIP3   OH227246   3.513   1.505  15.267  0.1976 -0.3560 -0.3250
 1944TIP3    H127247   3.587   1.537  15.215  0.2615 -1.2452 -0.8046
 1944TIP3    H227248   3.539   1.520  15.358  1.2539 -1.2444 -0.4604
 1945TIP3   OH227249   6.072   2.814  17.472 -0.5974 -0.6700  0.0306
 1945TIP3    H127250   6.123   2.754  17.418 -1.8828 -0.7568 -1.1349
 1945TIP3    H227251   6.057   2.890  17.415 -0.4107  0.0489  0.9147
 1946TIP3   OH227252   1.826   3.730  17.007  0.1287  0.1859 -0.0868
 1946TIP3    H127253   1.892   3.754  17.072 -0.5242  0.9035  0.3377
 1946TIP3    H227254   1.870   3.739  16.923  0.1317  2.3458  0.0739
 1947TIP3   OH227255   0.663   1.961   2.681 -0.2081  0.7967  0.4457
 1947TIP3    H127256   0.647   1.867   2.691 -0.0298  0.5164 -1.5855
 1947TIP3    H227257   0.758   1.969   2.673 -0.0885  1.3412  2.0852
 1948TIP3   OH227258   1.137   2.225  15.273  0.1561 -0.6744  0.1741
 1948TIP3    H127259   1.064   2.217  15.334 -1.0186  1.4148 -0.8498
 1948TIP3    H227260   1.215   2.224  15.329 -0.7743 -0.5009  1.5259
 1949TIP3   OH227261   6.458   5.879   0.488 -0.1709  0.0352 -0.4399
 1949TIP3    H127262   6.448   5.963   0.443 -0.1746 -0.5785 -1.6215
 1949TIP3    H227263   6.511   5.826   0.428  1.0423 -0.3466  0.9141
 1950TIP3   OH227264   3.907   0.560  13.089 -0.6177  0.0817 -0.4287
 1950TIP3    H127265   3.955   0.626  13.038 -1.3531  1.5564  0.6940
 1950TIP3    H227266   3.963   0.483  13.088  1.1182  1.2887 -0.3657
 1951TIP3   OH227267   1.669   3.206  15.194  0.6015  0.7387  0.4974
 1951TIP3    H127268   1.598   3.208  15.258 -0.5954 -0.9696 -0.6891
 1951TIP3    H227269   1.629   3.239  15.113  1.6993  1.5567  0.2769
 1952TIP3   OH227270   1.710   4.310   4.149  0.1766 -0.2346 -0.0371
 1952TIP3    H127271   1.645   4.377   4.171 -0.0062  0.0910 -1.4881
 1952TIP3    H227272   1.738   4.276   4.234  0.5761  1.9518  0.7869
 1953TIP3   OH227273   6.412   3.822  11.668 -0.0930 -0.2691 -0.0891
 1953TIP3    H127274   6.331   3.856  11.706 -0.3627 -0.0040 -0.8793
 1953TIP3    H227275   6.450   3.767  11.737 -0.8920 -0.3194  0.3224
 1954TIP3   OH227276   2.844   2.035   5.280  0.3075  0.8402 -0.1349
 1954TIP3    H127277   2.897   1.967   5.322  0.6951  1.1224 -0.1685
 1954TIP3    H227278   2.787   2.067   5.350 -0.5365 -0.1554 -0.3316
 1955TIP3   OH227279   6.651   0.265   1.374 -0.1484 -0.2309 -0.5039
 1955TIP3    H127280   6.561   0.237   1.360 -0.2269 -0.6592  0.7109
 1955TIP3    H227281   6.695   0.187   1.408  0.3808  0.3097  0.0703
 1956TIP3   OH227282   5.052   5.221   0.758 -0.2038  0.2829  0.2125
 1956TIP3    H127283   4.996   5.264   0.822  0.9495 -0.4025  1.7516
 1956TIP3    H227284   5.036   5.127   0.772  0.2452  0.1155 -0.3505
 1957TIP3   OH227285   4.053   3.287  12.930  0.1292 -0.0886 -0.1423
 1957TIP3    H127286   4.009   3.202  12.933  0.3420 -0.1590  1.3330
 1957TIP3    H227287   3.981   3.350  12.934  0.0211 -0.1903 -0.3967
 1958TIP3   OH227288   2.435   2.349   6.534 -0.7008 -0.3786  0.7600
 1958TIP3    H127289   2.388   2.278   6.490 -0.2796  0.1860 -0.6640
 1958TIP3    H227290   2.375   2.424   6.530 -0.3016 -0.0761  0.3124
 1959TIP3   OH227291   4.628   1.343   3.416  0.2852  0.0210 -0.2611
 1959TIP3    H127292   4.583   1.269   3.456  0.5766  0.3165  0.6329
 1959TIP3    H227293   4.558   1.395   3.377  0.0910 -0.8143 -1.0822
 1960TIP3   OH227294   3.479   6.099   3.897 -0.2789  0.0735  0.3518
 1960TIP3    H127295   3.398   6.053   3.919 -0.7243  0.2967 -0.7248
 1960TIP3    H227296   3.451   6.174   3.844  0.6325  0.0884 -0.1414
 1961TIP3   OH227297   4.349   1.528  17.140  0.8114 -0.3767  0.1379
 1961TIP3    H127298   4.397   1.464  17.088  0.4251  0.1787 -0.9481
 1961TIP3    H227299   4.278   1.557  17.082 -0.4651 -0.7204  1.4601
 1962TIP3   OH227300   3.005   5.390  16.040  0.1306  0.0314 -0.1196
 1962TIP3    H127301   2.988   5.297  16.031  0.2665  0.0088 -0.1472
 1962TIP3    H227302   2.950   5.431  15.973  0.6558 -0.0885 -0.6363
 1963TIP3   OH227303   2.577   2.969   4.485 -0.2852 -0.5095  0.2725
 1963TIP3    H127304   2.605   2.878   4.479  1.6701  0.0797 -0.3068
 1963TIP3    H227305   2.544   2.978   4.574 -0.1296 -1.6826  0.4678
 1964TIP3   OH227306   6.306   4.646  13.165 -0.0549 -0.0112  0.1393
 1964TIP3    H127307   6.286   4.631  13.073  1.8559  0.5102 -0.3874
 1964TIP3    H227308   6.365   4.720  13.166  0.5237 -0.4436  1.7315
 1965TIP3   OH227309   4.170   3.976   4.387  0.0695 -0.3037  0.1059
 1965TIP3    H127310   4.161   3.921   4.309 -0.3299  1.1412 -0.9107
 1965TIP3    H227311   4.261   3.965   4.414  0.0566 -1.2756 -0.2135
 1966TIP3   OH227312   5.214   0.785   1.343 -0.4553  0.3408 -0.6056
 1966TIP3    H127313   5.282   0.852   1.335 -0.0228  0.0338  0.3622
 1966TIP3    H227314   5.183   0.771   1.254  1.9118 -0.7409 -1.3207
 1967TIP3   OH227315   2.753   0.905  15.568 -0.1005  0.2280  0.0015
 1967TIP3    H127316   2.731   0.959  15.492  0.7679 -0.3792 -0.7070
 1967TIP3    H227317   2.845   0.922  15.584  0.0797 -0.7241  0.0239
 1968TIP3   OH227318   2.567   1.764  17.303 -0.3755  0.0182  0.2742
 1968TIP3    H127319   2.526   1.823  17.367  1.0412  2.2187 -0.7128
 1968TIP3    H227320   2.655   1.749  17.337  0.0105  0.2933 -0.5712
 1969TIP3   OH227321   6.346   6.153   0.628 -0.0879 -1.2249  0.2059
 1969TIP3    H127322   6.373   6.118   0.713  0.0657 -0.0202  0.6713
 1969TIP3    H227323   6.427   6.188   0.590 -0.7926  2.1862  1.5041
 1970TIP3   OH227324   3.084   3.789   6.278  0.4710  0.2648 -0.1526
 1970TIP3    H127325   3.096   3.723   6.346  2.1034 -0.7560 -1.3770
 1970TIP3    H227326   3.155   3.851   6.291  1.4145 -0.4903 -1.5066
 1971TIP3   OH227327   2.971   0.544  16.229  0.5377  0.3405 -0.0938
 1971TIP3    H127328   3.022   0.624  16.220 -0.8770  1.4288  1.2251
 1971TIP3    H227329   3.036   0.477  16.251  1.7004  1.1609 -0.9215
 1972TIP3   OH227330   0.808   0.764  15.306 -0.1060  0.5119 -0.4352
 1972TIP3    H127331   0.724   0.719  15.306  0.1393  0.0046  0.7342
 1972TIP3    H227332   0.787   0.857  15.298 -0.7528  0.3538 -0.5700
 1973TIP3   OH227333   6.516   1.550   1.400 -0.6938 -0.0732 -0.1392
 1973TIP3    H127334   6.582   1.482   1.412  0.1405  0.8115  0.4000
 1973TIP3    H227335   6.434   1.509   1.430 -0.6311 -1.5257 -1.7598
 1974TIP3   OH227336   2.347   0.773   0.797 -0.2654 -0.1610 -0.2238
 1974TIP3    H127337   2.298   0.754   0.717 -1.6971  1.5832  0.1525
 1974TIP3    H227338   2.343   0.692   0.848 -1.8377 -0.4180 -0.7113
 1975TIP3   OH227339   4.780   0.120  14.754  0.4657 -0.0819 -0.1837
 1975TIP3    H127340   4.688   0.121  14.781  0.3627  0.0917 -0.5373
 1975TIP3    H227341   4.807   0.029  14.762 -0.0655 -0.3398 -1.1895
 1976TIP3   OH227342   3.637   5.815  14.425 -0.7593 -0.3982  0.0544
 1976TIP3    H127343   3.574   5.844  14.491  0.6950  1.1247  0.8362
 1976TIP3    H227344   3.691   5.750  14.470 -2.3280 -2.5097 -0.9216
 1977TIP3   OH227345   0.000   6.354  12.929 -0.2619 -0.3707 -0.5576
 1977TIP3    H127346   0.001   6.274  12.981  0.6878 -0.0004  0.0233
 1977TIP3    H227347  -0.093   6.373  12.916 -0.5051 -1.7599 -1.0347
 1978TIP3   OH227348   5.186   1.661  12.907  0.0778 -1.2631 -0.0800
 1978TIP3    H127349   5.171   1.755  12.916  2.2741 -0.6439 -1.9512
 1978TIP3    H227350   5.109   1.620  12.947 -0.9130  1.3101  0.8168
 1979TIP3   OH227351   4.228   0.543   5.541  0.5853  0.0856 -0.5560
 1979TIP3    H127352   4.253   0.632   5.565 -1.0389  0.0174  1.6510
 1979TIP3    H227353   4.270   0.487   5.607 -1.0369 -0.4498  0.0798
 1980TIP3   OH227354   1.483   0.306   2.325 -0.2582  0.2575 -0.2060
 1980TIP3    H127355   1.459   0.233   2.269 -2.7983  0.1240  0.8884
 1980TIP3    H227356   1.506   0.377   2.265  1.7738 -1.2373 -1.2845
 1981TIP3   OH227357   1.743   1.493  12.122 -0.8777 -0.1064 -0.5648
 1981TIP3    H127358   1.705   1.408  12.145 -0.8331  0.4307  1.7433
 1981TIP3    H227359   1.821   1.471  12.071  0.2735 -1.6236  1.6631
 1982TIP3   OH227360   3.509   6.592  12.558  0.0661  0.6130 -0.1064
 1982TIP3    H127361   3.460   6.603  12.477  1.0560 -1.6904 -1.1225
 1982TIP3    H227362   3.485   6.505  12.590  1.2305  0.6368  0.9556
 1983TIP3   OH227363   3.387   5.618  12.090  0.0628 -0.6691 -0.4660
 1983TIP3    H127364   3.416   5.593  12.177  0.6142  1.8868  0.1416
 1983TIP3    H227365   3.293   5.634  12.099  0.1643 -0.1711 -0.2674
 1984TIP3   OH227366   3.063   2.822  15.692 -0.3723 -0.3894 -0.1739
 1984TIP3    H127367   3.159   2.819  15.693 -0.2790  1.4315 -0.5657
 1984TIP3    H227368   3.038   2.748  15.637  0.8582 -0.1566 -1.0950
 1985TIP3   OH227369   5.294   5.528  14.460  0.3323  0.1858 -0.3524
 1985TIP3    H127370   5.251   5.581  14.528  0.7777  0.6801 -0.4507
 1985TIP3    H227371   5.232   5.457  14.442  0.3668 -0.1543  0.8267
 1986TIP3   OH227372   6.504   0.924   3.917  0.4980 -0.1360  0.5395
 1986TIP3    H127373   6.552   0.912   3.999  2.3480  0.6670 -0.3568
 1986TIP3    H227374   6.412   0.918   3.942  1.0021 -2.9896  2.1507
 1987TIP3   OH227375   2.529   1.086   6.336 -0.0570 -0.2567  0.4652
 1987TIP3    H127376   2.606   1.049   6.379 -1.6911 -2.5504  1.6546
 1987TIP3    H227377   2.458   1.026   6.360 -1.9414  0.9499 -1.7596
 1988TIP3   OH227378   2.509   2.279  11.079  0.2562 -0.2760 -0.0134
 1988TIP3    H127379   2.549   2.357  11.117  0.2771 -0.3506  0.1204
 1988TIP3    H227380   2.433   2.261  11.135 -1.8305  1.6399 -2.0228
 1989TIP3   OH227381   1.740   0.286  14.020  0.0256  0.3058  0.1636
 1989TIP3    H127382   1.812   0.256  14.075  0.6162 -0.5884 -1.0544
 1989TIP3    H227383   1.661   0.252  14.063  0.4131  0.2505  0.8459
 1990TIP3   OH227384   0.270   6.247   0.147  0.2075 -0.1736  0.0176
 1990TIP3    H127385   0.336   6.219   0.084  1.0408  1.3662  0.1639
 1990TIP3    H227386   0.262   6.174   0.208  0.6768 -0.9706 -0.8500
 1991TIP3   OH227387   1.501   3.529   1.429 -0.3673 -0.7320 -0.2957
 1991TIP3    H127388   1.539   3.583   1.499  0.5511 -0.2176 -1.1702
 1991TIP3    H227389   1.410   3.516   1.456  0.4127 -2.1325  1.9258
 1992TIP3   OH227390   6.292   5.343   4.497 -0.1129 -0.1674  0.2216
 1992TIP3    H127391   6.309   5.314   4.407  1.4227 -0.7366  0.6587
 1992TIP3    H227392   6.224   5.410   4.489 -1.5999 -1.7318 -1.1364
 1993TIP3   OH227393   2.244   1.795  16.882  0.1051 -0.1232  0.1525
 1993TIP3    H127394   2.285   1.813  16.966 -1.7424  1.7007  0.7589
 1993TIP3    H227395   2.168   1.854  16.879  0.5310  0.4609 -3.1240
 1994TIP3   OH227396   2.543   2.472   0.513  0.2099  0.1303  0.6433
 1994TIP3    H127397   2.539   2.545   0.574 -2.7992  0.2091  0.4864
 1994TIP3    H227398   2.596   2.406   0.559  0.4708  1.2775  2.0676
 1995TIP3   OH227399   6.369   5.729   3.456 -0.2845  0.0279 -0.2227
 1995TIP3    H127400   6.302   5.795   3.436  0.1095  0.0538 -1.5971
 1995TIP3    H227401   6.427   5.731   3.380  1.4984  0.2652  1.0872
 1996TIP3   OH227402   5.340   3.890   5.093  0.0236 -0.1946 -0.1596
 1996TIP3    H127403   5.253   3.858   5.117 -0.5951  2.8761  2.3090
 1996TIP3    H227404   5.391   3.887   5.174  0.7192  2.2581 -0.4015
 1997TIP3   OH227405   1.207   2.913   3.889  0.4084 -0.2567  0.2519
 1997TIP3    H127406   1.133   2.859   3.914  1.4997 -2.1805 -0.4725
 1997TIP3    H227407   1.182   2.952   3.805 -0.8898  1.4891  1.3686
 1998TIP3   OH227408   4.146   0.188   1.274 -0.3745  0.2989 -0.3778
 1998TIP3    H127409   4.079   0.254   1.257  0.2761  1.1980  0.4371
 1998TIP3    H227410   4.207   0.230   1.334  0.5824 -0.7234 -0.5898
 1999TIP3   OH227411   4.511   6.223  11.347  0.1124  0.1831  0.1821
 1999TIP3    H127412   4.508   6.133  11.378  2.1548 -0.1579 -0.4004
 1999TIP3    H227413   4.422   6.242  11.317 -0.2556 -1.8099 -0.1236
 2000TIP3   OH227414   1.819   2.941   4.908 -0.0071 -0.0710 -0.0247
 2000TIP3    H127415   1.786   3.029   4.890 -2.7638 -1.0248 -0.0271
 2000TIP3    H227416   1.891   2.930   4.845  0.3298  2.1089 -0.0943
 2001TIP3   OH227417   6.623   2.624  11.907 -0.0669  0.2084  0.0700
 2001TIP3    H127418   6.568   2.700  11.926  1.4144  1.8131 -1.6459
 2001TIP3    H227419   6.634   2.626  11.812  1.7146 -0.9128  0.2058
 2002TIP3   OH227420   5.659   3.976   3.477 -0.0471 -0.3410 -0.4554
 2002TIP3    H127421   5.652   3.958   3.384  1.8157 -0.1654 -0.6654
 2002TIP3    H227422   5.753   3.982   3.494 -0.3469  2.2110  0.9118
 2003TIP3   OH227423   0.960   4.811   1.937 -0.0730 -0.0194 -0.0411
 2003TIP3    H127424   1.039   4.815   1.882  0.1604  0.9499  0.3376
 2003TIP3    H227425   0.992   4.784   2.023 -0.3353 -0.8119 -0.1836
 2004TIP3   OH227426   5.576   0.290   1.972 -0.0917 -0.4042 -0.4325
 2004TIP3    H127427   5.654   0.314   2.022  0.1515 -1.4964 -0.2510
 2004TIP3    H227428   5.504   0.300   2.034 -0.0299  0.0557 -0.4308
 2005TIP3   OH227429   5.714   5.017   1.248  0.0896 -0.5228 -0.0761
 2005TIP3    H127430   5.743   4.926   1.245 -0.1576 -0.6715  1.4768
 2005TIP3    H227431   5.713   5.044   1.156  0.1377 -2.0818 -0.5669
 2006TIP3   OH227432   6.129   1.584   5.788  0.8070 -0.4722  0.0220
 2006TIP3    H127433   6.160   1.671   5.763 -0.5052 -0.9703 -4.1106
 2006TIP3    H227434   6.190   1.524   5.746 -0.4783 -1.4874 -0.4651
 2007TIP3   OH227435   5.632   2.103  17.053 -0.0984 -0.0469  0.2023
 2007TIP3    H127436   5.593   2.025  17.013  1.7528 -0.9459  0.0346
 2007TIP3    H227437   5.571   2.127  17.123  0.1973 -2.8546  1.5690
 2008TIP3   OH227438   4.210   2.924   4.548  0.6708  0.3896  0.4870
 2008TIP3    H127439   4.148   2.896   4.616 -0.0827  0.3522 -0.1960
 2008TIP3    H227440   4.166   2.997   4.504  0.2098 -0.8647 -1.2800
 2009TIP3   OH227441   4.622   6.305  15.364  0.3975 -0.1500  0.2199
 2009TIP3    H127442   4.696   6.250  15.339  2.0102  1.2890  1.5798
 2009TIP3    H227443   4.639   6.390  15.324  0.5936  0.7931  2.1741
 2010TIP3   OH227444   0.815   4.705   0.664  0.4212 -0.2048 -0.0895
 2010TIP3    H127445   0.861   4.681   0.745 -0.3338  1.9729  1.0483
 2010TIP3    H227446   0.734   4.655   0.668  0.1388  0.2914  0.8146
 2011TIP3   OH227447   3.860   5.503  15.848 -0.6359  1.6450 -0.0313
 2011TIP3    H127448   3.804   5.571  15.813  0.9557  2.2212 -1.6193
 2011TIP3    H227449   3.880   5.531  15.938 -0.6609  2.8501 -0.3902
 2012TIP3   OH227450   2.377   4.345   5.617 -0.0920  0.6587  0.0241
 2012TIP3    H127451   2.427   4.269   5.647  1.1192  0.3246 -2.5534
 2012TIP3    H227452   2.292   4.309   5.591 -0.3817  0.6110  0.9941
 2013TIP3   OH227453   4.241   3.933  15.339 -0.4984 -0.4240  0.5263
 2013TIP3    H127454   4.243   3.903  15.430 -0.4990 -2.7117 -0.1666
 2013TIP3    H227455   4.150   3.958  15.324 -0.3829  0.5308  1.2892
 2014TIP3   OH227456   1.922   4.210  11.810 -0.7829 -0.3675 -0.2258
 2014TIP3    H127457   1.884   4.176  11.892 -0.3990 -1.1724 -0.3675
 2014TIP3    H227458   1.864   4.281  11.784 -1.7893 -1.0973 -0.0526
 2015TIP3   OH227459   2.740   5.475   0.285 -0.0023 -0.2660  0.5360
 2015TIP3    H127460   2.832   5.478   0.312 -0.3225 -0.4377  1.7378
 2015TIP3    H227461   2.700   5.551   0.327 -0.4811 -0.3873  0.3064
 2016TIP3   OH227462   3.418   1.027   2.797 -0.1497 -0.3404 -0.1687
 2016TIP3    H127463   3.441   1.078   2.720  0.5009  0.7188  0.6878
 2016TIP3    H227464   3.389   1.093   2.861 -1.1347 -1.2333  0.3327
 2017TIP3   OH227465   6.316   0.975   0.090 -0.2671 -0.8322  0.1432
 2017TIP3    H127466   6.255   0.921   0.139 -0.1633 -0.7382  0.3753
 2017TIP3    H227467   6.359   0.914   0.029 -0.5498 -0.9075  0.0167
 2018TIP3   OH227468   1.882   5.853  15.107 -0.0482 -0.0169 -0.5241
 2018TIP3    H127469   1.977   5.858  15.111 -0.1353  0.6690  1.5474
 2018TIP3    H227470   1.862   5.761  15.126  0.1545  0.3297  1.5871
 2019TIP3   OH227471   1.949   0.537  15.987 -0.2303  0.3017  0.2830
 2019TIP3    H127472   1.969   0.630  16.001 -1.4523  0.6562 -0.2619
 2019TIP3    H227473   2.035   0.495  15.986  0.3356  1.3899  0.7498
 2020TIP3   OH227474   1.823   5.207  13.869  0.3167  0.3673  0.4135
 2020TIP3    H127475   1.900   5.212  13.925  0.2747 -0.9618  0.6103
 2020TIP3    H227476   1.762   5.271  13.907  0.5957  0.0607  1.4075
 2021TIP3   OH227477   2.538   1.715  11.569 -0.2027  0.2277  0.4466
 2021TIP3    H127478   2.596   1.725  11.493  1.2010 -0.7255  1.3537
 2021TIP3    H227479   2.485   1.639  11.548  0.0573  0.0746  0.3361
 2022TIP3   OH227480   4.079   3.946  16.991 -0.2430  0.2665 -0.6238
 2022TIP3    H127481   4.051   3.866  17.036  3.0008 -1.3268 -1.1583
 2022TIP3    H227482   4.051   3.933  16.900  1.5029 -1.0315 -1.0290
 2023TIP3   OH227483   2.540   0.326  15.605 -0.4611  0.0619  0.2217
 2023TIP3    H127484   2.484   0.403  15.602 -0.3267  0.1525 -2.3845
 2023TIP3    H227485   2.626   0.360  15.629 -0.4611  0.7155 -0.6429
 2024TIP3   OH227486   2.622   5.251   0.513 -0.0908 -0.2416  0.0955
 2024TIP3    H127487   2.538   5.285   0.543 -0.7748 -1.6612 -0.1023
 2024TIP3    H227488   2.613   5.246   0.418  0.0696 -0.7433  0.1037
 2025TIP3   OH227489   6.112   2.392   3.957  0.1777  0.4629 -0.1451
 2025TIP3    H127490   6.056   2.316   3.944 -0.5215  0.9988 -0.3622
 2025TIP3    H227491   6.201   2.358   3.956 -0.1559 -0.4928  0.7803
 2026TIP3   OH227492   1.182   4.240  12.820  0.9399 -0.1649 -0.6103
 2026TIP3    H127493   1.228   4.196  12.891  1.1125 -1.8775 -1.7215
 2026TIP3    H227494   1.241   4.233  12.745  0.4796  1.0186 -1.1145
 2027TIP3   OH227495   4.121   3.544   4.228 -0.2468  0.2747  0.4175
 2027TIP3    H127496   4.087   3.455   4.220  1.0351 -0.0832 -2.1548
 2027TIP3    H227497   4.185   3.539   4.299  0.6074 -1.1903 -0.4060
 2028TIP3   OH227498   3.892   5.102   5.476 -0.9182  0.2388  0.7231
 2028TIP3    H127499   3.903   5.052   5.556 -0.2485 -1.1781 -0.2159
 2028TIP3    H227500   3.849   5.183   5.504  1.5644  0.9353  2.8615
 2029TIP3   OH227501   2.141   3.123  12.181  0.3468 -0.2508 -0.0811
 2029TIP3    H127502   2.198   3.178  12.235 -0.0389 -0.8274  0.9403
 2029TIP3    H227503   2.087   3.075  12.244  0.6019 -1.7289 -0.9394
 2030TIP3   OH227504   2.220   3.715   5.104 -0.0097  0.5373  0.6105
 2030TIP3    H127505   2.278   3.646   5.137 -1.6702 -0.3223  1.8346
 2030TIP3    H227506   2.156   3.669   5.051  0.9458  1.6019 -1.6053
 2031TIP3   OH227507   1.473   1.416   4.499  0.3719 -0.1498  0.5601
 2031TIP3    H127508   1.511   1.329   4.505  1.5742  0.2351 -0.9817
 2031TIP3    H227509   1.467   1.446   4.590  3.8095 -0.2324  0.9476
 2032TIP3   OH227510   6.068   1.409   6.157 -0.1294  0.4328 -0.1923
 2032TIP3    H127511   6.001   1.473   6.133 -1.4519 -1.0165 -0.5112
 2032TIP3    H227512   6.084   1.425   6.250 -0.1723  1.4461 -0.3507
 2033TIP3   OH227513   4.264   5.443  11.533 -0.0301  0.0642 -0.1463
 2033TIP3    H127514   4.286   5.352  11.552 -0.2921 -0.1425 -0.8298
 2033TIP3    H227515   4.284   5.490  11.615  0.5814 -0.5162  0.0409
 2034TIP3   OH227516   3.886   1.505   3.880 -0.0433  0.5870 -0.2858
 2034TIP3    H127517   3.915   1.414   3.883  0.3877  0.7522  0.6951
 2034TIP3    H227518   3.810   1.504   3.821 -0.4963 -0.5261  0.2869
 2035TIP3   OH227519   2.583   4.209  14.371  0.3894  0.1975  0.1233
 2035TIP3    H127520   2.512   4.157  14.334  1.2369 -0.2128 -0.9697
 2035TIP3    H227521   2.539   4.283  14.412 -0.6756 -0.0876 -0.4592
 2036TIP3   OH227522   5.783   6.283   1.471  0.1324 -0.1167 -0.1737
 2036TIP3    H127523   5.758   6.211   1.414  0.8929  0.4029 -1.2205
 2036TIP3    H227524   5.731   6.357   1.440  0.2681  0.0757  0.0546
 2037TIP3   OH227525   1.450   3.923   1.903 -0.0003  0.8224 -0.3513
 2037TIP3    H127526   1.472   3.839   1.864 -0.0744  0.6038  0.0768
 2037TIP3    H227527   1.441   3.905   1.996 -1.3887  1.0167 -0.4291
 2038TIP3   OH227528   1.718   1.090  11.341  0.2818  0.1014  0.0184
 2038TIP3    H127529   1.768   1.054  11.414  0.0632 -1.8825 -0.7337
 2038TIP3    H227530   1.738   1.183  11.342  2.4873 -0.3103  0.9082
 2039TIP3   OH227531   0.433   5.097   6.084 -0.0861  0.3236  0.1541
 2039TIP3    H127532   0.462   5.173   6.134 -1.1570  1.1440 -0.4159
 2039TIP3    H227533   0.428   5.128   5.994 -2.0828  0.0780  0.1316
 2040TIP3   OH227534   2.768   3.596   1.765 -0.2796 -0.1842 -0.4124
 2040TIP3    H127535   2.840   3.659   1.766 -0.4171 -0.0048  1.0881
 2040TIP3    H227536   2.747   3.585   1.673  0.2630  1.3726 -0.7550
 2041TIP3   OH227537   2.189   1.633  11.953 -0.5935 -0.3743 -0.1398
 2041TIP3    H127538   2.224   1.598  12.035  1.2422  1.2800 -0.1442
 2041TIP3    H227539   2.214   1.725  11.953 -1.4119 -0.0964 -2.1163
 2042TIP3   OH227540   5.360   1.482   2.931  0.0189  0.2070 -0.5374
 2042TIP3    H127541   5.447   1.457   2.962  0.0022  1.5635  0.7159
 2042TIP3    H227542   5.316   1.516   3.009 -2.3045 -2.0604 -0.7083
 2043TIP3   OH227543   3.106   2.293   4.766  0.4678 -0.6493 -0.1805
 2043TIP3    H127544   3.155   2.320   4.843  3.2626  1.5619 -2.4743
 2043TIP3    H227545   3.056   2.370   4.741 -0.8808 -1.5282 -0.2863
 2044TIP3   OH227546   6.633   5.258  13.528 -0.0053  0.2592 -0.3463
 2044TIP3    H127547   6.624   5.163  13.525 -0.7870  0.2573  1.0551
 2044TIP3    H227548   6.597   5.283  13.613  0.3351  1.8005 -0.6158
 2045TIP3   OH227549   4.231   0.639   0.449  0.2865 -0.6910  0.1477
 2045TIP3    H127550   4.321   0.625   0.420  1.4331  0.2940  2.8759
 2045TIP3    H227551   4.210   0.727   0.419  1.0471 -0.1108  1.2360
 2046TIP3   OH227552   6.499   1.151   6.615  0.3575  0.3937  0.1287
 2046TIP3    H127553   6.575   1.112   6.657  1.0527  0.5788 -0.9203
 2046TIP3    H227554   6.518   1.245   6.613  0.6902  0.3245 -1.2238
 2047TIP3   OH227555   5.698   1.559  13.017  0.0715  0.3169  0.2721
 2047TIP3    H127556   5.608   1.590  13.026 -0.0655  0.6809 -1.7921
 2047TIP3    H227557   5.692   1.490  12.951  1.0498 -1.0212  1.5136
 2048TIP3   OH227558   2.262   1.515   3.552 -0.1119 -0.0072 -0.2307
 2048TIP3    H127559   2.323   1.468   3.608 -0.9517  0.4880  1.1390
 2048TIP3    H227560   2.202   1.558   3.612 -0.3825  1.4594 -1.4760
 2049TIP3   OH227561   2.854   1.263   5.204 -0.2226 -0.5463  0.4704
 2049TIP3    H127562   2.852   1.298   5.293 -0.5944  0.1117  0.2145
 2049TIP3    H227563   2.892   1.334   5.151 -1.4588 -0.2883 -0.1391
 2050TIP3   OH227564   0.696   4.813  17.152  0.0903  0.0301 -0.8204
 2050TIP3    H127565   0.749   4.737  17.129 -1.6720 -1.4148 -0.4354
 2050TIP3    H227566   0.691   4.810  17.248  1.0838  1.4451 -0.7034
 2051TIP3   OH227567   3.502   4.883  13.471 -0.8507  0.4239 -0.0618
 2051TIP3    H127568   3.539   4.801  13.439 -0.6987  0.9720 -1.3855
 2051TIP3    H227569   3.543   4.896  13.557  0.6150  0.0763 -0.6705
 2052TIP3   OH227570   1.436   5.058   4.912  0.4472 -0.2600  0.2997
 2052TIP3    H127571   1.364   4.995   4.917 -0.0092  0.1081 -1.2006
 2052TIP3    H227572   1.503   5.015   4.859  0.5691  0.1073  0.1524
 2053TIP3   OH227573   4.942   6.619   3.058  0.1621  0.0576 -0.7103
 2053TIP3    H127574   5.007   6.688   3.069  0.7103 -0.4984 -0.4194
 2053TIP3    H227575   4.877   6.636   3.126  0.8254 -0.3065  0.0288
 2054TIP3   OH227576   6.652   5.699  15.851  0.7908  0.2118 -0.4729
 2054TIP3    H127577   6.615   5.636  15.912  1.5829 -0.3649 -0.5622
 2054TIP3    H227578   6.744   5.674  15.844  1.4299  2.1472  0.4377
 2055TIP3   OH227579   5.334   6.171  13.488 -0.2554 -0.1405 -0.0677
 2055TIP3    H127580   5.369   6.250  13.448 -0.4369  0.0861  0.2249
 2055TIP3    H227581   5.369   6.100  13.435  0.5364  0.0928  0.1392
 2056TIP3   OH227582   6.309   6.129  15.539  0.1406  0.1425 -0.1479
 2056TIP3    H127583   6.381   6.190  15.522  0.7747 -0.1413  1.3722
 2056TIP3    H227584   6.349   6.042  15.528  0.1674 -0.0223  1.1291
 2057TIP3   OH227585   5.320   0.664   5.939  0.1366 -0.0746 -0.1245
 2057TIP3    H127586   5.339   0.632   6.028  0.9852  1.1283  0.1445
 2057TIP3    H227587   5.395   0.719   5.917  0.4098 -1.1300 -1.9879
 2058TIP3   OH227588   2.613   1.783   5.443 -0.2904 -0.6235 -0.0992
 2058TIP3    H127589   2.675   1.827   5.500 -0.3913 -0.8580  0.1911
 2058TIP3    H227590   2.648   1.695   5.432 -1.3242 -1.2276  1.2542
 2059TIP3   OH227591   1.281   5.950   2.493 -0.0720  0.3076 -0.1526
 2059TIP3    H127592   1.323   5.976   2.411 -1.2419 -2.0705 -1.6084
 2059TIP3    H227593   1.329   5.872   2.520 -1.2349 -0.3463  0.0789
 2060TIP3   OH227594   0.637   3.277  11.714  0.0469  0.5845 -0.0620
 2060TIP3    H127595   0.667   3.189  11.737 -2.1768 -0.3783 -0.4986
 2060TIP3    H227596   0.686   3.299  11.635  0.3236 -0.4648 -0.1982
 2061TIP3   OH227597   6.684   2.287   4.675 -0.0796 -0.1099 -0.1009
 2061TIP3    H127598   6.625   2.284   4.751 -2.8519  0.4158 -2.0676
 2061TIP3    H227599   6.700   2.380   4.662  0.3896 -0.2015 -0.1807
 2062TIP3   OH227600   5.854   5.150  14.816  0.7839  1.6188  0.0740
 2062TIP3    H127601   5.876   5.198  14.736  2.2663  1.4775  0.3732
 2062TIP3    H227602   5.927   5.091  14.830  1.0391  2.3156  2.0489
 2063TIP3   OH227603   3.931   1.880  13.023 -0.3947  0.5739  0.8033
 2063TIP3    H127604   3.860   1.904  12.964 -0.6831 -0.5332  0.6787
 2063TIP3    H227605   3.887   1.841  13.099  0.0909 -2.0299 -0.1522
 2064TIP3   OH227606   6.363   0.583   5.624 -0.0227  0.1571 -0.0220
 2064TIP3    H127607   6.361   0.667   5.670 -0.2301 -0.2456  0.7263
 2064TIP3    H227608   6.272   0.557   5.616  0.0086  0.2571 -0.7408
 2065TIP3   OH227609   0.192   1.662  12.585  0.8860 -0.0355  0.6013
 2065TIP3    H127610   0.190   1.640  12.678 -0.4596 -1.3553  0.2864
 2065TIP3    H227611   0.111   1.712  12.570  0.3151 -1.1455 -0.1482
 2066TIP3   OH227612   0.756   0.897   6.975 -0.3343 -0.2365  0.3211
 2066TIP3    H127613   0.761   0.819   7.029  0.0455  0.4838  1.3588
 2066TIP3    H227614   0.696   0.873   6.904  1.0512 -1.9945 -0.3375
 2067TIP3   OH227615   3.272   4.449   3.185 -0.0756 -0.2250  0.5374
 2067TIP3    H127616   3.352   4.492   3.155 -0.0173 -0.1383  0.8200
 2067TIP3    H227617   3.286   4.357   3.166 -0.7481  0.0018 -1.3545
 2068TIP3   OH227618   4.363   3.877   1.998 -0.0692  0.2886 -0.1287
 2068TIP3    H127619   4.349   3.887   1.904  0.2620 -0.8062 -0.3124
 2068TIP3    H227620   4.304   3.806   2.023 -3.7759  3.5523  1.4466
 2069TIP3   OH227621   0.088   5.367  15.481  0.4578  0.1144 -0.1751
 2069TIP3    H127622   0.013   5.319  15.516 -0.5234  0.7036 -1.4012
 2069TIP3    H227623   0.155   5.300  15.469  0.7780 -0.1665  2.5081
 2070TIP3   OH227624   3.559   4.242   3.047 -0.6548  0.5127  0.1917
 2070TIP3    H127625   3.485   4.267   2.993 -0.2498 -0.1560 -0.6944
 2070TIP3    H227626   3.636   4.275   3.000 -0.3858  1.6124  1.3235
 2071TIP3   OH227627   1.014   6.070  17.313 -0.4234  0.1663  0.3388
 2071TIP3    H127628   1.058   6.006  17.258  1.0295  0.6475  0.9053
 2071TIP3    H227629   0.960   6.121  17.252  0.8144  0.4035 -0.5831
 2072TIP3   OH227630   4.126   0.593   3.215 -0.1208 -0.0419  0.4802
 2072TIP3    H127631   4.111   0.625   3.126 -0.9816  1.1204  1.0230
 2072TIP3    H227632   4.199   0.532   3.206  1.5872  2.0498 -0.6189
 2073TIP3   OH227633   3.122   2.742  13.768 -0.6843 -0.0318 -0.1457
 2073TIP3    H127634   3.102   2.719  13.677  1.1660 -1.5838 -0.2259
 2073TIP3    H227635   3.043   2.717  13.816 -0.3934 -2.7169 -0.8772
 2074TIP3   OH227636   4.648   5.743  16.140  0.2413 -0.4894  0.2202
 2074TIP3    H127637   4.654   5.786  16.225  0.5464 -0.3182  0.1140
 2074TIP3    H227638   4.700   5.798  16.082 -1.4812  0.4607 -0.5034
 2075TIP3   OH227639   0.553   0.938  14.249  0.5505 -0.0932 -0.2934
 2075TIP3    H127640   0.530   0.903  14.163 -0.5671  0.7200 -0.3347
 2075TIP3    H227641   0.573   0.860  14.301 -1.0087 -0.7664 -0.6378
 2076TIP3   OH227642   5.953   0.093   5.451 -0.2181 -0.6333 -0.5311
 2076TIP3    H127643   6.034   0.114   5.497  0.9844 -1.4728 -2.1526
 2076TIP3    H227644   5.888   0.083   5.520  1.4015 -1.5104  0.9469
 2077TIP3   OH227645   0.783   5.344   1.245 -0.9186  0.2394  0.0683
 2077TIP3    H127646   0.732   5.406   1.192  0.1885  1.4546  0.3839
 2077TIP3    H227647   0.870   5.383   1.250 -0.5319 -0.7387  1.3216
 2078TIP3   OH227648   3.775   3.166   5.446 -0.0927  0.6394 -0.1320
 2078TIP3    H127649   3.741   3.079   5.466  0.5882  0.1497 -1.0268
 2078TIP3    H227650   3.697   3.220   5.430 -0.5996  0.6898  2.2182
 2079TIP3   OH227651   4.053   0.570   2.236 -0.5491  0.2998  0.1875
 2079TIP3    H127652   4.026   0.655   2.270 -1.1809  0.3930 -0.5469
 2079TIP3    H227653   4.149   0.574   2.236 -0.5731  0.9837  0.2034
 2080TIP3   OH227654   0.459   3.576  14.497 -0.4216 -0.2797  0.2802
 2080TIP3    H127655   0.372   3.595  14.463  0.1776 -0.5256 -1.4681
 2080TIP3    H227656   0.448   3.581  14.592 -1.7528  2.2273  0.0846
 2081TIP3   OH227657   0.643   0.205  14.981  0.0424 -0.1017  0.3711
 2081TIP3    H127658   0.644   0.110  14.973 -0.7692 -0.0414 -0.7286
 2081TIP3    H227659   0.554   0.230  14.956  0.7986  1.0767 -1.3335
 2082TIP3   OH227660   1.181   3.882  16.657  0.3635 -0.0549 -0.0421
 2082TIP3    H127661   1.098   3.930  16.666  0.5864  0.1261  1.2552
 2082TIP3    H227662   1.200   3.851  16.746  0.9522 -1.3340 -0.5967
 2083TIP3   OH227663   6.066   4.031  12.257 -0.1417  0.2932  0.0873
 2083TIP3    H127664   6.125   4.050  12.184  2.4250 -2.7661  1.1417
 2083TIP3    H227665   6.108   4.072  12.333  0.6788 -1.8250  0.8330
 2084TIP3   OH227666   4.214   5.263  17.087  0.4064 -0.0609  0.0707
 2084TIP3    H127667   4.213   5.354  17.059 -0.6333 -0.6000 -1.8542
 2084TIP3    H227668   4.293   5.227  17.048  1.6555  0.3384  2.1263
 2085TIP3   OH227669   6.021   2.285  10.857 -0.0770  0.2622  0.3480
 2085TIP3    H127670   6.070   2.367  10.858  1.4435 -0.5373 -1.7926
 2085TIP3    H227671   5.941   2.305  10.808 -0.8591  0.9740  1.8239
 2086TIP3   OH227672   5.280   0.966   0.014  0.1401  0.8114  0.1703
 2086TIP3    H127673   5.346   0.946  -0.052 -0.8413  0.0848 -0.6248
 2086TIP3    H227674   5.203   0.994  -0.037 -0.1089  1.8741  1.0787
 2087TIP3   OH227675   2.833   0.414  11.016  0.0137 -0.0687 -0.0803
 2087TIP3    H127676   2.740   0.436  11.020 -0.1509 -0.4693 -1.2472
 2087TIP3    H227677   2.855   0.419  10.923  0.8981 -0.9893  0.0548
 2088TIP3   OH227678   1.086   3.837   0.501 -0.4166  0.1708 -0.0791
 2088TIP3    H127679   1.179   3.821   0.519 -0.2866 -0.3027 -1.0907
 2088TIP3    H227680   1.061   3.767   0.441 -1.8356 -0.6086  1.3507
 2089TIP3   OH227681   4.388   3.962   0.727 -0.4382 -0.1203 -0.2046
 2089TIP3    H127682   4.335   4.031   0.686 -1.8686 -0.1057  1.5428
 2089TIP3    H227683   4.478   3.990   0.715 -0.8111  0.2589 -2.6054
 2090TIP3   OH227684   3.738   0.608  15.164 -0.0032 -0.2976 -0.0946
 2090TIP3    H127685   3.814   0.663  15.181 -1.4373  1.8966 -0.3436
 2090TIP3    H227686   3.696   0.597  15.250 -1.5325  1.9341 -0.4698
 2091TIP3   OH227687   6.052   0.940  12.603  0.0667  0.0589 -0.3388
 2091TIP3    H127688   6.096   0.968  12.683 -0.2647 -0.0222 -0.1230
 2091TIP3    H227689   6.121   0.903  12.548  0.0625 -1.3810  0.5723
 2092TIP3   OH227690   6.579   1.168  13.355 -0.2216  0.0825 -0.5115
 2092TIP3    H127691   6.617   1.157  13.268  1.6462  0.3213  0.2271
 2092TIP3    H227692   6.613   1.252  13.386 -2.1915  0.8099 -0.1657
 2093TIP3   OH227693   0.473   4.188   6.583 -0.8359  0.4540 -0.1115
 2093TIP3    H127694   0.454   4.281   6.567 -0.0233  0.8686  1.1958
 2093TIP3    H227695   0.539   4.189   6.652 -2.1758 -1.1516  1.2752
 2094TIP3   OH227696   3.200   6.720  11.411  0.0863 -0.6017 -0.5329
 2094TIP3    H127697   3.126   6.758  11.363 -1.6742 -2.2357  0.7278
 2094TIP3    H227698   3.172   6.630  11.431  0.8708 -0.2111  3.0786
 2095TIP3   OH227699   5.723   5.078   5.166 -0.1349 -0.4273  0.0477
 2095TIP3    H127700   5.804   5.114   5.130  0.0187 -1.7332 -1.0122
 2095TIP3    H227701   5.659   5.089   5.095  0.0977 -2.7893 -0.6269
 2096TIP3   OH227702   2.060   3.781  11.399 -0.1086 -0.0489  0.6322
 2096TIP3    H127703   1.995   3.848  11.379 -0.8583 -0.8741  0.2501
 2096TIP3    H227704   2.070   3.732  11.318  0.6122 -0.2634  0.8399
 2097TIP3   OH227705   2.251   1.997  15.725 -0.7657  0.5473 -0.1242
 2097TIP3    H127706   2.184   2.065  15.723  1.0298  2.4863  1.1752
 2097TIP3    H227707   2.332   2.043  15.704  0.3832 -1.4378 -0.3022
 2098TIP3   OH227708   0.443   2.880   1.254 -0.4127  0.3557  0.5437
 2098TIP3    H127709   0.521   2.935   1.265 -0.1934 -0.3164  2.8697
 2098TIP3    H227710   0.376   2.940   1.222  1.1210  0.8315 -2.1613
 2099TIP3   OH227711   4.649   5.678   0.501 -0.4562  0.3658  0.4794
 2099TIP3    H127712   4.641   5.593   0.543  0.9972 -0.2778 -0.4483
 2099TIP3    H227713   4.660   5.658   0.407  1.6238  1.4102  0.4245
 2100TIP3   OH227714   6.549   5.353   2.747  0.1854  0.0055  0.1860
 2100TIP3    H127715   6.630   5.391   2.782  0.0494  0.5295 -0.0599
 2100TIP3    H227716   6.561   5.354   2.652 -0.0387 -0.0764  0.1561
 2101TIP3   OH227717   5.274   4.125  12.047 -0.5299  0.4703  0.2898
 2101TIP3    H127718   5.318   4.181  11.983 -0.8090  1.9421  1.3283
 2101TIP3    H227719   5.343   4.069  12.082 -0.5201 -0.9946 -1.8593
 2102TIP3   OH227720   5.134   2.577  14.695 -0.4750 -0.4045  0.7116
 2102TIP3    H127721   5.229   2.579  14.709 -0.3037 -0.9535 -0.2654
 2102TIP3    H227722   5.110   2.485  14.704 -0.5636 -0.5914 -1.0576
 2103TIP3   OH227723   2.004   5.253  15.885 -0.5536 -0.4089 -0.1232
 2103TIP3    H127724   2.000   5.276  15.977  2.7894  0.5230 -0.0624
 2103TIP3    H227725   1.961   5.326  15.840 -0.8528 -0.1006  0.6505
 2104TIP3   OH227726   0.930   3.301   3.447 -0.4757 -0.7412 -0.0085
 2104TIP3    H127727   0.954   3.325   3.357  0.0875  0.0973  0.3433
 2104TIP3    H227728   1.014   3.285   3.490 -0.5605  1.1902  0.9696
 2105TIP3   OH227729   2.137   2.242  15.925  0.0115 -0.0264 -0.5385
 2105TIP3    H127730   2.091   2.195  15.995  1.4706 -0.0938  0.4238
 2105TIP3    H227731   2.096   2.328  15.924  0.9551  0.5204  1.5091
 2106TIP3   OH227732   3.358   4.384  13.948  0.2194 -0.0855 -0.2885
 2106TIP3    H127733   3.348   4.455  13.884  0.4327  0.9781  0.8260
 2106TIP3    H227734   3.277   4.333  13.939 -0.4816  0.9922 -0.2903
 2107TIP3   OH227735   2.994   3.643   0.942  0.3571  1.0419 -0.0712
 2107TIP3    H127736   3.036   3.567   0.901  0.5506  1.3874 -0.5227
 2107TIP3    H227737   2.904   3.641   0.909 -0.2781 -0.1924  1.5601
 2108TIP3   OH227738   4.568   1.821   5.544 -0.0164 -0.3991  0.5635
 2108TIP3    H127739   4.605   1.898   5.500 -0.9590 -0.1158  0.2463
 2108TIP3    H227740   4.614   1.747   5.503 -0.0346 -0.0756 -0.0626
 2109TIP3   OH227741   4.318   4.725  11.380  0.2050 -0.5806 -0.5402
 2109TIP3    H127742   4.248   4.695  11.437 -0.5029  1.0379 -0.5001
 2109TIP3    H227743   4.290   4.698  11.292 -1.1169  1.0692 -0.6818
 2110TIP3   OH227744   1.537   6.536   4.252 -0.6854 -0.2393  0.2785
 2110TIP3    H127745   1.504   6.591   4.180 -0.1740  0.4587  0.5636
 2110TIP3    H227746   1.586   6.467   4.208  0.4815  0.7454 -0.0435
 2111TIP3   OH227747   5.754   3.639   0.546 -0.3485  0.3985  0.1895
 2111TIP3    H127748   5.772   3.684   0.628 -0.9398 -1.2471  1.2675
 2111TIP3    H227749   5.660   3.649   0.533 -0.1462  1.2969 -0.7125
 2112TIP3   OH227750   1.704   0.978  13.519 -0.1505 -0.1602 -0.5129
 2112TIP3    H127751   1.696   1.056  13.574 -0.7856 -0.0359 -0.7746
 2112TIP3    H227752   1.630   0.983  13.459 -1.7293 -2.2809  1.0948
 2113TIP3   OH227753   5.848   3.398  16.585 -0.2936  0.3938 -0.1596
 2113TIP3    H127754   5.783   3.422  16.519  0.0616  0.9899 -0.2999
 2113TIP3    H227755   5.817   3.440  16.665  0.6705  1.9537 -0.5469
 2114TIP3   OH227756   4.667   0.091  16.129  0.0101 -0.2369  0.9435
 2114TIP3    H127757   4.717   0.169  16.155  1.2064 -0.7496  0.2875
 2114TIP3    H227758   4.682   0.084  16.034 -1.7328 -0.1423  0.6225
 2115TIP3   OH227759   3.010   2.399  10.986 -0.7499  0.5113  0.3899
 2115TIP3    H127760   3.048   2.333  10.927 -1.6493  0.0093  0.3555
 2115TIP3    H227761   3.081   2.461  11.002 -0.3805  0.4488 -0.9268
 2116TIP3   OH227762   2.527   0.762  15.922 -0.4638  0.8932 -0.0297
 2116TIP3    H127763   2.603   0.705  15.922 -1.1504 -0.0486  0.8343
 2116TIP3    H227764   2.452   0.703  15.931 -1.3608  1.7402 -1.4634
 2117TIP3   OH227765   5.217   6.572  16.962  0.8723  0.2031 -0.5727
 2117TIP3    H127766   5.270   6.651  16.973  0.6605  0.1731  0.8138
 2117TIP3    H227767   5.275   6.511  16.917  2.7635 -0.4662  2.4448
 2118TIP3   OH227768   1.349   0.455  10.939  0.8607  0.6994  0.3107
 2118TIP3    H127769   1.374   0.477  11.029 -1.7109  1.1930  0.9753
 2118TIP3    H227770   1.335   0.360  10.941 -0.1696  0.8464  0.7308
 2119TIP3   OH227771   4.544   5.248  15.938 -0.0422 -0.0769 -0.0851
 2119TIP3    H127772   4.630   5.274  15.971  0.9090 -1.2296 -1.5747
 2119TIP3    H227773   4.534   5.157  15.966 -0.7882  0.0417  0.0605
 2120TIP3   OH227774   2.812   4.989   5.102 -0.1327  0.9184  0.2829
 2120TIP3    H127775   2.847   5.006   5.015 -1.0007 -1.2499 -0.5583
 2120TIP3    H227776   2.830   5.070   5.151  0.8125  2.0157 -1.7321
 2121TIP3   OH227777   5.039   6.380  11.626 -0.3757  0.3094 -0.6663
 2121TIP3    H127778   4.955   6.343  11.601  0.4790 -1.5986 -0.8825
 2121TIP3    H227779   5.099   6.352  11.557  0.9629 -0.6484  0.8149
 2122TIP3   OH227780   5.490   0.663   2.602 -0.3313 -0.1772 -0.3747
 2122TIP3    H127781   5.522   0.753   2.612 -0.6385  0.0448 -1.3060
 2122TIP3    H227782   5.440   0.665   2.521 -1.8018 -0.7654  0.4830
 2123TIP3   OH227783   1.501   0.193  12.548 -0.0426  0.1943 -0.2121
 2123TIP3    H127784   1.507   0.271  12.604  1.2863  0.1976 -0.3257
 2123TIP3    H227785   1.518   0.120  12.608 -0.4358  0.0595 -0.2657
 2124TIP3   OH227786   5.387   6.514   5.207 -0.4117 -0.2876  0.5114
 2124TIP3    H127787   5.414   6.596   5.165  0.4381 -0.4584  0.7236
 2124TIP3    H227788   5.324   6.541   5.274  0.0609  0.2158  0.7542
 2125TIP3   OH227789   1.371   0.074   5.005  0.0109 -0.1710 -0.4886
 2125TIP3    H127790   1.394   0.014   4.934 -0.6405 -1.5827  0.4604
 2125TIP3    H227791   1.369   0.019   5.083  0.6317  1.3345  0.6341
 2126TIP3   OH227792   2.973   5.214   0.162  0.1025  0.4743  0.4807
 2126TIP3    H127793   2.943   5.123   0.164  0.5430  0.0330 -3.6546
 2126TIP3    H227794   2.905   5.261   0.114  1.6616  1.4401 -0.8856
 2127TIP3   OH227795   1.096   2.423   6.192  0.5577 -0.3248  0.6139
 2127TIP3    H127796   1.035   2.393   6.259  1.4568  0.7360  1.9576
 2127TIP3    H227797   1.044   2.481   6.136 -0.4907 -2.1099 -0.3646
 2128TIP3   OH227798   0.297   2.743   4.277  0.4517 -0.0721 -0.0378
 2128TIP3    H127799   0.296   2.692   4.197 -2.1434 -1.1951  0.6230
 2128TIP3    H227800   0.275   2.832   4.249 -0.8092 -0.5316 -0.5560
 2129TIP3   OH227801   3.438   3.797  11.663  0.2017  0.3581 -0.2268
 2129TIP3    H127802   3.411   3.828  11.577 -0.8701 -0.5958 -0.2471
 2129TIP3    H227803   3.357   3.795  11.715  0.5107 -0.8673  0.2389
 2130TIP3   OH227804   0.729   5.112  17.112 -0.1373  0.1276  0.2907
 2130TIP3    H127805   0.687   5.108  17.198 -1.5140 -0.6630 -0.3900
 2130TIP3    H227806   0.723   5.023  17.078  0.1921  0.4790 -0.7200
 2131TIP3   OH227807   2.387   5.861  14.005  0.4783 -0.1614 -0.4409
 2131TIP3    H127808   2.412   5.774  14.036  4.1286  1.1541  0.8887
 2131TIP3    H227809   2.324   5.893  14.070  0.7156 -1.0237  0.2319
 2132TIP3   OH227810   2.627   5.054  11.192  0.3844  0.3490 -0.2058
 2132TIP3    H127811   2.572   4.999  11.137 -2.3163  1.7543  0.9091
 2132TIP3    H227812   2.588   5.142  11.186  1.4237  1.0581  2.0221
 2133TIP3   OH227813   1.844   2.220   5.828  0.2765 -0.5179  0.1958
 2133TIP3    H127814   1.889   2.224   5.913 -0.3345 -0.7331  0.5350
 2133TIP3    H227815   1.909   2.182   5.769  1.3708  1.3284  0.1115
 2134TIP3   OH227816   4.626   2.300  14.536  0.0258 -0.3895 -0.2482
 2134TIP3    H127817   4.585   2.266  14.615 -2.2501 -0.7059 -1.4807
 2134TIP3    H227818   4.594   2.243  14.466  2.0778 -0.2092 -1.4307
 2135TIP3   OH227819   4.640   6.338   4.836 -0.2622  0.1563  0.1382
 2135TIP3    H127820   4.622   6.295   4.752  0.8931 -0.0659 -0.0043
 2135TIP3    H227821   4.644   6.267   4.899  0.5584  0.1548  0.0896
 2136TIP3   OH227822   6.233   4.024   2.848 -0.1296 -0.0515  0.1449
 2136TIP3    H127823   6.318   3.985   2.869 -0.5561 -1.9454 -1.3169
 2136TIP3    H227824   6.254   4.109   2.809  0.9808  0.2064  1.2563
 2137TIP3   OH227825   4.471   5.050  14.624  0.1155  0.3929  0.5067
 2137TIP3    H127826   4.475   5.117  14.556 -1.8003 -0.2617 -0.3260
 2137TIP3    H227827   4.490   4.968  14.579  2.2932  0.2815  1.4885
 2138TIP3   OH227828   3.978   5.065  13.567  0.7497 -0.0785  0.5296
 2138TIP3    H127829   3.899   5.034  13.524 -0.3929  1.9003  1.0700
 2138TIP3    H227830   4.001   5.146  13.521  1.9377 -0.1397  0.9671
 2139TIP3   OH227831   2.978   2.037  13.803  0.4161  0.4840  0.2748
 2139TIP3    H127832   2.902   2.062  13.855  0.5961  1.0279  0.2832
 2139TIP3    H227833   2.997   1.947  13.829 -2.4123 -1.0651 -2.3082
 2140TIP3   OH227834   5.687   2.591  12.150 -0.8308 -0.5734  1.2428
 2140TIP3    H127835   5.780   2.592  12.172 -0.9008  1.0841  1.5884
 2140TIP3    H227836   5.685   2.568  12.057 -0.0833 -0.7392  1.2597
 2141TIP3   OH227837   5.829   0.863   5.468  0.1868 -0.3230  0.0282
 2141TIP3    H127838   5.812   0.809   5.392 -1.4616  0.5679 -0.2762
 2141TIP3    H227839   5.909   0.912   5.446  0.5438 -1.1289 -0.4994
 2142TIP3   OH227840   6.023   4.149   4.479 -0.0890 -0.1971  0.4642
 2142TIP3    H127841   5.935   4.164   4.445 -0.0755 -1.2382 -0.0761
 2142TIP3    H227842   6.012   4.080   4.545  0.3435 -0.5543  0.1760
 2143TIP3   OH227843   0.375   6.187   6.821  0.2244 -0.0222 -0.2988
 2143TIP3    H127844   0.383   6.243   6.898  0.2139  1.1765 -1.1469
 2143TIP3    H227845   0.291   6.210   6.783  0.7569  0.2654 -1.3344
 2144TIP3   OH227846   0.844   6.625   2.247  0.1928 -0.2898 -0.2869
 2144TIP3    H127847   0.802   6.540   2.255 -2.3071  1.0533  2.3161
 2144TIP3    H227848   0.772   6.687   2.232  1.4749  1.7939  1.5381
 2145TIP3   OH227849   3.173   1.847   0.343  0.1181  0.3885  0.4695
 2145TIP3    H127850   3.185   1.933   0.383  0.1819  1.0984 -1.0075
 2145TIP3    H227851   3.078   1.840   0.328  0.0958  0.1398  0.7249
 2146TIP3   OH227852   5.793   2.887  14.205  0.1689 -0.0151 -0.4177
 2146TIP3    H127853   5.879   2.927  14.211 -0.6376  1.6047  0.9861
 2146TIP3    H227854   5.811   2.795  14.185  2.2569  0.0910  0.7211
 2147TIP3   OH227855   0.340   4.458  12.758  0.2594 -0.0032  0.3205
 2147TIP3    H127856   0.343   4.469  12.853  0.7305  0.6398  0.2351
 2147TIP3    H227857   0.258   4.411  12.742 -1.9827  3.4312  0.6740
 2148TIP3   OH227858   4.044   6.162   4.583 -0.4010  0.0828 -0.3735
 2148TIP3    H127859   4.060   6.222   4.510 -0.4830  0.0440 -0.4233
 2148TIP3    H227860   3.952   6.138   4.574 -0.8271  1.2310  0.6005
 2149TIP3   OH227861   5.766   1.077   3.050 -0.4236  0.8977 -0.0952
 2149TIP3    H127862   5.785   1.148   3.111  1.0444  0.4120  0.0474
 2149TIP3    H227863   5.829   1.090   2.978 -1.0476  0.5185 -0.7205
 2150TIP3   OH227864   1.380   6.506  11.555  0.2720  0.0534  0.1400
 2150TIP3    H127865   1.470   6.488  11.531  0.8498 -0.9798  2.7398
 2150TIP3    H227866   1.333   6.424  11.540 -0.2472  0.5693 -1.1507
 2151TIP3   OH227867   3.677   0.261  17.194  0.5318 -0.3288  0.1532
 2151TIP3    H127868   3.634   0.225  17.271  0.3483 -0.3405  0.0465
 2151TIP3    H227869   3.609   0.310  17.149  0.3228 -1.2824 -0.6119
 2152TIP3   OH227870   5.742   2.258   1.729 -0.3906  0.0617 -1.0102
 2152TIP3    H127871   5.813   2.216   1.776 -1.1435 -1.3555 -1.0987
 2152TIP3    H227872   5.782   2.336   1.689  0.6309  0.4106  0.5922
 2153TIP3   OH227873   6.647   0.570  15.209 -0.5811 -0.3700  0.4668
 2153TIP3    H127874   6.643   0.561  15.113  2.0013  1.7884  0.0479
 2153TIP3    H227875   6.656   0.664  15.224  2.2192 -0.8583  2.6107
 2154TIP3   OH227876   5.924   2.187   5.757  0.1333 -0.5874  0.8805
 2154TIP3    H127877   5.907   2.238   5.678  0.1831 -1.5666  0.2192
 2154TIP3    H227878   6.016   2.161   5.750  0.2399 -0.3675  1.4468
 2155TIP3   OH227879   0.621   6.353   1.258 -0.4976  0.6043 -0.5086
 2155TIP3    H127880   0.562   6.374   1.330  0.8942 -1.0733  1.2290
 2155TIP3    H227881   0.566   6.307   1.195 -1.1676 -0.7148  0.9590
 2156TIP3   OH227882   5.923   6.084  11.375 -0.1698  0.2279  0.5370
 2156TIP3    H127883   5.966   6.167  11.396 -1.0207  0.8071  0.0296
 2156TIP3    H227884   5.972   6.019  11.425  2.8221  0.5019 -1.7268
 2157TIP3   OH227885   2.231   2.144  11.672 -0.2089 -0.3762 -0.4266
 2157TIP3    H127886   2.165   2.191  11.622  0.5896  0.7477 -0.4642
 2157TIP3    H227887   2.281   2.096  11.606  0.2870  0.4030 -0.6326
 2158TIP3   OH227888   4.358   3.409  11.814  0.1299 -0.3914 -0.1074
 2158TIP3    H127889   4.355   3.320  11.851  1.2521  0.0830  1.2184
 2158TIP3    H227890   4.324   3.465  11.885 -0.2347  0.2763 -0.7973
 2159TIP3   OH227891   1.877   0.281   5.926  0.5725 -0.1636  0.3171
 2159TIP3    H127892   1.796   0.231   5.923  1.8802 -2.4724  0.9364
 2159TIP3    H227893   1.863   0.345   5.996 -1.0614  0.2076 -0.3063
 2160TIP3   OH227894   4.334   1.085   3.020  0.3038  0.6550 -0.2063
 2160TIP3    H127895   4.242   1.072   2.998  0.3340  2.0108 -1.2965
 2160TIP3    H227896   4.380   1.016   2.972 -0.0424  0.6609 -0.5500
 2161TIP3   OH227897   5.828   1.477   4.523  0.8290  0.6124 -0.0872
 2161TIP3    H127898   5.897   1.467   4.588  0.9675  1.8865 -0.0249
 2161TIP3    H227899   5.871   1.462   4.439  0.7726 -0.4497  0.0619
 2162TIP3   OH227900   1.705   3.325  15.467  0.4618 -0.1885 -0.1109
 2162TIP3    H127901   1.630   3.273  15.438 -1.3256  2.0324  0.1942
 2162TIP3    H227902   1.763   3.329  15.391 -1.0443  0.2321 -1.2894
 2163TIP3   OH227903   3.551   3.821  14.414  0.0398  0.5015 -0.2172
 2163TIP3    H127904   3.644   3.817  14.390 -0.1488 -0.4935 -0.8387
 2163TIP3    H227905   3.504   3.817  14.331 -0.5674  0.4052  0.1212
 2164TIP3   OH227906   6.016   4.932  12.584 -0.3151 -0.2310  0.2647
 2164TIP3    H127907   6.057   4.849  12.557 -1.0978  0.1160 -2.2132
 2164TIP3    H227908   5.923   4.921  12.563 -0.7430  0.6482  1.5898
 2165TIP3   OH227909   2.091   0.750  11.924 -0.5806  0.2490  0.6002
 2165TIP3    H127910   2.116   0.682  11.986  2.1831 -0.9107 -1.5485
 2165TIP3    H227911   2.121   0.832  11.964  1.1816 -0.4705  0.8394
 2166TIP3   OH227912   1.442   4.342   1.842  0.6230 -0.0625 -0.7245
 2166TIP3    H127913   1.443   4.376   1.752  0.4040  0.3045 -0.5895
 2166TIP3    H227914   1.430   4.419   1.897  2.8930  0.0064 -0.2214
 2167TIP3   OH227915   4.797   5.069  17.344  0.2097 -0.0261 -0.4797
 2167TIP3    H127916   4.861   5.138  17.327 -0.2245  0.6576  0.5772
 2167TIP3    H227917   4.754   5.095  17.425  0.1252 -1.6253  0.0287
 2168TIP3   OH227918   4.727   5.192  12.371  0.3053 -0.2672 -0.0085
 2168TIP3    H127919   4.646   5.198  12.421  0.3939 -0.2644  0.1333
 2168TIP3    H227920   4.776   5.271  12.394 -0.4754  0.7129 -1.5333
 2169TIP3   OH227921   1.807   0.810  14.977 -0.0590 -0.3282  0.3507
 2169TIP3    H127922   1.828   0.772  15.062 -0.7399 -1.7014 -0.0672
 2169TIP3    H227923   1.737   0.873  14.996  2.0417  1.8890  1.2586
 2170TIP3   OH227924   0.060   5.712   3.030  0.3410  0.2508 -0.1399
 2170TIP3    H127925   0.150   5.727   3.061 -0.2146  1.3634  1.0322
 2170TIP3    H227926   0.009   5.701   3.110 -0.7787  0.9960 -0.7315
 2171TIP3   OH227927   3.831   0.150   1.577 -0.2950 -0.6169 -0.1556
 2171TIP3    H127928   3.918   0.114   1.563 -0.1416 -0.3075  0.0060
 2171TIP3    H227929   3.789   0.088   1.636  0.0058 -0.4767  0.2053
 2172TIP3   OH227930   4.468   2.029   3.316  0.1246 -0.0435 -0.1851
 2172TIP3    H127931   4.377   2.049   3.294 -0.0349 -0.9791 -0.4486
 2172TIP3    H227932   4.487   1.948   3.267  1.6059  0.9750 -1.3986
 2173TIP3   OH227933   3.660   0.893   1.701  0.0203  0.2063  0.0056
 2173TIP3    H127934   3.637   0.875   1.610 -0.6299 -0.1799  0.2373
 2173TIP3    H227935   3.576   0.909   1.745  0.3249  0.4116  0.5345
 2174TIP3   OH227936   0.587   5.839  11.292  0.0047 -0.1688  0.4947
 2174TIP3    H127937   0.574   5.892  11.214  2.1224  2.1197  1.5553
 2174TIP3    H227938   0.556   5.752  11.267  0.6851  0.4181 -2.9310
 2175TIP3   OH227939   0.245   0.360  11.935  0.3236 -0.1961 -0.4556
 2175TIP3    H127940   0.310   0.295  11.910  0.0571 -0.5636 -0.1985
 2175TIP3    H227941   0.165   0.310  11.950 -0.2146  0.3372 -1.4808
 2176TIP3   OH227942   6.449   3.275  17.404  0.6621 -0.0327 -0.7071
 2176TIP3    H127943   6.476   3.281  17.313 -0.8953  2.1760 -1.1193
 2176TIP3    H227944   6.373   3.218  17.404  1.9515 -1.8403 -0.3807
 2177TIP3   OH227945   3.202   3.865  11.441  0.0080 -0.6120 -0.3364
 2177TIP3    H127946   3.143   3.882  11.368 -0.5057 -1.2379 -0.0795
 2177TIP3    H227947   3.273   3.928  11.430 -1.8075  1.7330  0.5973
 2178TIP3   OH227948   0.229   5.406  13.651  0.1426 -0.0090  0.2499
 2178TIP3    H127949   0.142   5.434  13.679 -0.1986 -0.2182 -0.5642
 2178TIP3    H227950   0.286   5.480  13.671 -0.4167  0.5514 -0.2019
 2179TIP3   OH227951   0.581   1.719   3.916 -0.3093 -0.6428 -0.8655
 2179TIP3    H127952   0.598   1.746   3.825  1.8833  0.1743 -0.2796
 2179TIP3    H227953   0.543   1.796   3.957  0.4197 -0.3890 -0.6538
 2180TIP3   OH227954   3.293   0.167   0.118 -0.5641 -0.1539  0.5129
 2180TIP3    H127955   3.233   0.094   0.099 -1.5710  0.4535  1.2865
 2180TIP3    H227956   3.236   0.239   0.145  0.3657  1.1488 -0.8442
 2181TIP3   OH227957   4.183   1.625  16.872 -0.3363  0.5086  0.0791
 2181TIP3    H127958   4.175   1.538  16.832  2.3868 -0.3341  1.1554
 2181TIP3    H227959   4.094   1.645  16.903 -1.3342 -1.2376 -1.4095
 2182TIP3   OH227960   1.216   5.982  17.143 -0.7861 -0.2327  0.5007
 2182TIP3    H127961   1.281   5.950  17.206 -0.9052  0.3841  0.9458
 2182TIP3    H227962   1.224   5.922  17.069 -1.4684 -1.7106  1.5707
 2183TIP3   OH227963   5.735   2.427  12.896  0.4933  0.7748 -0.1618
 2183TIP3    H127964   5.661   2.396  12.948  0.7932  1.6299  0.7945
 2183TIP3    H227965   5.704   2.423  12.805  0.9412 -3.5701 -0.3444
 2184TIP3   OH227966   3.226   2.941  14.388  0.4821 -0.1383  0.4581
 2184TIP3    H127967   3.305   2.910  14.344  0.4966 -1.4036  1.3132
 2184TIP3    H227968   3.252   2.949  14.480 -0.7624 -2.1870  1.0613
 2185TIP3   OH227969   2.189   3.838   3.121  0.1057 -0.1891  1.0725
 2185TIP3    H127970   2.121   3.903   3.098  0.8109  0.1229 -0.2385
 2185TIP3    H227971   2.146   3.781   3.185 -1.7656 -0.6265 -0.4687
 2186TIP3   OH227972   4.089   3.241  17.231  0.5368  0.4949 -0.1278
 2186TIP3    H127973   4.001   3.203  17.236  0.5685  0.0893 -1.9747
 2186TIP3    H227974   4.073   3.336  17.225  0.3575  0.6302  1.8275
 2187TIP3   OH227975   1.553   2.872  12.289  0.6836  0.0285 -0.0028
 2187TIP3    H127976   1.575   2.906  12.376  0.0734  1.7082 -0.4491
 2187TIP3    H227977   1.476   2.818  12.302 -0.5587  1.7905  0.2990
 2188TIP3   OH227978   0.437   4.030   2.683 -0.7544  0.1156  0.0488
 2188TIP3    H127979   0.425   4.125   2.672 -2.0432 -0.0667 -0.2563
 2188TIP3    H227980   0.399   4.011   2.768  0.7756  0.0577  0.7672
 2189TIP3   OH227981   5.651   4.863   4.872  0.0599  0.4375 -0.4977
 2189TIP3    H127982   5.742   4.834   4.873  0.0422  0.3625 -0.8981
 2189TIP3    H227983   5.648   4.936   4.933 -0.2173 -1.3690  1.8273
 2190TIP3   OH227984   5.330   3.922  10.654  0.4550 -0.4182  0.1759
 2190TIP3    H127985   5.404   3.862  10.656 -0.4698 -1.7832 -2.5051
 2190TIP3    H227986   5.362   3.997  10.604  0.3946 -0.4680  0.0630
 2191TIP3   OH227987   5.661   4.067   3.089 -0.0212  0.2313  0.7630
 2191TIP3    H127988   5.724   4.014   3.138  2.1188  1.2814 -0.6887
 2191TIP3    H227989   5.710   4.097   3.013 -2.1606  1.5821 -0.1588
 2192TIP3   OH227990   0.008   5.881  14.204  0.3260  0.2995  0.3957
 2192TIP3    H127991   0.096   5.866  14.170 -0.0465 -1.0596 -0.0523
 2192TIP3    H227992  -0.050   5.859  14.132 -0.4107 -0.1598  1.1082
 2193TIP3   OH227993   1.455   0.203  14.513  0.3128  0.3386 -0.0997
 2193TIP3    H127994   1.430   0.280  14.462  1.2722  3.0802  3.1736
 2193TIP3    H227995   1.550   0.194  14.498  0.1387 -0.5542 -0.7877
 2194TIP3   OH227996   0.865   5.372  14.468 -0.6692  0.2795 -0.5770
 2194TIP3    H127997   0.952   5.349  14.436  0.0248 -0.2358  1.5320
 2194TIP3    H227998   0.806   5.310  14.424  0.0400  0.4288 -1.7836
 2195TIP3   OH227999   1.138   0.818  15.333  0.0764 -0.0094 -0.1635
 2195TIP3    H128000   1.220   0.851  15.295  0.5221  0.4618  1.1054
 2195TIP3    H228001   1.085   0.897  15.345 -0.6252 -0.3315 -1.0953
 2196TIP3   OH228002   6.530   1.915  12.139 -0.0251 -0.1802 -0.0301
 2196TIP3    H128003   6.596   1.984  12.144 -0.8577  0.6030  0.4928
 2196TIP3    H228004   6.581   1.834  12.127  1.1203  0.2245  1.7079
 2197TIP3   OH228005   1.182   5.366   2.197  0.0156  0.0889 -0.5670
 2197TIP3    H128006   1.274   5.375   2.220 -0.8247  1.0312  2.9037
 2197TIP3    H228007   1.184   5.325   2.110  3.6536  0.6594 -0.9311
 2198TIP3   OH228008   0.913   1.285  16.365  0.4946  0.3964  0.3831
 2198TIP3    H128009   0.997   1.242  16.346  0.1540 -0.1041 -0.0012
 2198TIP3    H228010   0.847   1.228  16.327  0.1231  2.4215 -2.3134
 2199TIP3   OH228011   1.621   5.932  13.231  0.2472  0.3207 -0.2197
 2199TIP3    H128012   1.589   5.875  13.160  0.1549 -0.5539  0.5116
 2199TIP3    H228013   1.669   5.873  13.289 -0.9371  0.7505  1.2354
 2200TIP3   OH228014   2.412   1.545   4.436 -0.3918  0.0287  0.4747
 2200TIP3    H128015   2.368   1.574   4.516  0.3083 -0.5910  1.1071
 2200TIP3    H228016   2.431   1.625   4.388  1.3858  0.6683  2.1027
 2201TIP3   OH228017   2.888   6.053   4.825 -0.1470  0.6118 -0.4313
 2201TIP3    H128018   2.843   6.134   4.801 -0.4968  0.6938  0.4967
 2201TIP3    H228019   2.906   6.061   4.918 -2.8882 -1.6405  0.4389
 2202TIP3   OH228020   4.921   2.010  16.379 -0.0494 -0.6799 -0.4111
 2202TIP3    H128021   4.858   2.077  16.352  1.3888  0.6968 -0.5487
 2202TIP3    H228022   4.890   1.929  16.339  0.0226  0.5647 -3.1962
 2203TIP3   OH228023   6.357   3.082   6.511  0.2074  0.1865  0.3373
 2203TIP3    H128024   6.389   2.993   6.524  1.1009  0.6385  1.4438
 2203TIP3    H228025   6.262   3.074   6.510  0.2466 -0.6634  1.4977
 2204TIP3   OH228026   0.216   1.983  17.457 -0.3324 -0.4641  0.1418
 2204TIP3    H128027   0.299   1.935  17.455 -0.2504 -0.3207  0.1568
 2204TIP3    H228028   0.149   1.914  17.453 -0.2135 -0.5511 -0.5581
 2205TIP3   OH228029   6.567   1.630  15.549 -0.0958  0.1817  0.1872
 2205TIP3    H128030   6.509   1.565  15.507  0.2079 -1.0961  1.6546
 2205TIP3    H228031   6.510   1.702  15.572 -0.3285  0.8050 -2.1084
 2206TIP3   OH228032   0.488   4.594  13.771  0.5709 -0.7415 -0.2519
 2206TIP3    H128033   0.529   4.627  13.691  0.5452  3.1867  1.1176
 2206TIP3    H228034   0.414   4.542  13.741  1.6838 -1.0088 -2.7439
 2207TIP3   OH228035   2.808   0.636  15.043  0.2032  0.5261 -0.6637
 2207TIP3    H128036   2.830   0.719  15.002 -0.0411  1.0317  0.1973
 2207TIP3    H228037   2.743   0.596  14.985  0.9240  0.5480 -1.5057
 2208TIP3   OH228038   5.032   5.357   1.915  0.5283 -0.2882 -0.2285
 2208TIP3    H128039   4.941   5.384   1.901  0.3044 -0.3514  1.0215
 2208TIP3    H228040   5.046   5.370   2.008  1.4211 -1.4765 -0.1846
 2209TIP3   OH228041   5.405   6.405   6.068 -0.1136 -0.1583 -0.4424
 2209TIP3    H128042   5.406   6.464   6.144  1.2294 -1.2521  0.4272
 2209TIP3    H228043   5.394   6.464   5.993  2.3943  1.3631  0.2778
 2210TIP3   OH228044   0.534   3.893  16.514 -0.1115 -0.0875 -0.5610
 2210TIP3    H128045   0.551   3.808  16.556 -1.2830 -1.0539 -1.9313
 2210TIP3    H228046   0.451   3.881  16.469 -0.3961  1.8820 -0.6326
 2211TIP3   OH228047   4.822   1.597  12.514  0.5956 -0.4059  0.5624
 2211TIP3    H128048   4.772   1.633  12.441  0.9136 -0.1703  0.4566
 2211TIP3    H228049   4.912   1.593  12.481  1.4956  3.0686  2.0695
 2212TIP3   OH228050   5.664   4.238   2.329 -0.2761  0.0629 -0.1866
 2212TIP3    H128051   5.615   4.289   2.393  0.5592 -0.1172  0.6215
 2212TIP3    H228052   5.695   4.162   2.378  2.1511  0.9591 -0.2094
 2213TIP3   OH228053   6.672   1.886   4.294  0.5469  0.1262  0.4450
 2213TIP3    H128054   6.750   1.838   4.322  0.5967  0.5478  1.0683
 2213TIP3    H228055   6.626   1.906   4.376 -0.1189  0.0461  0.1000
 2214TIP3   OH228056   2.196   6.088  12.037  0.4416 -0.4707  0.1531
 2214TIP3    H128057   2.194   6.027  12.111  0.3014  0.5824  1.0358
 2214TIP3    H228058   2.252   6.159  12.065  0.2522  0.0309 -0.6971
 2215TIP3   OH228059   4.056   3.362   1.254  0.4301 -0.1577  1.0978
 2215TIP3    H128060   4.105   3.444   1.242 -0.1309  0.0546  0.1365
 2215TIP3    H228061   3.986   3.367   1.189 -1.1170 -0.2823  2.6853
 2216TIP3   OH228062   5.043   0.406   4.204  0.0830 -0.0812 -0.4723
 2216TIP3    H128063   4.980   0.474   4.181  0.9694  0.6310 -0.8868
 2216TIP3    H228064   5.009   0.326   4.162  0.6753  0.7916 -2.8007
 2217TIP3   OH228065   0.692   4.070   1.717  0.4228  0.0584  0.0110
 2217TIP3    H128066   0.785   4.091   1.726  0.2284  2.2179 -1.8564
 2217TIP3    H228067   0.661   4.055   1.806  2.7541 -1.9268  0.5829
 2218TIP3   OH228068   0.842   6.704  17.207  0.6697 -0.2367 -0.5077
 2218TIP3    H128069   0.896   6.635  17.169 -0.6160 -1.2268 -0.5968
 2218TIP3    H228070   0.861   6.701  17.301  0.8168 -0.5158 -0.5458
 2219TIP3   OH228071   1.730   0.438  11.346 -0.5938  0.3729 -0.3572
 2219TIP3    H128072   1.646   0.476  11.322 -1.1708 -0.6747 -0.0607
 2219TIP3    H228073   1.786   0.455  11.270 -1.8550 -1.2345 -1.7312
 2220TIP3   OH228074   3.932   1.250   0.659  0.0167  0.5245 -0.0786
 2220TIP3    H128075   3.919   1.170   0.711 -0.5998  0.0515 -0.9433
 2220TIP3    H228076   3.846   1.269   0.621 -0.3563  2.7261  1.6519
 2221TIP3   OH228077   6.134   1.049   1.545  0.1355  0.0272  0.4563
 2221TIP3    H128078   6.080   1.022   1.619 -0.5235 -1.6217 -0.5772
 2221TIP3    H228079   6.074   1.050   1.470  1.6968 -3.5102 -1.0852
 2222TIP3   OH228080   1.808   6.609   4.319  0.1842  0.7476  0.4949
 2222TIP3    H128081   1.804   6.556   4.399 -0.0473  0.2813  0.1761
 2222TIP3    H228082   1.718   6.610   4.286  0.6568 -0.9473 -0.9776
 2223TIP3   OH228083   1.257   6.606  12.786 -0.1205 -0.0106  0.5034
 2223TIP3    H128084   1.249   6.573  12.697  0.5092  1.7781 -0.2616
 2223TIP3    H228085   1.274   6.528  12.839 -0.1928 -1.0706 -0.9709
 2224TIP3   OH228086   1.216   2.405   4.182 -0.2896 -0.4636  0.0584
 2224TIP3    H128087   1.199   2.424   4.274  1.4015  0.4690  0.2217
 2224TIP3    H228088   1.303   2.440   4.166 -0.4049 -0.9205 -1.8235
 2225TIP3   OH228089   0.261   5.414  16.023  0.1316  0.1477  0.2385
 2225TIP3    H128090   0.246   5.469  16.100  2.7650 -1.5430  2.1175
 2225TIP3    H228091   0.228   5.328  16.048  2.9509 -0.9742  0.4440
 2226TIP3   OH228092   6.541   3.406  11.559 -0.1210  0.2869 -0.1007
 2226TIP3    H128093   6.609   3.444  11.615 -0.6591 -0.1103  0.8436
 2226TIP3    H228094   6.507   3.480  11.509 -0.5442  0.9072  1.0735
 2227TIP3   OH228095   0.952   0.293   1.083  0.1001 -0.0877 -0.1678
 2227TIP3    H128096   0.990   0.352   1.019  2.5008 -1.2936  0.0371
 2227TIP3    H228097   1.019   0.226   1.097 -1.3779 -1.2860  1.6896
 2228TIP3   OH228098   5.225   2.816  13.929 -0.4522 -0.7592 -0.1990
 2228TIP3    H128099   5.275   2.870  13.990 -0.1819 -1.7032  0.4386
 2228TIP3    H228100   5.288   2.792  13.861 -0.2046 -1.3436  0.2201
 2229TIP3   OH228101   1.200   3.867   2.071 -0.3547 -0.1671  0.0734
 2229TIP3    H128102   1.147   3.943   2.046  1.0466  0.7342 -0.2738
 2229TIP3    H228103   1.197   3.809   1.994  1.1995  1.0560 -0.9700
 2230TIP3   OH228104   2.903   2.160  16.024 -0.0334  0.0058 -0.2348
 2230TIP3    H128105   2.839   2.185  16.090  0.1804 -3.0566  1.2665
 2230TIP3    H228106   2.856   2.101  15.966  0.7581 -0.1840 -0.7001
 2231TIP3   OH228107   3.093   1.929  17.041 -0.1785 -0.0583 -0.0401
 2231TIP3    H128108   3.076   1.986  17.116 -1.9778  0.8114 -1.0337
 2231TIP3    H228109   3.158   1.866  17.072  0.1511  1.1249  1.7993
 2232TIP3   OH228110   4.932   6.523  15.790  0.5512  0.6344 -0.0699
 2232TIP3    H128111   5.025   6.513  15.812  1.5018  2.3494 -2.7626
 2232TIP3    H228112   4.930   6.518  15.694 -2.3623 -0.6710 -0.0311
 2233TIP3   OH228113   5.065   3.082  14.981 -0.1502  0.7684 -0.5318
 2233TIP3    H128114   5.097   2.996  14.954  1.5438  0.9231  0.8542
 2233TIP3    H228115   5.103   3.142  14.917  0.6399  0.7269 -0.1096
 2234TIP3   OH228116   0.302   5.177   4.049 -0.3923 -0.1429  0.6676
 2234TIP3    H128117   0.287   5.141   4.137 -1.6868  0.1915  0.5962
 2234TIP3    H228118   0.215   5.185   4.011  0.1213  0.1414 -0.4920
 2235TIP3   OH228119   2.712   1.055   4.242  0.6376 -0.2479 -0.1810
 2235TIP3    H128120   2.642   1.121   4.244  1.0258  0.1732 -0.1851
 2235TIP3    H228121   2.666   0.972   4.233  0.0812 -0.0679  0.7753
 2236TIP3   OH228122   5.890   2.132   0.928  0.1399 -0.1083 -0.8374
 2236TIP3    H128123   5.839   2.083   0.864  0.5201  0.2557 -1.4326
 2236TIP3    H228124   5.837   2.210   0.946 -0.9890 -1.2198  0.9434
 2237TIP3   OH228125   0.963   4.839  12.690  0.2134  0.3458 -0.0312
 2237TIP3    H128126   1.016   4.795  12.624  1.5851  0.8682  0.6881
 2237TIP3    H228127   0.900   4.772  12.718  0.1059 -0.1113 -1.2983
 2238TIP3   OH228128   1.423   3.204  12.308  0.2532  0.8350 -0.2891
 2238TIP3    H128129   1.502   3.166  12.346 -0.9612 -0.5460  1.0079
 2238TIP3    H228130   1.352   3.169  12.361 -1.4785 -0.2228 -3.0956
 2239TIP3   OH228131   3.576   2.038   4.113 -0.2315  0.6660 -0.5213
 2239TIP3    H128132   3.580   2.042   4.208  1.6721  0.6583 -0.5734
 2239TIP3    H228133   3.482   2.044   4.093 -0.6579  0.7332  1.3294
 2240TIP3   OH228134   3.150   3.589   1.748 -0.7079 -0.0210  0.3404
 2240TIP3    H128135   3.223   3.530   1.768 -0.2417 -0.3115 -1.9018
 2240TIP3    H228136   3.090   3.536   1.696 -0.8776  1.1244 -0.6696
 2241TIP3   OH228137   6.011   1.881  16.788  0.1793 -0.1141  0.4427
 2241TIP3    H128138   6.036   1.881  16.696  1.1110  0.8285  0.6736
 2241TIP3    H228139   6.051   1.802  16.823 -0.8308 -0.8961 -0.1048
 2242TIP3   OH228140   0.748   1.277   4.347 -0.0638  0.1387  0.4097
 2242TIP3    H128141   0.774   1.368   4.360  1.3632 -0.1525 -0.1756
 2242TIP3    H228142   0.762   1.262   4.253  0.8895 -1.0224  0.7218
 2243TIP3   OH228143   0.558   0.237   1.555  0.6620 -0.4734  0.0948
 2243TIP3    H128144   0.571   0.228   1.650  0.2162  1.8966  0.4525
 2243TIP3    H228145   0.625   0.182   1.516  3.3235  1.2746  1.8468
 2244TIP3   OH228146   0.532   2.437  11.956  0.3579  0.3079 -0.9008
 2244TIP3    H128147   0.578   2.353  11.954 -0.1099 -0.0106  0.5795
 2244TIP3    H228148   0.467   2.428  12.026 -0.3290  1.5896 -1.3312
 2245TIP3   OH228149   3.243   1.618  12.780  0.3652 -0.5577 -0.2290
 2245TIP3    H128150   3.180   1.577  12.840  0.5572 -0.4217  0.0709
 2245TIP3    H228151   3.324   1.568  12.794  0.7118  0.1615  0.4267
 2246TIP3   OH228152   5.138   1.453  16.518  0.3653 -0.0491 -0.2337
 2246TIP3    H128153   5.212   1.437  16.459 -0.3343 -0.8170 -0.9308
 2246TIP3    H228154   5.097   1.367  16.529  0.4102  0.0981  1.2968
 2247TIP3   OH228155   1.032   0.127  13.351  0.1076 -0.6129 -0.2882
 2247TIP3    H128156   1.039   0.081  13.267 -0.9533 -2.0305  0.3573
 2247TIP3    H228157   1.113   0.105  13.396  0.5930 -0.0118 -0.8414
 2248TIP3   OH228158   5.600   0.603   2.227  0.2217 -0.0956 -0.0571
 2248TIP3    H128159   5.637   0.659   2.295  0.0979  0.3292 -0.3378
 2248TIP3    H228160   5.638   0.517   2.244 -1.5531 -0.5498  1.9238
 2249TIP3   OH228161   2.432   2.142   3.309  0.1646 -0.4802 -0.6328
 2249TIP3    H128162   2.428   2.062   3.257 -1.1075  0.3438 -1.8474
 2249TIP3    H228163   2.357   2.136   3.368 -0.5627  0.2842 -1.4567
 2250TIP3   OH228164   5.694   1.126   3.401 -0.3067  0.5051 -0.4069
 2250TIP3    H128165   5.725   1.093   3.486 -1.3829  0.0196 -0.1863
 2250TIP3    H228166   5.722   1.217   3.400  0.4173  0.3042  0.1218
 2251TIP3   OH228167   2.651   5.285   5.787  0.0310 -0.3472 -0.1237
 2251TIP3    H128168   2.736   5.249   5.762 -0.1481 -1.4612  0.7848
 2251TIP3    H228169   2.627   5.238   5.867 -2.0255 -0.9946 -1.0301
 2252TIP3   OH228170   1.857   3.482   2.740 -0.2432  0.2268  0.8065
 2252TIP3    H128171   1.888   3.479   2.831 -0.4064 -0.3085  0.8486
 2252TIP3    H228172   1.773   3.435   2.741 -0.4889  0.6540  0.4729
 2253TIP3   OH228173   1.506   3.436  13.155  0.1758  0.0384  0.1027
 2253TIP3    H128174   1.480   3.515  13.203 -0.7757  0.5877 -1.2580
 2253TIP3    H228175   1.434   3.375  13.170 -0.5068  0.4841 -1.1993
 2254TIP3   OH228176   6.508   5.786   5.458  0.1386  0.0155  0.2343
 2254TIP3    H128177   6.448   5.719   5.424  0.2147 -0.0649  0.2580
 2254TIP3    H228178   6.584   5.781   5.401 -0.2077  0.6727 -0.2950
 2255TIP3   OH228179   2.526   5.043   4.827  0.1867 -0.7507 -0.4697
 2255TIP3    H128180   2.501   5.012   4.740  0.7576 -0.0010 -0.9064
 2255TIP3    H228181   2.583   5.118   4.811  1.8014 -1.7008  0.5252
 2256TIP3   OH228182   0.743   6.673   4.339  0.3630  0.3365  1.1211
 2256TIP3    H128183   0.648   6.663   4.333  0.0969  2.0157  1.8225
 2256TIP3    H228184   0.771   6.602   4.397 -0.2382 -1.0411 -0.1992
 2257TIP3   OH228185   4.504   5.431   2.778 -0.2091 -0.0465 -0.3918
 2257TIP3    H128186   4.554   5.434   2.696  0.4211  1.7673 -0.0008
 2257TIP3    H228187   4.567   5.457   2.845 -0.9846 -0.4772  0.5154
 2258TIP3   OH228188   0.158   1.999   5.833 -0.4833  0.1739 -0.3655
 2258TIP3    H128189   0.243   2.025   5.797 -0.4740 -1.6180 -1.7887
 2258TIP3    H228190   0.172   1.909   5.864 -1.8740 -0.1771 -0.7093
 2259TIP3   OH228191   5.054   5.386  13.981 -0.4613  0.4800  0.2264
 2259TIP3    H128192   5.020   5.470  13.950  0.6998  0.5522 -0.9579
 2259TIP3    H228193   4.975   5.334  13.999 -1.2318  1.0295 -1.2976
 2260TIP3   OH228194   4.658   5.474  15.492 -0.2109  0.1839  0.5711
 2260TIP3    H128195   4.675   5.568  15.494 -1.5568  0.4602  0.3061
 2260TIP3    H228196   4.715   5.438  15.560  0.3191  1.1867  0.6756
 2261TIP3   OH228197   5.432   4.900   2.464  0.2935  0.0905  0.7239
 2261TIP3    H128198   5.454   4.815   2.503 -0.6267  0.1241  1.3371
 2261TIP3    H228199   5.368   4.881   2.396 -0.9781  0.4253  1.8029
 2262TIP3   OH228200   4.456   1.552   5.253  1.2068  0.2291  0.0560
 2262TIP3    H128201   4.381   1.609   5.236  1.4426  1.9009  3.6724
 2262TIP3    H228202   4.518   1.573   5.184  0.0775  2.1416 -0.4551
 2263TIP3   OH228203   4.107   4.472   0.704 -0.0391 -0.8054 -0.6447
 2263TIP3    H128204   4.028   4.514   0.668  0.2884 -0.4401 -0.9530
 2263TIP3    H228205   4.178   4.531   0.679  0.2145 -0.6116  0.5183
 2264TIP3   OH228206   3.734   3.453   1.302 -0.6257 -0.1543 -0.1280
 2264TIP3    H128207   3.684   3.534   1.308  0.3232  0.4387 -0.0118
 2264TIP3    H228208   3.678   3.393   1.253 -1.7774  0.2110  0.7226
 2265TIP3   OH228209   5.174   2.668   5.551  0.1194  0.0502 -0.2294
 2265TIP3    H128210   5.191   2.758   5.578  1.0202  0.1697 -1.1480
 2265TIP3    H228211   5.212   2.614   5.620 -0.9171  0.3635  0.6091
 2266TIP3   OH228212   0.802   5.353  13.704  0.3986 -0.8782  0.5914
 2266TIP3    H128213   0.796   5.297  13.782  0.5216  0.5501  1.6624
 2266TIP3    H228214   0.805   5.442  13.738  0.0393 -0.1837 -1.0811
 2267TIP3   OH228215   3.646   6.434   0.294 -0.1064  0.5933  0.1250
 2267TIP3    H128216   3.682   6.367   0.352  0.5645  0.0250 -0.9266
 2267TIP3    H228217   3.652   6.515   0.345  1.8030  0.3579  0.3539
 2268TIP3   OH228218   3.280   1.579   6.518 -0.0629  0.4786  0.5133
 2268TIP3    H128219   3.361   1.587   6.568  0.2907 -0.4039  0.0889
 2268TIP3    H228220   3.231   1.659   6.539  1.6993  1.9430 -0.6293
 2269TIP3   OH228221   4.229   4.207  11.887 -0.2767  0.3711  0.2273
 2269TIP3    H128222   4.277   4.183  11.808 -0.0776 -0.3940  0.5742
 2269TIP3    H228223   4.297   4.222  11.953 -0.3989  1.8317  0.0461
 2270TIP3   OH228224   5.346   1.152   5.401  0.2893  0.6479  0.5043
 2270TIP3    H128225   5.328   1.213   5.329 -0.1188  1.5681  1.3766
 2270TIP3    H228226   5.440   1.134   5.394 -0.0075 -0.5765 -1.2448
 2271TIP3   OH228227   3.593   0.344   0.701 -0.1027 -0.0787  0.2555
 2271TIP3    H128228   3.511   0.366   0.656 -0.1018 -0.8784 -0.1646
 2271TIP3    H228229   3.569   0.333   0.793 -0.0490  1.8925  0.5414
 2272TIP3   OH228230   5.493   1.256   6.308 -0.1283  0.1820 -0.9244
 2272TIP3    H128231   5.410   1.304   6.301 -0.7064 -0.2706  1.7316
 2272TIP3    H228232   5.470   1.165   6.292  0.1027  0.1985 -1.3729
 2273TIP3   OH228233   0.051   6.164  12.252 -0.4219  0.0629  0.1818
 2273TIP3    H128234  -0.033   6.210  12.257  0.5653  1.9936 -0.0615
 2273TIP3    H228235   0.043   6.109  12.175 -1.2633  0.6755 -0.1914
 2274TIP3   OH228236   4.755   3.656   0.335  0.1110  0.4575  0.0538
 2274TIP3    H128237   4.795   3.660   0.248  1.0779  0.5522  0.4951
 2274TIP3    H228238   4.692   3.584   0.329  1.6182 -0.9001 -0.1488
 2275TIP3   OH228239   0.304   0.281  14.376  0.4770 -0.2549  0.2441
 2275TIP3    H128240   0.392   0.246  14.360  0.1486 -1.4309  0.9443
 2275TIP3    H228241   0.309   0.316  14.465  0.8358  1.6639 -0.4804
 2276TIP3   OH228242   3.609   0.858   5.086 -0.3902  0.0011 -0.1451
 2276TIP3    H128243   3.551   0.910   5.141 -0.0667 -0.1971  0.3947
 2276TIP3    H228244   3.582   0.877   4.996 -0.8040  0.4685  0.0790
 2277TIP3   OH228245   2.757   0.014  10.994  0.3377  0.3579  0.8564
 2277TIP3    H128246   2.690  -0.027  10.939  0.9716  1.3089 -0.6827
 2277TIP3    H228247   2.822  -0.054  11.008 -0.1747 -0.1016  1.0348
 2278TIP3   OH228248   4.214   5.260   6.587 -0.4062 -0.4487  0.8649
 2278TIP3    H128249   4.300   5.302   6.593  0.1674 -1.5485  0.6476
 2278TIP3    H228250   4.164   5.299   6.658 -0.1080  1.0278  0.3119
 2279TIP3   OH228251   4.265   4.268   0.659 -0.0162  0.0376 -0.3732
 2279TIP3    H128252   4.199   4.320   0.705 -0.7826 -0.7920 -0.5250
 2279TIP3    H228253   4.215   4.211   0.600  0.8310 -0.5961 -0.4991
 2280TIP3   OH228254   1.666   5.989   5.699  0.2256  0.0900  0.2598
 2280TIP3    H128255   1.735   5.962   5.638  1.2474 -2.0985  2.2153
 2280TIP3    H228256   1.585   5.960   5.658  0.8454 -0.9618 -0.2653
 2281TIP3   OH228257   3.324   2.181   0.219  0.0226 -0.5082 -0.2814
 2281TIP3    H128258   3.288   2.165   0.132 -0.2713  0.0579 -0.2679
 2281TIP3    H228259   3.407   2.225   0.202 -0.6905  0.8963 -0.2622
 2282TIP3   OH228260   4.265   2.083  14.143 -0.3778  0.0252  0.1253
 2282TIP3    H128261   4.343   2.064  14.091 -0.3113 -0.7000  0.4878
 2282TIP3    H228262   4.263   2.179  14.147  0.0505  0.0750 -0.5471
 2283TIP3   OH228263   5.674   6.402   2.319 -0.1313 -0.2430 -0.9425
 2283TIP3    H128264   5.584   6.407   2.351  0.6366  1.6929  1.1697
 2283TIP3    H228265   5.700   6.311   2.335 -1.0955 -0.3296  0.2635
 2284TIP3   OH228266   3.362   6.585  12.310  0.6594 -0.5746 -0.3178
 2284TIP3    H128267   3.332   6.496  12.291  0.0983 -0.7834  1.3562
 2284TIP3    H228268   3.291   6.641  12.280  0.1433 -0.8378  0.3719
 2285TIP3   OH228269   2.627   4.231   0.335  0.1847 -0.3492  0.6523
 2285TIP3    H128270   2.660   4.230   0.245 -1.5836 -3.0148 -0.0914
 2285TIP3    H228271   2.691   4.283   0.383  0.9487  1.5966 -2.1920
 2286TIP3   OH228272   3.563   4.860  15.032 -0.7748 -0.5713 -0.2487
 2286TIP3    H128273   3.524   4.928  15.087  0.3439  0.7811 -1.0528
 2286TIP3    H228274   3.634   4.904  14.987  0.0402 -2.3209 -0.7615
 2287TIP3   OH228275   3.399   3.810  15.688  0.4834 -0.0835 -0.3294
 2287TIP3    H128276   3.413   3.904  15.672 -1.1264  0.1821 -0.3178
 2287TIP3    H228277   3.457   3.790  15.762  0.3943  1.0586  0.0825
 2288TIP3   OH228278   4.607   4.616  17.272 -0.2276  0.2693 -0.2700
 2288TIP3    H128279   4.701   4.635  17.264 -0.4655  1.5056 -0.3811
 2288TIP3    H228280   4.576   4.678  17.338 -0.8835 -0.4286  0.0815
 2289TIP3   OH228281   3.877   5.229  14.806 -0.2446  0.3201 -0.3016
 2289TIP3    H128282   3.869   5.184  14.722  0.8288 -0.0663 -0.2037
 2289TIP3    H228283   3.925   5.309  14.786  1.5600 -0.5942  0.2069
 2290TIP3   OH228284   0.071   6.451   2.056  0.0654  0.2440 -0.3311
 2290TIP3    H128285   0.046   6.379   2.113 -0.4816 -0.7085 -1.7417
 2290TIP3    H228286   0.001   6.516   2.068 -1.3810 -0.9810 -1.7057
 2291TIP3   OH228287   0.623   4.146  16.598  0.1465 -0.4795  0.1136
 2291TIP3    H128288   0.620   4.053  16.576  1.5053 -0.4904 -0.0946
 2291TIP3    H228289   0.597   4.191  16.518 -1.6165 -0.6719  0.5260
 2292TIP3   OH228290   1.030   5.731  16.027 -0.0288  0.4814 -0.0684
 2292TIP3    H128291   0.962   5.777  16.075  0.6905  1.0559  0.4297
 2292TIP3    H228292   1.034   5.645  16.068 -0.2459  0.5504  0.0997
 2293TIP3   OH228293   0.810   3.995  12.292  0.6056 -0.4897 -0.1232
 2293TIP3    H128294   0.808   4.085  12.260  0.6772 -0.7995 -1.0180
 2293TIP3    H228295   0.718   3.971  12.300  0.5822 -0.2576  0.3730
 2294TIP3   OH228296   6.351   4.615  12.629  0.1738  0.2256  0.8936
 2294TIP3    H128297   6.303   4.599  12.547 -0.7485  1.4739  1.1729
 2294TIP3    H228298   6.441   4.632  12.601  0.8034 -3.1241  0.4246
 2295TIP3   OH228299   5.550   0.950   2.964 -1.1227 -0.6064 -0.2554
 2295TIP3    H128300   5.502   1.022   2.923  0.2079  0.9788  0.8400
 2295TIP3    H228301   5.632   0.990   2.994  0.0202 -2.7675 -0.3038
 2296TIP3   OH228302   5.311   1.432  17.001  0.1513 -0.0581 -0.6656
 2296TIP3    H128303   5.256   1.509  16.987 -0.7589 -0.4732  0.4786
 2296TIP3    H228304   5.329   1.400  16.912 -2.2418 -0.4477 -1.0838
 2297TIP3   OH228305   1.532   1.740  15.000  0.2537  0.2479 -0.1611
 2297TIP3    H128306   1.523   1.658  14.952 -2.5152  0.1063  0.4350
 2297TIP3    H228307   1.479   1.728  15.079 -0.0263  2.4881  0.0726
 2298TIP3   OH228308   0.584   0.503   1.482 -1.2356 -0.5333 -0.0885
 2298TIP3    H128309   0.585   0.409   1.502 -1.6521 -0.0745  2.5907
 2298TIP3    H228310   0.676   0.527   1.476 -1.0331 -0.7938  1.3851
 2299TIP3   OH228311   4.946   1.372  15.493  0.3147  0.7198  0.4498
 2299TIP3    H128312   5.022   1.334  15.537  0.4178  1.9053  1.3641
 2299TIP3    H228313   4.976   1.458  15.465 -0.5527  1.0224  0.4219
 2300TIP3   OH228314   0.853   4.502   5.438 -0.3859 -0.6130  0.6347
 2300TIP3    H128315   0.885   4.415   5.413  0.9912 -0.3767  1.4369
 2300TIP3    H228316   0.759   4.498   5.425 -0.2055 -1.8242 -0.5387
 2301TIP3   OH228317   4.644   6.149   1.152 -0.4042  0.0684  0.4515
 2301TIP3    H128318   4.605   6.099   1.080 -0.9234  0.3992  0.5011
 2301TIP3    H228319   4.611   6.238   1.140  4.0434  1.6588 -2.3732
 2302TIP3   OH228320   2.382   0.039   0.186  0.3878 -0.2069  0.1236
 2302TIP3    H128321   2.444  -0.024   0.149 -0.4220  0.3958 -2.4458
 2302TIP3    H228322   2.296   0.006   0.162 -0.1271  0.9073  0.3519
 2303TIP3   OH228323   1.405   5.182  11.896 -0.1995  0.2345  0.2889
 2303TIP3    H128324   1.441   5.095  11.876 -1.3244 -0.3849  0.9024
 2303TIP3    H228325   1.471   5.222  11.953  0.5006 -0.0530 -0.2951
 2304TIP3   OH228326   3.539   0.876   1.464 -0.3040 -0.6288  0.0216
 2304TIP3    H128327   3.503   0.831   1.388  1.2267  0.6372 -1.5317
 2304TIP3    H228328   3.477   0.948   1.480  0.1690  0.0328 -1.0392
 2305TIP3   OH228329   5.405   2.012  14.321  0.1807 -0.2846  0.5655
 2305TIP3    H128330   5.416   1.918  14.316  1.2850 -0.1719  0.5975
 2305TIP3    H228331   5.494   2.047  14.322 -0.2031  0.7393  0.9018
 2306TIP3   OH228332   6.343   1.533  11.471 -0.5773  1.0035  0.0540
 2306TIP3    H128333   6.430   1.571  11.461  0.1410 -0.1432  1.4959
 2306TIP3    H228334   6.300   1.549  11.387  1.0902  1.4426 -0.7627
 2307TIP3   OH228335   4.712   4.380   2.483  0.4537 -0.0587  0.0085
 2307TIP3    H128336   4.735   4.319   2.553 -0.9379  0.4993  1.0003
 2307TIP3    H228337   4.693   4.325   2.408  3.0070 -0.6255 -0.3081
 2308TIP3   OH228338   1.162   5.508   5.086  0.1664  0.0519  0.1089
 2308TIP3    H128339   1.247   5.492   5.127  0.2369 -0.3298 -0.1815
 2308TIP3    H228340   1.171   5.472   4.998  0.1467  1.2102 -0.3872
 2309TIP3   OH228341   0.559   0.982   7.177 -0.7657  1.2875  0.6392
 2309TIP3    H128342   0.528   1.072   7.184 -0.5071  1.5794 -1.3190
 2309TIP3    H228343   0.626   0.986   7.109 -1.2323 -0.4936  0.0327
 2310TIP3   OH228344   4.621   2.712   4.510 -0.2768  0.1738  0.5616
 2310TIP3    H128345   4.545   2.718   4.453  0.4220 -1.2777 -0.5920
 2310TIP3    H228346   4.636   2.802   4.540 -0.1401  1.1851 -2.2848
 2311TIP3   OH228347   5.672   3.885   1.731  0.6649 -0.4810 -0.0057
 2311TIP3    H128348   5.738   3.873   1.799  1.8123  1.2081 -0.7641
 2311TIP3    H228349   5.669   3.979   1.716 -0.6210 -0.6842 -1.2772
 2312TIP3   OH228350   1.148   6.335  14.622 -0.3075  0.8354 -0.0282
 2312TIP3    H128351   1.104   6.306  14.542  0.1826 -0.2676  0.0849
 2312TIP3    H228352   1.111   6.422  14.640 -1.9836  0.1990 -0.2642
 2313TIP3   OH228353   3.479   5.180  12.481 -0.0095  0.1512 -0.1208
 2313TIP3    H128354   3.552   5.214  12.533  0.2825  1.6362 -1.4327
 2313TIP3    H228355   3.463   5.247  12.415 -1.0618 -1.1846 -1.2892
 2314TIP3   OH228356   5.495   5.530  11.143  0.0938  0.0635  0.7063
 2314TIP3    H128357   5.454   5.605  11.101 -0.1051  0.1810  1.1096
 2314TIP3    H228358   5.554   5.494  11.076  0.5088  0.8232  0.6499
 2315TIP3   OH228359   1.469   4.780  16.137  0.0523 -0.1371  0.4271
 2315TIP3    H128360   1.518   4.703  16.110  0.0268  0.0109 -0.0388
 2315TIP3    H228361   1.423   4.809  16.058 -2.2602 -1.3607  1.2184
 2316TIP3   OH228362   2.715   1.140  12.327  0.3663 -0.0506 -0.3723
 2316TIP3    H128363   2.811   1.136  12.335  0.5343  1.9149 -0.8702
 2316TIP3    H228364   2.691   1.222  12.368 -1.1539 -0.6044 -0.1032
 2317TIP3   OH228365   5.183   5.538  11.548 -0.3835 -0.3773 -0.0446
 2317TIP3    H128366   5.145   5.580  11.471 -1.2662 -0.4365  0.3532
 2317TIP3    H228367   5.262   5.494  11.514 -0.6686 -0.2635 -0.8811
 2318TIP3   OH228368   4.221   0.630   3.497 -0.1116  0.8152 -0.7274
 2318TIP3    H128369   4.200   0.604   3.407 -0.6322 -0.6987 -0.1997
 2318TIP3    H228370   4.194   0.721   3.503 -3.5847 -0.0571 -1.0810
 2319TIP3   OH228371   3.736   2.431   2.832  0.2755 -0.2229 -0.2843
 2319TIP3    H128372   3.737   2.386   2.917 -0.8986 -1.8658 -1.0770
 2319TIP3    H228373   3.825   2.421   2.798  0.5952 -0.0691  0.4840
 2320TIP3   OH228374   4.049   3.988  15.677  0.2275 -0.2015  0.1479
 2320TIP3    H128375   3.988   4.061  15.668  0.2974 -0.2613 -0.8489
 2320TIP3    H228376   4.130   4.019  15.636  0.3575 -0.7230  0.0032
 2321TIP3   OH228377   3.943   4.820   3.667  0.6724  0.1671  0.1620
 2321TIP3    H128378   3.849   4.809   3.651  0.7690 -0.2536 -0.1300
 2321TIP3    H228379   3.965   4.750   3.729  0.9497 -0.2463 -0.3918
 2322TIP3   OH228380   0.770   3.122  14.819  0.4806 -0.3553  0.1633
 2322TIP3    H128381   0.743   3.213  14.830  1.1276 -0.2137  0.6921
 2322TIP3    H228382   0.866   3.125  14.827  0.6735 -0.8314 -1.6124
 2323TIP3   OH228383   2.648   2.061  15.042  0.5614  0.4332 -0.5522
 2323TIP3    H128384   2.739   2.044  15.065  0.4809  2.5630  1.6604
 2323TIP3    H228385   2.640   2.156  15.043 -1.9231  0.2819  0.2619
 2324TIP3   OH228386   6.461   1.134   5.980 -0.7632 -0.5149 -0.1629
 2324TIP3    H128387   6.376   1.175   5.995 -0.4586  0.3296 -0.6512
 2324TIP3    H228388   6.512   1.201   5.934 -0.2351 -1.4437 -0.9687
 2325TIP3   OH228389   6.578   3.340   5.328 -0.4548  0.5218  0.6117
 2325TIP3    H128390   6.631   3.388   5.392 -1.6158 -0.3220  2.2520
 2325TIP3    H228391   6.598   3.383   5.244  1.3514  1.4397  1.4545
 2326TIP3   OH228392   5.958   6.028   1.153 -0.2657  0.1075  0.0735
 2326TIP3    H128393   5.930   5.942   1.120 -0.1233  0.5311 -1.2103
 2326TIP3    H228394   6.006   6.067   1.080 -1.6592  1.9095  0.0350
 2327TIP3   OH228395   2.089   5.356  12.591 -0.4747  0.1644 -0.5987
 2327TIP3    H128396   2.156   5.304  12.636 -0.4809  0.6956  0.0267
 2327TIP3    H228397   2.072   5.307  12.510  0.2696 -0.2615 -0.5071
 2328TIP3   OH228398   1.251   2.716  11.811 -0.0530 -0.2412  0.2483
 2328TIP3    H128399   1.331   2.682  11.851  0.3607  0.3738 -0.0420
 2328TIP3    H228400   1.223   2.646  11.752  0.9262  0.0003 -0.5309
 2329TIP3   OH228401   2.757   1.418   4.573 -0.0101  0.3805 -0.2802
 2329TIP3    H128402   2.771   1.447   4.483  2.1737  0.4535  0.0346
 2329TIP3    H228403   2.767   1.323   4.570 -1.1297  0.2457 -0.2850
 2330TIP3   OH228404   3.779   6.040   4.442 -0.0986 -0.7255  0.6788
 2330TIP3    H128405   3.747   6.090   4.367  0.3281 -1.1373  0.2156
 2330TIP3    H228406   3.821   5.964   4.403  0.6767 -0.6282  1.3143
 2331TIP3   OH228407   2.265   0.778  15.039 -0.0577 -0.3273  0.1372
 2331TIP3    H128408   2.233   0.821  14.960 -0.2230 -0.4130  0.1575
 2331TIP3    H228409   2.321   0.843  15.081 -0.6550  0.0234  0.3962
 2332TIP3   OH228410   4.822   2.308   5.525 -0.0481  0.0125  0.3954
 2332TIP3    H128411   4.783   2.222   5.536  0.2699 -0.3070 -0.7927
 2332TIP3    H228412   4.833   2.318   5.430  0.8949  0.9142  0.5724
 2333TIP3   OH228413   3.426   2.782   0.649  0.3106 -0.0612 -0.0722
 2333TIP3    H128414   3.409   2.850   0.714  2.5065 -0.9728  1.5467
 2333TIP3    H228415   3.454   2.831   0.571 -1.7072  1.0034 -0.2073
 2334TIP3   OH228416   2.849   6.061  15.042 -0.1089  0.3537 -0.2323
 2334TIP3    H128417   2.880   6.114  15.116 -1.1469  0.6009  0.0322
 2334TIP3    H228418   2.918   5.995  15.030  0.4106  0.7478  0.4917
 2335TIP3   OH228419   3.063   4.992   1.865  0.1556  0.3899  0.5333
 2335TIP3    H128420   3.126   4.922   1.851  1.8123  2.0768 -0.9740
 2335TIP3    H228421   3.107   5.053   1.924 -0.0856  1.5484 -0.4502
 2336TIP3   OH228422   6.278   0.443  16.912 -0.4126 -0.0265 -0.3586
 2336TIP3    H128423   6.330   0.406  16.983 -0.6680 -0.5750 -0.4489
 2336TIP3    H228424   6.205   0.487  16.956  0.2115  0.9123 -0.2222
 2337TIP3   OH228425   1.915   1.189   1.134 -0.0641 -0.7212 -0.7886
 2337TIP3    H128426   1.846   1.147   1.187  0.8705 -1.2355  0.0510
 2337TIP3    H228427   1.869   1.258   1.087 -0.8772  0.0133  0.9750
 2338TIP3   OH228428   4.057   0.513  10.983  0.1971 -0.3581 -0.7416
 2338TIP3    H128429   4.005   0.555  11.052  0.4297 -1.8975  0.4309
 2338TIP3    H228430   4.121   0.460  11.031  0.2821 -1.5792 -2.1474
 2339TIP3   OH228431   4.473   4.355  15.751  0.0809  0.7089 -0.7220
 2339TIP3    H128432   4.466   4.337  15.657  0.9223 -3.2308 -0.2120
 2339TIP3    H228433   4.389   4.326  15.787  1.0376 -1.3375  0.0409
 2340TIP3   OH228434   0.935   3.444   5.836 -0.1398  0.4421  0.3255
 2340TIP3    H128435   0.997   3.399   5.780  1.4714  1.5689  1.1205
 2340TIP3    H228436   0.850   3.405   5.815  0.5284  0.2131 -2.2252
 2341TIP3   OH228437   3.974   1.832   0.838 -0.1460 -0.0577 -0.2044
 2341TIP3    H128438   3.892   1.872   0.867 -0.4381  0.2312 -1.3627
 2341TIP3    H228439   4.035   1.906   0.831  0.1367 -0.2320  0.3832
 2342TIP3   OH228440   2.676   1.517  14.898  0.1710 -0.4615  0.8814
 2342TIP3    H128441   2.696   1.424  14.912 -1.2205 -0.8108  0.7070
 2342TIP3    H228442   2.630   1.519  14.814 -2.3811 -0.0497  2.1683
 2343TIP3   OH228443   6.683   1.249   2.660  0.2979 -0.2026  0.4682
 2343TIP3    H128444   6.755   1.243   2.598  1.1196  0.0704  1.3643
 2343TIP3    H228445   6.721   1.220   2.743 -0.8135 -0.7160  0.8200
 2344TIP3   OH228446   0.470   0.945  11.278 -0.3164 -0.6382  0.4321
 2344TIP3    H128447   0.390   0.912  11.239 -1.5008  2.3576  0.1167
 2344TIP3    H228448   0.441   1.005  11.346  1.6693  0.1539  0.6494
 2345TIP3   OH228449   5.127   0.613   2.534 -0.2399  0.1384  0.2595
 2345TIP3    H128450   5.032   0.623   2.530 -0.4457 -1.7052 -2.4650
 2345TIP3    H228451   5.159   0.659   2.456  0.9142 -0.7299  0.1925
 2346TIP3   OH228452   5.372   6.542   5.580 -0.0499 -0.1377  0.5754
 2346TIP3    H128453   5.430   6.599   5.530 -0.3439  0.1764  0.5910
 2346TIP3    H228454   5.285   6.560   5.547 -0.1837 -0.3427  0.8085
 2347TIP3   OH228455   2.764   6.365  15.680 -0.3179  0.5574 -0.1526
 2347TIP3    H128456   2.768   6.422  15.603 -2.0523 -0.7685 -1.3179
 2347TIP3    H228457   2.673   6.373  15.710 -0.2034 -0.4766  0.5137
 2348TIP3   OH228458   6.602   3.732  14.835  0.1398  0.3935 -0.1919
 2348TIP3    H128459   6.664   3.777  14.778  0.3183 -0.1480 -0.4244
 2348TIP3    H228460   6.527   3.791  14.839  0.7102  1.1117  0.1940
 2349TIP3   OH228461   2.878   2.155   2.780  0.2240  0.3442 -0.1535
 2349TIP3    H128462   2.830   2.192   2.706  0.2281  0.7106  0.0228
 2349TIP3    H228463   2.852   2.063   2.782  1.3583 -0.0448 -1.5286
 2350TIP3   OH228464   5.912   0.917   1.677  0.1810 -0.3562 -0.2749
 2350TIP3    H128465   5.939   0.971   1.752  0.0516 -0.9620  0.2159
 2350TIP3    H228466   5.821   0.944   1.661 -0.5277 -1.7264  1.1779
 2351TIP3   OH228467   2.932   3.107   6.250  0.4348 -0.0082 -0.6971
 2351TIP3    H128468   2.904   3.015   6.247 -1.3460  0.4021  1.2200
 2351TIP3    H228469   2.999   3.109   6.319  0.2720  0.1846 -0.5455
 2352TIP3   OH228470   3.542   5.569   2.262  0.2443  0.2201 -0.0945
 2352TIP3    H128471   3.487   5.522   2.325 -0.2178 -0.5455 -1.0307
 2352TIP3    H228472   3.533   5.661   2.286 -0.6044  0.0100  0.4347
 2353TIP3   OH228473   2.291   0.233  15.192 -0.1891 -0.1191 -0.4169
 2353TIP3    H128474   2.339   0.316  15.190 -0.9909  0.3880  0.6957
 2353TIP3    H228475   2.233   0.240  15.268 -1.3536 -1.0898 -1.1794
 2354TIP3   OH228476   0.961   5.638  12.492  0.5975  0.3688  0.5078
 2354TIP3    H128477   1.017   5.576  12.538 -0.1841  1.5785  3.2453
 2354TIP3    H228478   0.915   5.686  12.561 -2.8361  0.3615 -1.5629
 2355TIP3   OH228479   0.218   0.531  12.520 -0.2956  0.0041 -0.0237
 2355TIP3    H128480   0.293   0.590  12.523  0.1491 -0.5263 -0.4710
 2355TIP3    H228481   0.253   0.447  12.550 -0.0941 -0.8694 -2.5118
 2356TIP3   OH228482   3.128   5.625   0.099 -0.1602  0.0538 -0.0972
 2356TIP3    H128483   3.054   5.678   0.068 -1.7031 -1.1676  1.2944
 2356TIP3    H228484   3.087   5.556   0.152  2.0033 -0.6772  0.7205
 2357TIP3   OH228485   0.547   0.626  15.508  0.6580  0.0098 -0.1841
 2357TIP3    H128486   0.601   0.634  15.586  0.8689  0.1249 -0.3399
 2357TIP3    H228487   0.566   0.538  15.475  0.8076  0.0761 -0.2782
 2358TIP3   OH228488   5.682   1.521   3.838  0.0575 -0.7779 -0.3333
 2358TIP3    H128489   5.683   1.571   3.920  1.1882  1.8438 -1.8246
 2358TIP3    H228490   5.627   1.445   3.857  0.8015 -0.6047  3.0104
 2359TIP3   OH228491   4.363   5.635   3.968 -0.0847  0.4072 -0.2476
 2359TIP3    H128492   4.321   5.716   3.938  2.4475  2.4205  1.2013
 2359TIP3    H228493   4.409   5.602   3.891  0.1727  1.2693 -0.4748
 2360TIP3   OH228494   5.454   5.578  13.825 -0.3222 -0.6048  0.1725
 2360TIP3    H128495   5.389   5.643  13.853  0.4262  0.4016 -0.3727
 2360TIP3    H228496   5.507   5.563  13.903  1.5757  1.9698 -0.4981
 2361TIP3   OH228497   4.372   0.952  15.994 -0.2790 -0.2218  0.0749
 2361TIP3    H128498   4.295   0.969  16.048 -1.2526 -1.1345 -0.9891
 2361TIP3    H228499   4.350   0.986  15.908  0.7738  0.1052 -0.0815
 2362TIP3   OH228500   6.135   4.463  11.825 -0.1165  0.6998 -1.1636
 2362TIP3    H128501   6.065   4.528  11.827 -0.2381  0.5585 -0.9255
 2362TIP3    H228502   6.091   4.380  11.808  0.0163  0.6408 -1.2285
 2363TIP3   OH228503   5.064   6.215  15.171 -0.1415 -0.2873  0.2674
 2363TIP3    H128504   5.086   6.149  15.106 -1.2467 -1.9813  1.5244
 2363TIP3    H228505   5.071   6.298  15.124 -1.0986 -1.4427 -2.0865
 2364TIP3   OH228506   2.807   0.352   6.127  0.5680 -0.2108 -0.2010
 2364TIP3    H128507   2.779   0.442   6.107 -1.0716 -0.8743 -1.0951
 2364TIP3    H228508   2.833   0.316   6.042  0.4960 -0.8037  0.0251
 2365TIP3   OH228509   0.432   0.447  15.187 -0.3143 -0.2498  0.1619
 2365TIP3    H128510   0.492   0.507  15.143  1.3096  0.2040  2.7824
 2365TIP3    H228511   0.461   0.360  15.161  0.5006  0.0170  0.1512
 2366TIP3   OH228512   6.259   6.662   4.923 -0.4685 -0.0536 -0.7141
 2366TIP3    H128513   6.182   6.719   4.920 -0.7987 -0.3466  0.9358
 2366TIP3    H228514   6.332   6.720   4.945 -0.6670 -0.1286  0.1793
 2367TIP3   OH228515   1.035   0.632   5.540 -0.2879  0.5373  0.0400
 2367TIP3    H128516   0.957   0.577   5.552 -0.6696  1.2351  0.9065
 2367TIP3    H228517   1.100   0.594   5.600 -1.0131  1.8352  1.7359
 2368TIP3   OH228518   5.495   3.680  16.196 -0.0717  0.1784 -0.1759
 2368TIP3    H128519   5.439   3.611  16.161 -1.1553  1.1874 -0.4542
 2368TIP3    H228520   5.571   3.681  16.138 -1.4020  1.1843 -1.9829
 2369TIP3   OH228521   6.619   4.506   0.764  0.3700  0.2592  1.1761
 2369TIP3    H128522   6.700   4.458   0.748 -0.5055 -0.7783 -0.4306
 2369TIP3    H228523   6.567   4.493   0.684 -0.9381  1.8068  1.7134
 2370TIP3   OH228524   4.677   4.294   4.228  0.6123  0.2322 -0.6791
 2370TIP3    H128525   4.614   4.364   4.249  0.0735 -0.3693 -0.2456
 2370TIP3    H228526   4.739   4.335   4.168  0.3346  1.1011 -0.3896
 2371TIP3   OH228527   2.279   1.379  12.857 -0.4510 -0.4931 -0.4630
 2371TIP3    H128528   2.239   1.322  12.791  0.8027 -1.3578 -0.5389
 2371TIP3    H228529   2.292   1.322  12.932  0.8268 -0.3308 -0.5354
 2372TIP3   OH228530   5.685   6.272   4.888  0.1131  0.0559 -0.0083
 2372TIP3    H128531   5.623   6.240   4.953  1.5918 -0.2224  1.3502
 2372TIP3    H228532   5.659   6.362   4.871  0.8505  0.8364  2.5667
 2373TIP3   OH228533   1.061   6.344  15.533  0.4894 -0.2375 -0.0905
 2373TIP3    H128534   1.040   6.381  15.447 -2.2801 -0.1576  0.5435
 2373TIP3    H228535   1.078   6.251  15.515 -1.7302 -0.6053 -0.5949
 2374TIP3   OH228536   1.550   5.879   0.090  0.1519 -0.0963 -0.1736
 2374TIP3    H128537   1.620   5.939   0.114  0.1426 -0.0823 -0.1809
 2374TIP3    H228538   1.513   5.849   0.173  0.7200 -0.7606 -0.1543
 2375TIP3   OH228539   0.582   5.904  14.673  0.5622 -0.0221  0.2723
 2375TIP3    H128540   0.554   5.877  14.585 -2.1606  1.6911  0.4737
 2375TIP3    H228541   0.578   5.824  14.725 -2.1373 -0.3616 -0.2661
 2376TIP3   OH228542   0.458   3.184  15.354  0.1422 -0.9345  0.0068
 2376TIP3    H128543   0.504   3.218  15.278 -2.1359 -0.9496 -1.4845
 2376TIP3    H228544   0.441   3.261  15.409 -1.6605 -0.1862 -1.4953
 2377TIP3   OH228545   3.524   0.255  15.184 -0.4821  0.2204 -0.1061
 2377TIP3    H128546   3.599   0.269  15.241  0.4189 -0.8156 -1.0121
 2377TIP3    H228547   3.457   0.216  15.242  0.4842 -1.0157  0.2212
 2378TIP3   OH228548   2.864   4.423  16.384  0.4632  0.0308 -0.2957
 2378TIP3    H128549   2.809   4.393  16.457 -0.6690 -0.8604 -1.4708
 2378TIP3    H228550   2.806   4.419  16.308  1.9967 -0.3751 -1.4742
 2379TIP3   OH228551   1.165   5.943   5.681 -0.7027 -0.4047  1.0335
 2379TIP3    H128552   1.213   5.923   5.761  1.7329 -1.4011 -0.5431
 2379TIP3    H228553   1.187   6.034   5.662 -2.0636  0.1391  1.9536
 2380TIP3   OH228554   2.637   6.482  10.841  0.0028  0.1514  0.3700
 2380TIP3    H128555   2.582   6.419  10.888 -0.9248 -1.4946 -2.6565
 2380TIP3    H228556   2.725   6.446  10.846 -0.3182 -0.7467 -0.2849
 2381TIP3   OH228557   1.760   4.268  13.662 -0.0267 -0.2058  0.0352
 2381TIP3    H128558   1.834   4.238  13.608  1.0040  0.5316  0.9956
 2381TIP3    H228559   1.709   4.188  13.677 -0.4990 -0.4094 -2.1889
 2382TIP3   OH228560   0.318   1.954   5.151  0.8062 -0.1760  0.0385
 2382TIP3    H128561   0.262   2.026   5.182 -0.5489 -1.1434 -0.0796
 2382TIP3    H228562   0.305   1.884   5.214  1.6550 -0.5450 -0.1781
 2383TIP3   OH228563   0.320   3.942  10.989 -0.0729 -0.3793 -0.3450
 2383TIP3    H128564   0.363   3.953  11.074  2.4361 -0.2945 -1.5597
 2383TIP3    H228565   0.288   4.030  10.967  1.3764  0.1184 -0.5418
 2384TIP3   OH228566   0.686   5.308  14.184  0.5811  0.2003  0.3698
 2384TIP3    H128567   0.652   5.267  14.265  1.4865  0.6519  0.9868
 2384TIP3    H228568   0.607   5.333  14.136 -0.0621 -2.7816 -0.3239
 2385TIP3   OH228569   5.812   5.187   4.066  0.5402  0.1195 -0.8328
 2385TIP3    H128570   5.758   5.266   4.058 -0.1683 -0.5274 -3.5842
 2385TIP3    H228571   5.840   5.186   4.157 -1.4616  2.2149 -0.1011
 2386TIP3   OH228572   0.459   4.982  11.642 -0.2295  0.2754 -0.1595
 2386TIP3    H128573   0.457   4.967  11.548 -0.7692 -1.4693  0.0962
 2386TIP3    H228574   0.368   5.003  11.665 -0.0197  1.1268 -0.0777
 2387TIP3   OH228575   6.576   4.420  14.826 -0.1090  0.1819 -0.3620
 2387TIP3    H128576   6.621   4.466  14.756  1.1773  0.5859  0.6898
 2387TIP3    H228577   6.636   4.350  14.853 -1.4751 -1.3335 -1.0406
 2388TIP3   OH228578   1.888   2.720  11.255 -0.4466  0.4877  0.0154
 2388TIP3    H128579   1.817   2.747  11.313 -1.0233 -0.0480 -0.4172
 2388TIP3    H228580   1.878   2.775  11.177  0.1867  1.0492  0.3228
 2389TIP3   OH228581   3.964   3.598   5.403 -0.6058 -0.0913 -0.4634
 2389TIP3    H128582   3.980   3.504   5.403  0.9124  0.1503 -0.6693
 2389TIP3    H228583   4.006   3.630   5.483 -0.4196  0.5162 -0.7975
 2390TIP3   OH228584   2.218   3.199  13.190 -0.1048 -0.3784 -0.1284
 2390TIP3    H128585   2.135   3.158  13.166  0.0691 -0.4341 -0.6475
 2390TIP3    H228586   2.202   3.240  13.275 -1.0382  0.6737 -0.7792
 2391TIP3   OH228587   6.582   6.664   3.914 -0.2877  0.5594 -0.1924
 2391TIP3    H128588   6.557   6.696   3.828  0.3634 -1.8134 -1.3481
 2391TIP3    H228589   6.655   6.719   3.941 -0.4981  1.3228 -1.1602
 2392TIP3   OH228590   4.323   6.273   4.590 -0.2074 -0.1491  0.3207
 2392TIP3    H128591   4.309   6.268   4.685 -0.2372  0.5457  0.3577
 2392TIP3    H228592   4.294   6.361   4.566 -2.2371 -1.0386 -0.6937
 2393TIP3   OH228593   6.025   3.834   6.196 -0.5932  0.3387  0.0790
 2393TIP3    H128594   6.083   3.760   6.178 -2.6415 -1.8112  1.6434
 2393TIP3    H228595   6.063   3.875   6.274 -0.5811 -0.4230  0.4893
 2394TIP3   OH228596   2.241   2.852  13.859  0.1917  0.2518 -0.0907
 2394TIP3    H128597   2.222   2.871  13.768 -0.8010  1.1656  0.2845
 2394TIP3    H228598   2.303   2.921  13.886  1.4414 -0.7296 -0.3899
 2395TIP3   OH228599   5.882   4.305  15.156 -0.3554 -0.2398  0.1627
 2395TIP3    H128600   5.920   4.393  15.158 -0.0512 -0.3503 -0.4877
 2395TIP3    H228601   5.836   4.297  15.240  0.4556  0.1574  0.6531
 2396TIP3   OH228602   0.374   5.021   0.478  0.5159 -0.0053 -0.1602
 2396TIP3    H128603   0.384   4.936   0.522  2.7533  0.2576 -0.0598
 2396TIP3    H228604   0.312   5.069   0.533  0.5213 -0.9615  0.7194
 2397TIP3   OH228605   4.502   4.982  13.378  0.4555  0.5072 -0.5858
 2397TIP3    H128606   4.501   5.004  13.471  0.1300  1.3220 -0.7713
 2397TIP3    H228607   4.577   4.923  13.367  0.1406 -0.0722  0.2921
 2398TIP3   OH228608   4.866   1.893   3.425  0.2326 -0.3154  0.4870
 2398TIP3    H128609   4.828   1.808   3.402 -3.0329  0.7288  1.4036
 2398TIP3    H228610   4.882   1.935   3.341 -1.2788 -0.6210  0.0126
 2399TIP3   OH228611   2.378   4.299   1.872  0.1731  0.1504  0.2607
 2399TIP3    H128612   2.394   4.293   1.966  0.8876  2.2124  0.3287
 2399TIP3    H228613   2.296   4.348   1.865 -0.9137 -1.6366 -0.2181
 2400TIP3   OH228614   4.373   5.282  15.739  0.3452  0.4475 -0.0535
 2400TIP3    H128615   4.422   5.228  15.678 -1.8512 -1.2360 -0.4509
 2400TIP3    H228616   4.422   5.277  15.821  1.8433  0.4609 -0.9241
 2401TIP3   OH228617   4.722   2.629   5.635 -0.1256  0.1185 -0.1114
 2401TIP3    H128618   4.638   2.644   5.592 -0.7903 -0.0839  1.0758
 2401TIP3    H228619   4.711   2.547   5.683  0.9812 -0.2640 -0.4642
 2402TIP3   OH228620   5.570   2.920   4.363  0.0767  0.0000  0.7058
 2402TIP3    H128621   5.592   2.895   4.273  1.6673  0.2649  0.9893
 2402TIP3    H228622   5.550   3.014   4.358  1.2327  0.2723  0.7640
 2403TIP3   OH228623   6.227   1.933  13.205  0.4724 -0.2393  0.2611
 2403TIP3    H128624   6.185   1.855  13.240 -0.1519  0.3311  0.8386
 2403TIP3    H228625   6.154   1.989  13.178  0.8843  0.3963  0.4413
 2404TIP3   OH228626   2.965   2.005   6.079  0.4886  0.0778  0.2847
 2404TIP3    H128627   2.917   2.019   6.161  0.1304  0.5127  0.0089
 2404TIP3    H228628   3.049   1.968   6.107  0.2971  0.0378  0.8341
 2405TIP3   OH228629   4.801   5.351  15.209 -0.2838  0.0392 -0.7828
 2405TIP3    H128630   4.886   5.393  15.198 -0.9086  1.3992 -0.5307
 2405TIP3    H228631   4.738   5.423  15.211 -1.2124 -0.7258  1.5509
 2406TIP3   OH228632   6.271   5.521  13.725  0.3524 -0.4336  0.3192
 2406TIP3    H128633   6.214   5.518  13.649  1.1899 -0.7814 -0.3087
 2406TIP3    H228634   6.277   5.614  13.747 -1.5906 -0.4914  1.2911
 2407TIP3   OH228635   1.294   2.197   1.833 -0.3518 -0.1578 -0.8810
 2407TIP3    H128636   1.242   2.154   1.765  0.6517  0.6230 -2.1871
 2407TIP3    H228637   1.370   2.232   1.786 -0.9431  2.7272  0.1217
 2408TIP3   OH228638   5.098   4.737  12.389  0.0101  0.5049  0.2275
 2408TIP3    H128639   5.138   4.650  12.398  0.2391  0.6773  0.8643
 2408TIP3    H228640   5.011   4.719  12.352  0.4311  0.0816 -0.5923
 2409TIP3   OH228641   0.792   5.179   0.055 -0.2508  0.6388  0.0644
 2409TIP3    H128642   0.724   5.143  -0.002  0.5128 -1.5972  0.4694
 2409TIP3    H228643   0.859   5.212  -0.005  0.4788 -1.5643 -0.4500
 2410TIP3   OH228644   0.753   1.291  16.589  0.6314 -0.4617 -0.3459
 2410TIP3    H128645   0.829   1.275  16.532  1.7275  0.4056  0.8028
 2410TIP3    H228646   0.789   1.286  16.678 -0.5420  0.5434  0.2100
 2411TIP3   OH228647   6.188   1.163   6.630  0.3196  0.2001  0.4324
 2411TIP3    H128648   6.142   1.190   6.709  0.8651  1.2965  0.3987
 2411TIP3    H228649   6.225   1.077   6.651 -2.1919 -0.9988  0.2615
 2412TIP3   OH228650   2.261   1.692  14.959  0.1105  0.0465 -0.6348
 2412TIP3    H128651   2.275   1.598  14.947  0.4117 -0.1711  1.1696
 2412TIP3    H228652   2.349   1.730  14.953  0.4532 -0.2193  1.7792
 2413TIP3   OH228653   3.733   2.665   5.617  0.0935  0.9391  0.3852
 2413TIP3    H128654   3.765   2.730   5.680  0.6579 -0.1491  1.2652
 2413TIP3    H228655   3.640   2.657   5.636  0.7263 -1.6951  3.4362
 2414TIP3   OH228656   2.056   4.404  15.522 -0.2804 -0.1242 -0.2561
 2414TIP3    H128657   2.034   4.454  15.444 -0.3123 -1.5486 -1.2018
 2414TIP3    H228658   2.147   4.428  15.541 -0.4613  0.6812 -0.3543
 2415TIP3   OH228659   2.596   3.640  15.760  0.0782  0.6612  0.4557
 2415TIP3    H128660   2.689   3.631  15.780  0.0469  0.8856  0.7113
 2415TIP3    H228661   2.551   3.610  15.839 -0.0688  0.4093  0.2767
 2416TIP3   OH228662   2.795   5.911  10.681 -0.3610 -0.4508 -0.0088
 2416TIP3    H128663   2.816   5.986  10.626 -1.5998 -0.9578 -1.2317
 2416TIP3    H228664   2.734   5.944  10.747  0.8277  0.0717  0.8714
 2417TIP3   OH228665   4.952   5.639  13.077  0.0824 -0.8223 -0.6858
 2417TIP3    H128666   4.940   5.696  13.001 -3.2828  0.3305  0.5375
 2417TIP3    H228667   4.927   5.552  13.047  1.8433 -1.0351 -1.6460
 2418TIP3   OH228668   5.224   1.636   2.147 -0.0389 -0.0921 -0.4594
 2418TIP3    H128669   5.195   1.657   2.058 -1.8028  0.3693  0.1697
 2418TIP3    H228670   5.189   1.549   2.164  0.0180 -0.0479 -0.1065
 2419TIP3   OH228671   4.275   5.203   0.703  1.2486 -0.1630 -0.0153
 2419TIP3    H128672   4.363   5.221   0.670  1.0642 -1.1414 -1.1056
 2419TIP3    H228673   4.238   5.140   0.640 -0.5809  0.9605 -0.1540
 2420TIP3   OH228674   4.687   1.677  12.287  0.3483  0.1492 -0.0457
 2420TIP3    H128675   4.603   1.641  12.314  0.2815 -0.3347 -0.8731
 2420TIP3    H228676   4.667   1.761  12.247  0.1615 -0.2928 -0.9129
 2421TIP3   OH228677   2.022   6.541   4.637  0.9658 -0.5212 -0.0731
 2421TIP3    H128678   1.944   6.517   4.587 -0.1391 -0.4075  1.5248
 2421TIP3    H228679   2.077   6.463   4.634  0.0259 -1.2124  0.1794
 2422TIP3   OH228680   6.162   6.675   2.907  0.2709 -0.4133  0.4236
 2422TIP3    H128681   6.099   6.659   2.977  0.0301  0.1821  0.3369
 2422TIP3    H228682   6.210   6.753   2.934  0.8552 -0.7528  0.4039
 2423TIP3   OH228683   3.384   6.213  16.965 -0.2497 -0.1642 -0.8988
 2423TIP3    H128684   3.454   6.195  17.028 -1.5746 -0.6607  0.4929
 2423TIP3    H228685   3.345   6.128  16.948 -0.3179  0.0628 -1.9160
 2424TIP3   OH228686   0.304   5.135  14.923  0.5243  0.6394 -0.0359
 2424TIP3    H128687   0.380   5.190  14.907  1.2187 -0.2723  0.0871
 2424TIP3    H228688   0.283   5.098  14.837  0.8620  0.0749  0.1231
 2425TIP3   OH228689   3.586   3.209  13.194 -0.6305  0.2389  0.4169
 2425TIP3    H128690   3.560   3.186  13.283 -0.5753  1.6742  0.8173
 2425TIP3    H228691   3.521   3.274  13.166 -0.8838 -0.4768 -0.7498
 2426TIP3   OH228692   6.004   1.547  12.285  0.3821 -0.0073 -0.0844
 2426TIP3    H128693   5.968   1.595  12.211  1.2398  1.1235  0.1988
 2426TIP3    H228694   5.957   1.463  12.285 -1.7693  1.1195 -0.1089
 2427TIP3   OH228695   0.472   1.266   4.164 -0.3817 -0.2643 -1.0399
 2427TIP3    H128696   0.439   1.227   4.083  2.2498 -0.0322 -2.3276
 2427TIP3    H228697   0.479   1.360   4.145 -0.9042 -0.0153 -0.0797
 2428TIP3   OH228698   0.867   4.992  13.354  0.2324 -0.1839  0.2881
 2428TIP3    H128699   0.817   5.010  13.274  1.5579 -1.9656 -1.0055
 2428TIP3    H228700   0.847   4.901  13.374  1.0754 -0.1864  1.1520
 2429TIP3   OH228701   0.081   5.206   6.346  0.0808 -0.0005 -0.6486
 2429TIP3    H128702   0.138   5.248   6.280  2.6015 -1.2794  0.5953
 2429TIP3    H228703   0.109   5.115   6.348  0.3293  0.0518  2.3968
 2430TIP3   OH228704   1.414   3.463  16.818  1.0474 -0.1125  0.5734
 2430TIP3    H128705   1.427   3.473  16.723  1.9883 -1.1285  0.5812
 2430TIP3    H228706   1.361   3.539  16.842 -0.8062 -0.8019 -1.0650
 2431TIP3   OH228707   3.293   1.231   4.433  0.0845  0.0276 -0.3025
 2431TIP3    H128708   3.348   1.160   4.467  0.4318  0.3736 -0.1428
 2431TIP3    H228709   3.207   1.214   4.471  0.1195 -0.4181 -0.4151
 2432TIP3   OH228710   4.894   3.688   6.308  0.0044 -0.1918  0.7902
 2432TIP3    H128711   4.892   3.748   6.233 -0.7509 -0.8153  0.2874
 2432TIP3    H228712   4.843   3.732   6.375  0.1728  0.1043  0.7268
 2433TIP3   OH228713   6.553   5.462  14.940 -0.0155  0.0998  0.9549
 2433TIP3    H128714   6.603   5.438  15.019 -0.8507  1.4377  1.9393
 2433TIP3    H228715   6.494   5.388  14.926  0.4244 -0.3357  1.3412
 2434TIP3   OH228716   4.180   3.141  12.341 -0.0157  0.3067 -0.0767
 2434TIP3    H128717   4.156   3.134  12.249  0.2069 -1.3459 -0.0309
 2434TIP3    H228718   4.208   3.232  12.351 -2.3411  1.2122 -1.0584
 2435TIP3   OH228719   2.534   1.134   2.676 -0.1955  0.0102  0.5271
 2435TIP3    H128720   2.475   1.077   2.724  0.0196  0.2515  1.0920
 2435TIP3    H228721   2.483   1.166   2.602 -0.6954  0.0369  0.8831
 2436TIP3   OH228722   3.747   5.084  16.503  0.1029  0.6208  0.3016
 2436TIP3    H128723   3.804   5.063  16.577 -0.8148  0.8213  1.0766
 2436TIP3    H228724   3.720   5.174  16.518  0.3382  0.8463 -0.5716
 2437TIP3   OH228725   5.213   0.337  11.650  0.4235  0.1246  0.1223
 2437TIP3    H128726   5.169   0.290  11.580  0.0999  2.3308 -1.2634
 2437TIP3    H228727   5.283   0.278  11.679 -0.9263 -1.7980 -0.3886
 2438TIP3   OH228728   4.640   0.916  14.625  0.1280  0.1086 -0.3533
 2438TIP3    H128729   4.636   0.971  14.546  0.2737  1.9586  0.8598
 2438TIP3    H228730   4.635   0.826  14.592 -0.8048  0.8381 -2.3969
 2439TIP3   OH228731   1.081   1.697   2.045 -0.2986  0.3791  0.4449
 2439TIP3    H128732   1.122   1.665   1.965  1.0798  1.4932  0.6743
 2439TIP3    H228733   0.991   1.719   2.020 -0.0036  0.3275 -0.6850
 2440TIP3   OH228734   1.119   4.924  15.847  0.1608  0.4120 -0.0077
 2440TIP3    H128735   1.157   4.840  15.873  1.0857  1.0566  0.8011
 2440TIP3    H228736   1.048   4.939  15.910  0.5607  0.6400  0.3924
 2441TIP3   OH228737   6.431   2.172  14.738 -0.0721 -0.0532 -0.1064
 2441TIP3    H128738   6.431   2.189  14.832 -1.4165 -1.9825  0.3206
 2441TIP3    H228739   6.339   2.173  14.713  0.1132 -1.4813 -0.9785
 2442TIP3   OH228740   1.836   2.922  12.164 -0.2844  0.1548  0.0469
 2442TIP3    H128741   1.909   2.870  12.199 -0.1542  1.0532  1.1825
 2442TIP3    H228742   1.758   2.872  12.187 -0.1697  0.4986  1.2664
 2443TIP3   OH228743   2.559   0.259  13.846 -0.6102  0.0603  0.1672
 2443TIP3    H128744   2.543   0.353  13.846 -3.1234 -0.2918 -0.0919
 2443TIP3    H228745   2.518   0.228  13.765  1.7135 -1.0843 -0.6618
 2444TIP3   OH228746   3.468   5.917   0.970  0.0723  0.1775 -0.0804
 2444TIP3    H128747   3.514   5.999   0.990  1.8248 -1.0637  1.1714
 2444TIP3    H228748   3.449   5.878   1.055  1.4242 -1.8499 -0.6387
 2445TIP3   OH228749   0.763   1.487  15.947 -0.3684 -0.5190 -0.5887
 2445TIP3    H128750   0.748   1.571  15.904  1.4834 -0.5833 -1.4536
 2445TIP3    H228751   0.799   1.510  16.033 -0.0693 -0.4273 -0.7390
 2446TIP3   OH228752   0.020   3.823   4.626  0.6485 -0.6061  0.2238
 2446TIP3    H128753   0.000   3.909   4.589 -1.1236  0.1080  2.5228
 2446TIP3    H228754  -0.060   3.772   4.614  1.8613 -2.2294 -1.6225
 2447TIP3   OH228755   6.139   3.864  12.983  0.0950  0.1081  0.4993
 2447TIP3    H128756   6.062   3.845  12.929 -0.9684  1.5325  1.4278
 2447TIP3    H228757   6.135   3.959  12.997  0.3735 -0.1776  2.9786
 2448TIP3   OH228758   3.166   3.599  11.480 -0.0359  0.4728 -0.2974
 2448TIP3    H128759   3.110   3.579  11.405  0.0310 -3.0021  0.4110
 2448TIP3    H228760   3.179   3.694  11.475 -2.4688  0.8235 -2.9043
 2449TIP3   OH228761   5.693   4.167   5.869  0.2454  0.2109  0.1997
 2449TIP3    H128762   5.669   4.259   5.882  1.1859  0.5546 -0.3783
 2449TIP3    H228763   5.610   4.123   5.854 -0.3295  0.7766  1.5118
 2450TIP3   OH228764   3.645   4.624   1.377  0.2193  0.5118 -0.3298
 2450TIP3    H128765   3.607   4.553   1.427  0.3721  0.0257 -0.8881
 2450TIP3    H228766   3.709   4.664   1.436  0.9937 -0.5796 -0.4107
 2451TIP3   OH228767   4.137   3.060  15.167  0.5982 -0.1219  0.0522
 2451TIP3    H128768   4.149   3.094  15.256  1.1076 -0.3913  0.0928
 2451TIP3    H228769   4.047   3.028  15.166  0.6114 -0.1902  0.4993
 2452TIP3   OH228770   2.235   4.894   1.830  0.0626 -0.1454  0.4412
 2452TIP3    H128771   2.222   4.833   1.758 -1.7952  1.7678 -0.9916
 2452TIP3    H228772   2.246   4.979   1.787 -1.5895  1.1516  2.3566
 2453TIP3   OH228773   1.978   6.151  13.781 -0.4297  0.1590 -0.1945
 2453TIP3    H128774   1.984   6.188  13.869 -0.0957  0.0059 -0.1538
 2453TIP3    H228775   1.883   6.144  13.765 -0.5129  1.3508 -0.3399
 2454TIP3   OH228776   2.819   0.289   1.400  0.4262  0.1937  0.0048
 2454TIP3    H128777   2.771   0.206   1.403  0.0354  0.4546  2.3147
 2454TIP3    H228778   2.899   0.269   1.351 -0.2976 -1.1883 -0.6547
 2455TIP3   OH228779   1.972   6.212  16.258 -0.0620  0.4127  0.2078
 2455TIP3    H128780   1.895   6.217  16.314 -1.1225  0.3392 -1.1921
 2455TIP3    H228781   1.983   6.301  16.223 -0.7511 -0.0182 -1.1644
 2456TIP3   OH228782   6.422   1.753  17.150  0.5253 -0.4686 -0.1533
 2456TIP3    H128783   6.488   1.708  17.097 -0.8881  0.1650 -2.5778
 2456TIP3    H228784   6.394   1.827  17.097 -1.2300  0.0204  1.3478
 2457TIP3   OH228785   3.728   4.485  13.720  0.0960 -0.4200 -0.3071
 2457TIP3    H128786   3.795   4.450  13.661  0.6261 -0.3474  0.2502
 2457TIP3    H228787   3.664   4.414  13.728  1.3673 -1.4704  1.1460
 2458TIP3   OH228788   6.256   3.565  14.539 -0.6059 -0.3325 -0.0937
 2458TIP3    H128789   6.217   3.484  14.505  2.0075 -1.4042 -0.7864
 2458TIP3    H228790   6.331   3.535  14.591 -0.8648  1.5812  1.4991
 2459TIP3   OH228791   2.413   1.668   2.511  0.4885 -0.0753 -0.3823
 2459TIP3    H128792   2.367   1.642   2.591  0.3950  0.5140 -0.2393
 2459TIP3    H228793   2.503   1.642   2.526  0.4052 -0.2717 -0.2203
 2460TIP3   OH228794   1.946   5.422  12.979  0.3465  0.4874  0.2119
 2460TIP3    H128795   2.024   5.477  12.983  0.5180  0.4695 -1.7750
 2460TIP3    H228796   1.924   5.405  13.070  2.2241  1.1022  0.8310
 2461TIP3   OH228797   5.240   3.065  15.235  0.6013  0.1386 -0.0534
 2461TIP3    H128798   5.215   2.987  15.187  2.0194 -0.4747  0.1498
 2461TIP3    H228799   5.210   3.050  15.324  1.9303 -0.7368  0.2691
 2462TIP3   OH228800   0.204   1.991  14.685 -0.3949  0.5847 -0.3259
 2462TIP3    H128801   0.116   2.027  14.699 -1.8633 -2.5398 -0.6150
 2462TIP3    H228802   0.240   2.041  14.613 -1.1452  3.1532  0.9666
 2463TIP3   OH228803   6.254   3.410   0.730 -0.4252 -0.4676  0.0643
 2463TIP3    H128804   6.226   3.331   0.683 -1.9172 -0.3642  0.7236
 2463TIP3    H228805   6.190   3.420   0.801  1.7367 -0.6244  2.1712
 2464TIP3   OH228806   2.446   0.301   0.319 -0.0673 -0.3464  0.0425
 2464TIP3    H128807   2.421   0.213   0.290 -0.2795 -0.1828 -0.2674
 2464TIP3    H228808   2.364   0.342   0.346 -0.6925  1.2016 -3.6090
 2465TIP3   OH228809   5.632   3.196   1.509 -0.4197  0.0540  0.0752
 2465TIP3    H128810   5.694   3.181   1.580  0.2633  0.2733 -0.4641
 2465TIP3    H228811   5.623   3.110   1.467 -0.5027  0.0183  0.1641
 2466TIP3   OH228812   3.878   4.147   4.257 -0.0566  0.1958  0.3956
 2466TIP3    H128813   3.966   4.185   4.257 -0.1228  0.4314  2.1051
 2466TIP3    H228814   3.864   4.118   4.167  1.2044  1.4400 -0.2373
 2467TIP3   OH228815   5.403   1.816   0.110  0.0288  0.2711  0.3090
 2467TIP3    H128816   5.425   1.889   0.051  1.6048 -0.7595 -0.4424
 2467TIP3    H228817   5.335   1.768   0.064  0.9732 -0.3005 -0.5308
 2468TIP3   OH228818   4.270   5.768  11.966 -0.3501  0.1283  0.3171
 2468TIP3    H128819   4.190   5.794  12.012 -0.1943  0.5935  0.3377
 2468TIP3    H228820   4.324   5.725  12.033  0.0154  1.0960  0.6677
 2469TIP3   OH228821   0.689   3.079   5.298 -0.0459 -0.3696 -0.0350
 2469TIP3    H128822   0.660   3.159   5.341 -0.7627 -1.0499  0.7789
 2469TIP3    H228823   0.653   3.084   5.210 -1.1844 -0.3865  0.4192
 2470TIP3   OH228824   4.463   0.152  14.100 -0.1107 -0.3454 -0.3504
 2470TIP3    H128825   4.369   0.139  14.115 -0.6609  2.3956 -0.8063
 2470TIP3    H228826   4.484   0.091  14.030 -2.5461  1.4814 -2.9251
 2471TIP3   OH228827   4.106   0.649   4.520 -0.2094 -0.0356 -0.4116
 2471TIP3    H128828   4.172   0.628   4.586 -1.6685  1.2378  1.5549
 2471TIP3    H228829   4.155   0.650   4.437  1.8861 -0.7253  0.7419
 2472TIP3   OH228830   5.758   2.255  16.201  0.0923  0.6063 -0.4523
 2472TIP3    H128831   5.710   2.231  16.122  1.2308  0.6856 -1.1984
 2472TIP3    H228832   5.690   2.276  16.265 -0.8968 -0.9706 -0.9091
 2473TIP3   OH228833   5.582   1.270   3.825  0.0136 -0.1707 -0.0320
 2473TIP3    H128834   5.525   1.225   3.763  0.5740  1.1990 -1.6042
 2473TIP3    H228835   5.668   1.231   3.811 -0.1618 -1.0227  1.1127
 2474TIP3   OH228836   1.126   6.497  15.754 -0.0157  0.1678  0.4673
 2474TIP3    H128837   1.113   6.453  15.669 -1.0498  0.8039  0.2712
 2474TIP3    H228838   1.214   6.535  15.748  0.4183 -0.8366  0.1761
 2475TIP3   OH228839   2.560   2.482  13.542 -0.6479  0.6521 -0.3188
 2475TIP3    H128840   2.557   2.476  13.637  0.9127 -0.3795 -0.2837
 2475TIP3    H228841   2.472   2.457  13.513 -1.0597  0.7094  0.8285
 2476TIP3   OH228842   4.597   6.093   5.498 -0.1931  0.2559  0.1909
 2476TIP3    H128843   4.575   6.001   5.512  0.9779  0.0282  0.6402
 2476TIP3    H228844   4.512   6.137   5.494 -0.7546 -0.6935  1.0432
 2477TIP3   OH228845   1.965   2.713   2.884  0.0637 -0.4326 -0.9188
 2477TIP3    H128846   2.057   2.736   2.895  0.2128 -1.4862  0.3730
 2477TIP3    H228847   1.950   2.717   2.790  0.8398  1.8355 -1.0087
 2478TIP3   OH228848   1.463   5.073  15.228  0.1993 -0.1857 -0.3963
 2478TIP3    H128849   1.558   5.084  15.236  0.3695 -1.9424  0.4743
 2478TIP3    H228850   1.427   5.133  15.293  0.6585  0.9139 -1.1185
 2479TIP3   OH228851   3.358   1.896  16.864  0.2003 -0.9602 -0.0743
 2479TIP3    H128852   3.320   1.977  16.898  0.5212 -0.8356 -0.0034
 2479TIP3    H228853   3.395   1.920  16.779  0.9518 -0.8463  0.2712
 2480TIP3   OH228854   5.373   2.842   2.802 -0.0926 -0.2217 -0.3565
 2480TIP3    H128855   5.441   2.833   2.868 -0.4995  0.1817  0.1307
 2480TIP3    H228856   5.407   2.908   2.742 -1.2482  2.2520  1.5183
 2481TIP3   OH228857   0.015   0.426   4.037 -0.3914 -0.6474  0.1129
 2481TIP3    H128858  -0.036   0.354   4.073  0.1875 -1.0048  0.2210
 2481TIP3    H228859  -0.051   0.493   4.014 -0.7392 -0.0833  2.5105
 2482TIP3   OH228860   2.991   6.358   0.355  0.0662  0.7121  0.2931
 2482TIP3    H128861   2.909   6.325   0.393 -0.3887  2.1804  0.6586
 2482TIP3    H228862   2.989   6.452   0.373  1.0651  1.0355 -1.1371
 2483TIP3   OH228863   2.417   2.922   0.305 -0.5168  0.3032 -0.3039
 2483TIP3    H128864   2.467   2.898   0.228  0.9608  0.8310  0.4573
 2483TIP3    H228865   2.452   3.008   0.331 -2.0636  0.8702  0.0536
 2484TIP3   OH228866   3.211   2.671   0.343  0.0645  0.6446  0.4657
 2484TIP3    H128867   3.167   2.669   0.428 -0.7589  0.6951  0.0480
 2484TIP3    H228868   3.203   2.581   0.310  0.5556  0.5762  0.5176
 2485TIP3   OH228869   5.582   3.233  14.017 -0.3628  0.1564  0.3799
 2485TIP3    H128870   5.600   3.240  13.924  0.5427 -0.3620  0.5078
 2485TIP3    H228871   5.569   3.140  14.033 -0.9378  0.2814  0.7071
 2486TIP3   OH228872   6.724   5.816  13.030  0.4177 -0.6542  0.0757
 2486TIP3    H128873   6.643   5.794  13.077 -0.9681  4.2782  0.5460
 2486TIP3    H228874   6.713   5.776  12.944 -1.0315 -2.6525  1.1005
 2487TIP3   OH228875   1.050   4.054   3.611 -0.5380 -0.3019  0.3531
 2487TIP3    H128876   1.080   4.017   3.694  0.3970  2.1577  1.2287
 2487TIP3    H228877   1.084   4.144   3.612 -1.8372  0.2946 -2.0023
 2488TIP3   OH228878   4.232   6.080   4.184 -0.3889 -0.7628  0.1815
 2488TIP3    H128879   4.304   6.076   4.246 -1.7600 -0.9431  1.8486
 2488TIP3    H228880   4.175   6.149   4.218 -0.8067 -0.3408 -1.3232
 2489TIP3   OH228881   5.675   1.044  16.139 -0.6465 -0.1534  0.1849
 2489TIP3    H128882   5.645   0.955  16.158 -0.1161 -0.4545 -0.3938
 2489TIP3    H228883   5.626   1.070  16.061 -1.8921  0.6217  1.1801
 2490TIP3   OH228884   3.760   2.773  15.636 -0.0556  0.2999 -0.1559
 2490TIP3    H128885   3.673   2.732  15.637 -0.3281  0.7946 -1.3433
 2490TIP3    H228886   3.752   2.847  15.696 -0.1825 -0.1770  0.4190
 2491TIP3   OH228887   5.533   1.596  17.076  0.3714  0.0473  0.3856
 2491TIP3    H128888   5.591   1.640  17.013  0.9856 -1.5890 -0.2545
 2491TIP3    H228889   5.464   1.558  17.022 -1.4830  2.1136  1.1588
 2492TIP3   OH228890   4.363   6.479   0.537  0.1316  0.4036 -0.0940
 2492TIP3    H128891   4.431   6.533   0.497 -0.9852  1.9360 -0.0038
 2492TIP3    H228892   4.302   6.462   0.465 -0.7518  1.3245  0.4070
 2493TIP3   OH228893   4.179   1.795  14.095 -0.3379 -0.4535  0.0745
 2493TIP3    H128894   4.198   1.883  14.063 -0.9238 -0.9685 -1.8628
 2493TIP3    H228895   4.086   1.783  14.075 -0.5223 -1.1307  1.2935
 2494TIP3   OH228896   0.287   6.325   5.156  0.5274 -0.1321 -0.3641
 2494TIP3    H128897   0.284   6.388   5.228 -0.2799 -1.2368  0.6097
 2494TIP3    H228898   0.286   6.240   5.199 -2.5976 -0.8850 -1.6650
 2495TIP3   OH228899   4.237   0.577   1.905 -0.0770 -0.0414 -0.4881
 2495TIP3    H128900   4.284   0.642   1.853  0.2497 -0.2118 -0.4163
 2495TIP3    H228901   4.306   0.533   1.955 -0.4060  0.2507  0.2377
 2496TIP3   OH228902   5.901   2.374  11.147  0.1153  0.3619 -0.5436
 2496TIP3    H128903   5.809   2.350  11.136 -0.1747  1.4050 -0.4772
 2496TIP3    H228904   5.941   2.354  11.062 -0.5265  1.4236 -1.1188
 2497TIP3   OH228905   0.240   5.831  15.700  0.2312  0.2370 -0.3239
 2497TIP3    H128906   0.226   5.836  15.606 -1.4988  1.1768 -0.0485
 2497TIP3    H228907   0.210   5.744  15.725  0.5607  0.0394 -0.6104
 2498TIP3   OH228908   5.885   2.492   0.902 -0.5955  0.7840  0.2086
 2498TIP3    H128909   5.815   2.433   0.930 -0.4383 -0.2835 -1.4700
 2498TIP3    H228910   5.840   2.559   0.849 -0.5957  1.3381  0.9038
 2499TIP3   OH228911   2.417   6.692  13.271  0.4782 -0.6629 -0.0647
 2499TIP3    H128912   2.453   6.604  13.256  0.0475 -0.4049 -3.5331
 2499TIP3    H228913   2.494   6.747  13.285  1.3236 -0.8311 -3.1880
 2500TIP3   OH228914   1.280   0.071  15.826 -0.3222  0.2951 -0.1705
 2500TIP3    H128915   1.344   0.014  15.784  0.7500  0.4540  1.2044
 2500TIP3    H228916   1.326   0.154  15.840 -1.1223  0.7242  0.0212
 2501TIP3   OH228917   5.796   0.888   0.816 -0.2142 -0.4567  0.2931
 2501TIP3    H128918   5.806   0.793   0.822 -0.8331 -0.4567  1.5456
 2501TIP3    H228919   5.782   0.917   0.906  1.0016  0.9570  0.0743
 2502TIP3   OH228920   5.547   3.271   0.525 -0.2748  0.0626 -0.2596
 2502TIP3    H128921   5.483   3.221   0.576 -0.1919  0.0386 -0.1787
 2502TIP3    H228922   5.567   3.347   0.580  0.5152 -0.4350  0.1720
 2503TIP3   OH228923   1.030   1.697  16.638  0.4705  0.1126 -0.4502
 2503TIP3    H128924   0.968   1.638  16.595  0.8014  0.2040 -1.0726
 2503TIP3    H228925   1.093   1.639  16.680  0.3315  0.0199 -0.3700
 2504TIP3   OH228926   1.446   1.799   1.584  0.5785  0.2411  0.0998
 2504TIP3    H128927   1.392   1.838   1.516  0.8916 -0.9510 -0.8704
 2504TIP3    H228928   1.384   1.766   1.648  0.2525  0.8072  0.0825
 2505TIP3   OH228929   6.175   1.560  12.802  0.2157 -0.2111  0.2641
 2505TIP3    H128930   6.169   1.530  12.711 -0.2242  0.1834  0.1653
 2505TIP3    H228931   6.151   1.652  12.800 -2.8187 -0.8759  1.1963
 2506TIP3   OH228932   0.181   0.762   5.269  0.0876 -0.3971 -0.4970
 2506TIP3    H128933   0.107   0.777   5.329  1.0283 -2.0107  1.2014
 2506TIP3    H228934   0.146   0.781   5.182 -1.9125  0.2279  0.3846
 2507TIP3   OH228935   3.860   4.242   0.686  0.6404 -1.3184 -0.2423
 2507TIP3    H128936   3.775   4.230   0.644  0.6657  0.1377 -0.7819
 2507TIP3    H228937   3.922   4.194   0.630  0.5751  0.0504 -1.5507
 2508TIP3   OH228938   1.233   0.329   0.815 -0.3612  0.4814 -0.2644
 2508TIP3    H128939   1.206   0.249   0.771  0.2359 -0.3581  0.8256
 2508TIP3    H228940   1.155   0.383   0.818 -0.6004  0.2355 -1.6240
 2509TIP3   OH228941   0.387   1.293  12.691  0.0301  0.3541 -0.1345
 2509TIP3    H128942   0.430   1.364  12.643 -1.2337  3.1167  2.4660
 2509TIP3    H228943   0.459   1.240  12.726  1.0759  1.2210 -0.9140
 2510TIP3   OH228944   5.221   6.044   6.410  0.2409 -0.7341 -0.2548
 2510TIP3    H128945   5.308   6.060   6.374 -0.5544  3.1022 -0.8786
 2510TIP3    H228946   5.166   6.029   6.333 -0.5731  2.6377 -0.4658
 2511TIP3   OH228947   3.941   2.818   0.639  0.0994  0.9093 -0.0743
 2511TIP3    H128948   4.036   2.804   0.637 -0.0238 -0.3686 -3.2912
 2511TIP3    H228949   3.912   2.776   0.720  2.0291 -0.8817 -0.2277
 2512TIP3   OH228950   0.380   3.232   5.959 -0.3473 -0.0188 -0.3763
 2512TIP3    H128951   0.343   3.321   5.962  0.4944  0.3193  0.5953
 2512TIP3    H228952   0.371   3.200   6.048 -0.0495 -0.6655 -0.5773
 2513TIP3   OH228953   6.438   6.033   4.157 -0.2933 -0.1132 -0.2781
 2513TIP3    H128954   6.384   5.996   4.228  0.4485 -0.1482  0.2785
 2513TIP3    H228955   6.464   6.119   4.190  2.6907 -1.3568  0.9234
 2514TIP3   OH228956   2.664   6.241  12.660  0.6816 -0.1369  0.1125
 2514TIP3    H128957   2.711   6.323  12.645 -1.9507  1.1591 -1.8608
 2514TIP3    H228958   2.694   6.183  12.591  2.7917 -1.0809  1.7016
 2515TIP3   OH228959   4.851   5.656  14.598 -0.0052 -0.3291  0.7911
 2515TIP3    H128960   4.907   5.584  14.626  2.9510  1.6170  0.3501
 2515TIP3    H228961   4.888   5.685  14.515 -0.9605  1.7439  1.0169
 2516TIP3   OH228962   0.018   1.806  17.458 -0.0633  0.0087  0.6540
 2516TIP3    H128963   0.009   1.711  17.454 -1.8152  0.1689  0.1414
 2516TIP3    H228964  -0.012   1.829  17.546 -2.1676  0.2803 -0.0785
 2517TIP3   OH228965   5.262   6.165  16.994  0.1583  0.0567 -0.0684
 2517TIP3    H128966   5.281   6.226  17.066 -0.2658 -0.1865  0.2534
 2517TIP3    H228967   5.340   6.110  16.988  1.0055  1.3180 -1.0795
 2518TIP3   OH228968   3.274   0.302  13.156  0.5592 -0.1066  0.2786
 2518TIP3    H128969   3.250   0.327  13.245  0.9610  0.9076  0.1050
 2518TIP3    H228970   3.318   0.378  13.119  0.0069 -0.3419 -0.9481
 2519TIP3   OH228971   1.567   4.462  13.513 -0.1827 -0.2220 -0.1673
 2519TIP3    H128972   1.622   4.397  13.556 -1.0400 -1.1631 -0.4304
 2519TIP3    H228973   1.490   4.468  13.570 -0.5943 -0.2611 -0.7175
 2520TIP3   OH228974   1.207   6.486   5.420 -0.6262 -0.2280  0.0760
 2520TIP3    H128975   1.190   6.567   5.374 -1.4547 -0.9583 -0.9469
 2520TIP3    H228976   1.206   6.510   5.513  2.0763  1.4413 -0.2578
 2521TIP3   OH228977   2.622   6.302  16.108 -0.6961 -0.4512 -0.0831
 2521TIP3    H128978   2.539   6.261  16.084 -0.3031 -0.0877 -2.2407
 2521TIP3    H228979   2.603   6.395  16.113 -1.0208 -0.5784  2.3615
 2522TIP3   OH228980   5.455   3.846  13.984 -0.5622 -0.4544  0.1760
 2522TIP3    H128981   5.520   3.864  14.052  0.4137 -0.8667 -0.6437
 2522TIP3    H228982   5.481   3.762  13.946 -0.9162 -0.0922 -0.9117
 2523TIP3   OH228983   2.949   6.485   3.476  0.3185 -0.0750 -0.3841
 2523TIP3    H128984   3.032   6.503   3.431 -0.9985  1.1508 -2.5366
 2523TIP3    H228985   2.899   6.566   3.465 -0.9686 -0.5877  1.3502
 2524TIP3   OH228986   4.575   2.191   3.749 -0.4892 -0.2156  0.5327
 2524TIP3    H128987   4.667   2.215   3.733 -1.6097  1.8210 -5.4359
 2524TIP3    H228988   4.572   2.098   3.727  0.1315 -0.3881  1.1130
 2525TIP3   OH228989   1.240   3.548  12.204 -0.2393  0.2242 -0.1145
 2525TIP3    H128990   1.152   3.513  12.189  0.7247 -2.0872 -0.7195
 2525TIP3    H228991   1.286   3.535  12.121  1.5839 -1.5591  1.0937
 2526TIP3   OH228992   4.923   2.115  14.726  0.2181  0.3929  0.2265
 2526TIP3    H128993   4.888   2.133  14.814 -0.6544 -0.3029  0.0407
 2526TIP3    H228994   4.857   2.057  14.686  1.1674 -0.2258 -0.4719
 2527TIP3   OH228995   3.200   4.677   4.033  0.0003  0.2277 -0.6466
 2527TIP3    H128996   3.241   4.757   4.065  0.5015 -0.3663  0.2358
 2527TIP3    H228997   3.106   4.688   4.050  0.1509  0.3317  0.1490
 2528TIP3   OH228998   3.877   2.310  11.956  0.6790  0.1726  0.7594
 2528TIP3    H128999   3.855   2.307  11.863  1.0659 -0.7371  0.6799
 2528TIP3    H229000   3.944   2.379  11.963  1.1569 -0.2245  0.2388
 2529TIP3   OH229001   2.101   2.348   2.365  0.7321  0.6555  0.3949
 2529TIP3    H129002   2.007   2.331   2.355  0.8818  0.3908 -0.6460
 2529TIP3    H229003   2.114   2.357   2.459 -0.2222  0.0027  0.5945
 2530TIP3   OH229004   3.295   3.428  14.086  0.0264  0.4910  0.6565
 2530TIP3    H129005   3.363   3.451  14.022  0.6275  1.6304  1.6660
 2530TIP3    H229006   3.229   3.382  14.035  1.2352 -0.0384 -0.4829
 2531TIP3   OH229007   5.475   4.692   3.528 -0.3517 -0.5492  0.0241
 2531TIP3    H129008   5.502   4.632   3.458 -0.7839  0.2287 -0.8375
 2531TIP3    H229009   5.431   4.637   3.592 -2.6335 -0.8938 -1.7351
 2532TIP3   OH229010   6.306   4.282  11.635 -0.0678  0.4249 -0.2105
 2532TIP3    H129011   6.279   4.190  11.634  0.9836  0.1035  0.1314
 2532TIP3    H229012   6.354   4.294  11.554 -0.4199  0.7503 -0.3751
 2533TIP3   OH229013   0.242   5.062  15.663 -0.3344  0.0398  0.6188
 2533TIP3    H129014   0.252   5.152  15.694 -0.5046  0.0247  0.7186
 2533TIP3    H229015   0.261   5.066  15.569  0.0260  0.1139  0.6932
 2534TIP3   OH229016   0.914   1.393   1.739 -0.0443 -0.0545  0.0696
 2534TIP3    H129017   0.841   1.337   1.766 -0.1604 -0.5628 -1.2499
 2534TIP3    H229018   0.953   1.422   1.822 -1.0708 -0.6484  0.7856
 2535TIP3   OH229019   0.804   1.595  15.094  0.0002  0.2165  0.0225
 2535TIP3    H129020   0.820   1.666  15.032 -0.3300 -0.0072 -0.3206
 2535TIP3    H229021   0.711   1.602  15.116 -0.1616 -0.4442 -0.4331
 2536TIP3   OH229022   6.601   5.209   6.184 -0.2733  0.0386  0.2960
 2536TIP3    H129023   6.658   5.241   6.254 -1.0528  3.4983 -0.4488
 2536TIP3    H229024   6.512   5.223   6.216 -0.6670 -0.7669 -0.4004
 2537TIP3   OH229025   4.185   5.463  15.071 -0.0953  0.7191 -0.0845
 2537TIP3    H129026   4.196   5.444  14.978 -0.0653  2.5377 -0.4765
 2537TIP3    H229027   4.261   5.514  15.095 -1.5753  2.9491  0.1348
 2538TIP3   OH229028   1.719   4.644  13.003  0.0972 -0.3020 -0.0613
 2538TIP3    H129029   1.765   4.672  13.082  0.5918 -1.1452 -0.0304
 2538TIP3    H229030   1.661   4.574  13.033 -2.9383  2.1540  0.3200
 2539TIP3   OH229031   1.443   5.960   4.787  0.2662 -0.1731 -0.2901
 2539TIP3    H129032   1.393   5.895   4.738 -1.5270  1.0286 -0.1318
 2539TIP3    H229033   1.428   6.042   4.740  1.7703  0.3144  0.0193
 2540TIP3   OH229034   5.199   2.464   5.740 -0.1066 -0.1799  0.0764
 2540TIP3    H129035   5.111   2.480   5.775 -1.1737 -3.6898 -0.6298
 2540TIP3    H229036   5.200   2.371   5.721  3.3537  0.0169 -1.2817
 2541TIP3   OH229037   1.520   1.774   1.000 -0.5644 -0.0283 -0.3007
 2541TIP3    H129038   1.597   1.830   1.015 -1.1916  0.4544  1.3065
 2541TIP3    H229039   1.465   1.825   0.941 -0.9036  0.8887  0.7588
 2542TIP3   OH229040   3.807   2.477  11.052 -0.1529  0.5467  0.7182
 2542TIP3    H129041   3.848   2.404  11.006 -0.5931  0.8039 -0.1005
 2542TIP3    H229042   3.733   2.502  10.997 -1.0178  0.5341  1.8344
 2543TIP3   OH229043   6.688   0.226  16.110 -0.4656  0.5965  0.6096
 2543TIP3    H129044   6.681   0.207  16.016  3.6141  2.9056 -0.3932
 2543TIP3    H229045   6.648   0.312  16.120  2.5474  2.2174 -0.0230
 2544TIP3   OH229046   5.876   3.247   1.263  0.0018 -0.2477 -0.1992
 2544TIP3    H129047   5.920   3.222   1.344 -0.7524 -0.2790  0.2134
 2544TIP3    H229048   5.945   3.249   1.197  0.8298  0.8915  0.6629
 2545TIP3   OH229049   0.783   0.243   5.289  0.4111  0.2099 -0.3293
 2545TIP3    H129050   0.817   0.332   5.297  0.6641  0.0455  0.5233
 2545TIP3    H229051   0.750   0.222   5.377  0.8424 -0.7301 -0.3840
 2546TIP3   OH229052   3.330   1.150   2.285  0.2619  0.1015  0.1948
 2546TIP3    H129053   3.296   1.069   2.324  0.6994 -0.0695  0.2289
 2546TIP3    H229054   3.318   1.139   2.191 -0.2886  0.2816  0.2382
 2547TIP3   OH229055   5.455   6.300  14.029  0.2463  0.2311  0.1593
 2547TIP3    H129056   5.485   6.390  14.014  0.0210  0.1497 -0.9278
 2547TIP3    H229057   5.387   6.308  14.096 -1.1184  1.1627 -1.2637
 2548TIP3   OH229058   5.500   3.065   2.247  0.0478  0.4921  0.0834
 2548TIP3    H129059   5.552   3.005   2.301 -1.0805  0.2025  0.9079
 2548TIP3    H229060   5.528   3.048   2.157  1.2750  0.2790  0.4928
 2549TIP3   OH229061   1.468   3.483   5.762 -0.2618  0.6461 -0.5472
 2549TIP3    H129062   1.436   3.408   5.711  0.1374  1.5484 -2.1937
 2549TIP3    H229063   1.388   3.524   5.796 -0.5169 -0.1293 -0.1718
 2550TIP3   OH229064   3.118   5.171   3.572  0.3205  0.1360  0.4490
 2550TIP3    H129065   3.109   5.163   3.667 -1.0768  0.3710  0.3592
 2550TIP3    H229066   3.039   5.129   3.538  1.3881 -1.0338 -0.6706
 2551TIP3   OH229067   5.860   4.049  11.704  0.0144  0.4654  0.1624
 2551TIP3    H129068   5.881   4.125  11.758 -1.6629  1.2305 -0.1936
 2551TIP3    H229069   5.835   3.981  11.767  0.7360  0.4495  0.4437
 2552TIP3   OH229070   3.435   5.004   6.510  1.4640 -0.1257 -0.2283
 2552TIP3    H129071   3.448   5.088   6.465 -0.4352 -0.0103 -0.6238
 2552TIP3    H229072   3.510   4.997   6.569  1.1462  2.3659  0.6038
 2553TIP3   OH229073   6.323   2.111   4.381  0.1533 -0.1756  0.0830
 2553TIP3    H129074   6.396   2.079   4.435  0.3549  1.8132  1.0683
 2553TIP3    H229075   6.365   2.170   4.317 -0.1406 -2.1289 -2.0428
 2554TIP3   OH229076   2.773   2.150   5.563  0.4256  0.1278 -0.2032
 2554TIP3    H129077   2.700   2.211   5.573  1.5417  1.6873 -1.1054
 2554TIP3    H229078   2.849   2.206   5.548  1.3879 -1.4986 -1.8314
 2555TIP3   OH229079   2.237   3.052   0.782 -0.1694 -0.3356  0.5986
 2555TIP3    H129080   2.234   3.077   0.690 -0.2416  2.5410  1.2724
 2555TIP3    H229081   2.161   2.995   0.795 -1.5466  1.1243 -0.6485
 2556TIP3   OH229082   1.665   4.060   1.522 -0.8427 -0.0821  0.4303
 2556TIP3    H129083   1.688   4.125   1.589  2.8089  0.9951 -1.5571
 2556TIP3    H229084   1.706   3.979   1.552 -1.0032 -0.1453  0.4801
 2557TIP3   OH229085   3.440   0.642   1.628 -0.7356  0.7696  0.9358
 2557TIP3    H129086   3.444   0.719   1.685  0.1570  1.0722  0.4802
 2557TIP3    H229087   3.522   0.644   1.579 -1.4699  0.5113 -0.3516
 2558TIP3   OH229088   2.648   3.748  16.607  0.2177 -0.5312  0.0082
 2558TIP3    H129089   2.621   3.759  16.698 -1.2930  0.4639 -0.5161
 2558TIP3    H229090   2.566   3.739  16.559  0.8638  1.1392 -1.5056
 2559TIP3   OH229091   6.112   2.862  13.878 -0.0343 -0.0582  0.3509
 2559TIP3    H129092   6.141   2.828  13.963  0.6059  0.1723  0.2350
 2559TIP3    H229093   6.027   2.902  13.896  0.3260  0.4559  1.0076
 2560TIP3   OH229094   0.718   1.340  14.989  0.0758 -0.0701 -0.2958
 2560TIP3    H129095   0.660   1.321  15.063  0.9687  0.6543  0.6119
 2560TIP3    H229096   0.748   1.430  15.005  0.7953 -0.1406 -1.1920
 2561TIP3   OH229097   2.133   2.887   4.921  0.2161 -0.6484  0.2005
 2561TIP3    H129098   2.159   2.854   4.835  0.0963 -2.1109  0.7045
 2561TIP3    H229099   2.102   2.810   4.968 -1.6782  0.4467  0.8661
 2562TIP3   OH229100   0.036   4.790  14.575 -0.2990  0.4629  0.7898
 2562TIP3    H129101   0.061   4.711  14.622  0.4419  0.9173  1.1840
 2562TIP3    H229102   0.007   4.851  14.643 -1.0834  0.4673  0.4722
 2563TIP3   OH229103   0.188   2.006   2.281 -0.1589 -0.6807 -0.9273
 2563TIP3    H129104   0.281   1.983   2.274  0.1021  0.2482 -0.6694
 2563TIP3    H229105   0.142   1.932   2.243  0.6281 -1.7215  0.0690
 2564TIP3   OH229106   2.580   5.440  15.096 -0.0124  0.6896  0.6870
 2564TIP3    H129107   2.630   5.430  15.177  0.4154  1.1012  0.4771
 2564TIP3    H229108   2.646   5.451  15.028 -0.3667  0.2289  0.2635
 2565TIP3   OH229109   2.425   2.239   1.255  1.1543  0.6769 -0.1201
 2565TIP3    H129110   2.415   2.210   1.164  3.0545  0.9260 -0.4441
 2565TIP3    H229111   2.410   2.333   1.253  1.7629  0.7712 -0.2799
 2566TIP3   OH229112   6.150   3.421   1.928 -0.1443  0.4463 -0.4637
 2566TIP3    H129113   6.222   3.445   1.870 -1.1216  0.6989 -1.6132
 2566TIP3    H229114   6.150   3.488   1.996  0.9338  0.2273 -0.2281
 2567TIP3   OH229115   3.306   2.264  16.328  0.1213  0.2620 -0.0282
 2567TIP3    H129116   3.363   2.317  16.384  3.1344 -2.6112 -0.0566
 2567TIP3    H229117   3.307   2.309  16.244  1.0614  1.1662  0.4332
 2568TIP3   OH229118   2.632   4.679  17.069 -0.2316 -0.1627 -0.1938
 2568TIP3    H129119   2.661   4.659  17.158  1.4050 -0.9936 -0.8768
 2568TIP3    H229120   2.544   4.641  17.064 -1.7376  2.6101  2.0025
 2569TIP3   OH229121   6.119   5.094  11.199  1.2346  0.0647  0.6333
 2569TIP3    H129122   6.128   5.042  11.119  2.0145 -0.4882  1.0747
 2569TIP3    H229123   6.099   5.182  11.167  1.4401 -0.1724 -0.1719
 2570TIP3   OH229124   1.840   2.990  14.947  0.6199 -0.2268 -0.1767
 2570TIP3    H129125   1.935   2.984  14.959  0.5826 -1.9730 -0.5321
 2570TIP3    H229126   1.828   3.055  14.878  1.5697 -0.0746 -0.2030
 2571TIP3   OH229127   2.682   5.742  16.764 -0.2884  0.2256 -0.7988
 2571TIP3    H129128   2.735   5.740  16.684  2.5944 -2.0688  0.9473
 2571TIP3    H229129   2.671   5.836  16.783  0.9705  0.7978 -2.6488
 2572TIP3   OH229130   0.650   1.967   3.150 -0.0338  0.1752 -0.9340
 2572TIP3    H129131   0.677   2.052   3.116  0.1504 -0.0433 -1.3435
 2572TIP3    H229132   0.731   1.926   3.182 -0.4468  1.1383  1.5555
 2573TIP3   OH229133   3.186   1.814   6.591  0.7878  0.6234  0.1127
 2573TIP3    H129134   3.211   1.892   6.542 -1.7196  2.0577  0.8982
 2573TIP3    H229135   3.113   1.844   6.646  0.6891 -1.9517  1.5087
 2574TIP3   OH229136   2.141   5.549  13.109 -0.0470 -0.4941 -0.5058
 2574TIP3    H129137   2.132   5.638  13.076 -1.2021 -1.8236 -4.1933
 2574TIP3    H229138   2.217   5.514  13.063 -0.9970 -2.1052 -0.9021
 2575TIP3   OH229139   2.761   5.695  15.052  0.1326 -0.3495 -0.2049
 2575TIP3    H129140   2.805   5.621  15.093  0.1458  1.3314  3.1571
 2575TIP3    H229141   2.830   5.759  15.036 -0.2001 -0.1517 -0.9192
 2576TIP3   OH229142   0.631   3.716   4.482  0.1973  0.6140 -0.3207
 2576TIP3    H129143   0.652   3.624   4.497 -0.8459  0.2873 -0.7747
 2576TIP3    H229144   0.543   3.715   4.446  0.2409  1.7870 -0.5040
 2577TIP3   OH229145   2.575   2.846   5.005 -0.5203  0.2513  0.0910
 2577TIP3    H129146   2.498   2.900   4.988 -0.6941  0.5554  1.7459
 2577TIP3    H229147   2.649   2.903   4.985 -0.7108  0.4513 -0.0459
 2578TIP3   OH229148   4.012   2.585   0.428  0.3413  0.0969  0.1094
 2578TIP3    H129149   3.947   2.542   0.484  0.3700 -1.6989 -1.1751
 2578TIP3    H229150   4.065   2.637   0.489 -0.5608 -0.5917  1.5346
 2579TIP3   OH229151   2.270   3.447  12.193 -0.2434  0.0358  0.1208
 2579TIP3    H129152   2.281   3.526  12.245  1.7313 -0.7714  1.0338
 2579TIP3    H229153   2.280   3.376  12.256  0.3307 -0.9652 -1.0583
 2580TIP3   OH229154   2.077   1.187  17.102 -0.6316 -0.2529  0.0847
 2580TIP3    H129155   2.063   1.170  17.195  2.1892  0.7306  0.7935
 2580TIP3    H229156   2.069   1.283  17.095  0.7554 -0.1550 -0.3303
 2581TIP3   OH229157   1.372   2.695  16.210 -0.5119  0.4204 -0.0785
 2581TIP3    H129158   1.381   2.600  16.198 -0.1842  0.4659 -0.1966
 2581TIP3    H229159   1.327   2.705  16.294 -2.6377  0.0940 -1.1043
 2582TIP3   OH229160   5.823   3.134   4.121  0.2086 -0.5104 -0.2360
 2582TIP3    H129161   5.790   3.192   4.190 -1.1992  0.4753 -1.6714
 2582TIP3    H229162   5.780   3.050   4.137  0.3347 -0.4533  0.4121
 2583TIP3   OH229163   0.207   3.728  12.784  0.7892 -0.1601 -0.2997
 2583TIP3    H129164   0.275   3.709  12.720  1.1164  2.2507 -0.7755
 2583TIP3    H229165   0.128   3.688  12.747  1.5680 -1.4423 -0.6326
 2584TIP3   OH229166   5.322   2.759  12.505  0.1696 -0.0334  0.4917
 2584TIP3    H129167   5.282   2.844  12.487  0.7040  0.5501  1.8922
 2584TIP3    H229168   5.384   2.745  12.433  0.6129  1.1241  0.6369
 2585TIP3   OH229169   3.142   1.715   4.379  0.2772 -0.1148 -0.7350
 2585TIP3    H129170   3.069   1.775   4.362  0.5154  0.3996  0.0283
 2585TIP3    H229171   3.104   1.628   4.370 -0.7339  0.1339  0.8447
 2586TIP3   OH229172   2.145   4.197   2.103 -0.0224 -0.0001  0.1976
 2586TIP3    H129173   2.097   4.262   2.155 -0.1876 -0.8543  1.1242
 2586TIP3    H229174   2.201   4.153   2.166 -1.2896 -2.0661 -0.0369
 2587TIP3   OH229175   1.787   3.047  11.494  0.0747  0.5162 -0.6397
 2587TIP3    H129176   1.788   3.080  11.404 -0.1857  1.2322 -0.3867
 2587TIP3    H229177   1.742   2.963  11.488 -0.7180  0.9648 -1.0495
 2588TIP3   OH229178   2.097   2.126   4.162 -0.1398  0.3185  0.1743
 2588TIP3    H129179   2.006   2.097   4.163  0.1829 -0.7745 -0.0596
 2588TIP3    H229180   2.119   2.135   4.069  0.0018  0.5297  0.2275
 2589TIP3   OH229181   0.574   2.998   3.754 -0.4263 -0.7506 -0.0185
 2589TIP3    H129182   0.631   3.038   3.689 -0.3770  0.0582  0.5118
 2589TIP3    H229183   0.611   2.912   3.769  0.9380 -0.0637  0.6632
 2590TIP3   OH229184   4.617   3.118  10.928  0.3048  0.3007 -0.4562
 2590TIP3    H129185   4.577   3.057  10.867 -0.1195  1.2178 -1.1231
 2590TIP3    H229186   4.683   3.067  10.974 -1.8745 -1.4056  0.9962
 2591TIP3   OH229187   5.827   4.064   5.599 -0.0289  0.1678  0.3555
 2591TIP3    H129188   5.866   4.148   5.621  0.0043 -0.1387  1.5464
 2591TIP3    H229189   5.801   4.027   5.684 -3.1479  0.4512 -0.3695
 2592TIP3   OH229190   5.501   3.818  11.309 -0.2772  0.0742  0.5346
 2592TIP3    H129191   5.578   3.764  11.292 -0.9764 -1.0897  0.9937
 2592TIP3    H229192   5.465   3.838  11.223 -0.5989 -1.0750  0.3923
 2593TIP3   OH229193   3.943   2.975   1.812  0.1082  0.0139  0.2487
 2593TIP3    H129194   4.037   2.982   1.795 -0.0239 -1.3320 -1.1681
 2593TIP3    H229195   3.936   2.977   1.908  1.6424 -0.5739  0.3979
 2594TIP3   OH229196   3.245   5.357  11.811 -0.2511  0.3000  0.0638
 2594TIP3    H129197   3.322   5.409  11.787 -1.4016  1.3664 -1.4869
 2594TIP3    H229198   3.280   5.269  11.825  1.5137  1.1298  1.2300
 2595TIP3   OH229199   0.069   2.072  11.067 -0.1069 -0.9512  0.6579
 2595TIP3    H129200   0.151   2.119  11.047 -0.9185 -0.0868 -0.8224
 2595TIP3    H229201   0.098   1.988  11.102  1.4309 -1.0376 -0.7029
 2596TIP3   OH229202   1.255   3.403  16.354  0.0582 -0.7322  0.0546
 2596TIP3    H129203   1.312   3.339  16.397  3.1622  2.6851  1.5176
 2596TIP3    H229204   1.209   3.446  16.425  0.5627  0.8409 -0.5189
 2597TIP3   OH229205   0.843   3.589  14.768 -0.0759  0.6166 -0.0619
 2597TIP3    H129206   0.839   3.673  14.721 -1.2685  1.1208  0.8843
 2597TIP3    H229207   0.874   3.613  14.856  0.9887 -0.1520 -0.2066
 2598TIP3   OH229208   4.925   2.407   5.757 -0.0777 -0.6726 -0.4140
 2598TIP3    H129209   4.844   2.447   5.789 -0.4088 -0.0706 -1.9038
 2598TIP3    H229210   4.899   2.360   5.678  1.1517  0.2255 -1.3963
 2599TIP3   OH229211   3.075   6.424   1.028 -0.6460 -0.4650  0.3186
 2599TIP3    H129212   3.145   6.488   1.017 -0.3076 -0.9699 -0.5010
 2599TIP3    H229213   3.050   6.432   1.120 -0.5066  0.7316  0.2703
 2600TIP3   OH229214   3.100   4.548   5.323 -0.5806  0.1422 -0.4584
 2600TIP3    H129215   3.073   4.499   5.401 -1.7105  1.9911  0.3740
 2600TIP3    H229216   3.025   4.543   5.264  1.1315 -3.4075 -2.6891
 2601TIP3   OH229217   2.685   5.188  15.344 -0.4410 -0.1607  0.1822
 2601TIP3    H129218   2.678   5.279  15.375 -0.0511  0.2913 -0.9882
 2601TIP3    H229219   2.734   5.195  15.263  0.3563 -1.5370  0.5212
 2602TIP3   OH229220   2.409   1.625  16.726  0.0993 -0.2814  0.1735
 2602TIP3    H129221   2.350   1.693  16.760  0.5145  1.2735 -2.0153
 2602TIP3    H229222   2.494   1.668  16.718  0.4327 -1.0973 -1.0330
 2603TIP3   OH229223   6.484   1.368  13.909 -0.7981  0.2813  0.0385
 2603TIP3    H129224   6.527   1.352  13.825 -0.6075  1.4499 -0.0955
 2603TIP3    H229225   6.553   1.357  13.975 -1.3017 -2.3822  0.2500
 2604TIP3   OH229226   2.597   5.177   6.029  0.0310  0.3301 -0.4197
 2604TIP3    H129227   2.526   5.239   6.047  1.7598  2.1082  0.6194
 2604TIP3    H229228   2.602   5.123   6.108 -1.8540 -1.6765 -1.5429
 2605TIP3   OH229229   2.704   3.601   4.341 -0.4530 -0.3600  0.4221
 2605TIP3    H129230   2.768   3.620   4.272 -1.4475 -1.3708 -0.8300
 2605TIP3    H229231   2.656   3.683   4.352  1.2268  0.5252  1.6281
 2606TIP3   OH229232   1.248   1.300   1.171  0.4949  0.4657  0.0177
 2606TIP3    H129233   1.265   1.233   1.237  1.3837 -1.0793 -1.6952
 2606TIP3    H229234   1.324   1.358   1.175  0.9503 -0.1046 -0.1799
 2607TIP3   OH229235   6.067   6.049   3.028  0.5714  0.1707  0.3040
 2607TIP3    H129236   6.133   6.099   2.979  0.5868  0.6128  0.7720
 2607TIP3    H229237   6.096   6.053   3.119 -0.3417  0.7622  0.5880
 2608TIP3   OH229238   5.948   1.986  14.004 -0.0143 -0.6073  0.1530
 2608TIP3    H129239   5.934   1.903  13.959  0.6908  0.0329 -1.3671
 2608TIP3    H229240   6.029   1.973  14.054  0.0153 -0.8845  0.0334
 2609TIP3   OH229241   4.561   3.168   4.004 -0.4252  0.0744  0.0248
 2609TIP3    H129242   4.519   3.232   4.062 -2.0460 -1.6534  0.8762
 2609TIP3    H229243   4.626   3.125   4.059  0.6845  0.9717 -0.5549
 2610TIP3   OH229244   2.208   2.704   1.125 -0.0703  0.5918  0.7469
 2610TIP3    H129245   2.150   2.672   1.194 -0.2108 -0.7002  0.0534
 2610TIP3    H229246   2.218   2.798   1.144 -1.8171  0.7097  1.2900
 2611TIP3   OH229247   4.434   3.028  17.311 -0.3713 -0.2891  0.5568
 2611TIP3    H129248   4.365   2.976  17.270  0.4883 -1.7347  0.8620
 2611TIP3    H229249   4.388   3.093  17.363 -1.4982  1.0547 -1.9402
 2612TIP3   OH229250   4.963   5.503   6.290 -0.2400  0.3875 -0.2753
 2612TIP3    H129251   4.933   5.458   6.211  0.9277 -0.0214 -0.5181
 2612TIP3    H229252   4.977   5.432   6.353 -1.0944  0.7054  0.2895
 2613TIP3   OH229253   6.095   2.699  15.200  0.4563 -0.4512 -0.0901
 2613TIP3    H129254   6.130   2.693  15.111  0.3095  0.7170 -0.2450
 2613TIP3    H229255   6.163   2.661  15.256  0.8494 -0.5452 -0.6284
 2614TIP3   OH229256   2.138   5.740  14.393  0.0976 -0.0816 -0.0787
 2614TIP3    H129257   2.109   5.781  14.475 -1.4701  1.8181 -1.4926
 2614TIP3    H229258   2.144   5.812  14.331  1.6660 -1.4151 -1.5682
 2615TIP3   OH229259   5.320   1.395  16.312 -0.4570  0.6124 -0.1625
 2615TIP3    H129260   5.327   1.421  16.220 -0.9597 -1.0476 -0.7273
 2615TIP3    H229261   5.374   1.316  16.318 -1.3058  0.0780  0.6827
 2616TIP3   OH229262   2.673   4.867  13.595 -0.2325 -0.0934 -0.3900
 2616TIP3    H129263   2.751   4.841  13.545 -0.1348 -0.9936  0.2180
 2616TIP3    H229264   2.707   4.929  13.661  0.4278 -2.2692  1.4328
 2617TIP3   OH229265   6.241   3.416  12.557  0.3059  0.5908 -0.3714
 2617TIP3    H129266   6.325   3.402  12.600  0.2216  0.2762 -0.3046
 2617TIP3    H229267   6.248   3.502  12.516  0.5751  0.6659 -0.1662
 2618TIP3   OH229268   5.025   6.005  10.861  0.0097  0.3771 -0.7441
 2618TIP3    H129269   5.065   5.921  10.883 -2.2915 -1.1501 -1.9680
 2618TIP3    H229270   4.992   6.039  10.944 -0.5950 -0.8298 -0.4706
 2619TIP3   OH229271   0.739   1.214   4.073 -0.3956 -0.3179 -0.4474
 2619TIP3    H129272   0.741   1.296   4.022 -1.8581 -0.3526 -0.5800
 2619TIP3    H229273   0.647   1.191   4.078 -0.0941 -1.3598  0.5880
 2620TIP3   OH229274   6.008   5.137   3.873 -0.0001  0.3197  0.4481
 2620TIP3    H129275   5.992   5.063   3.815 -1.5245  0.8638  0.1317
 2620TIP3    H229276   5.928   5.144   3.926 -1.3722  3.7096 -1.7714
 2621TIP3   OH229277   4.676   5.008   6.151 -0.0207 -0.2827 -0.0406
 2621TIP3    H129278   4.632   4.956   6.084  0.3203 -0.3862 -0.1872
 2621TIP3    H229279   4.614   5.012   6.224  0.1744 -1.3930  0.2075
 2622TIP3   OH229280   5.955   4.701  14.657 -0.3110 -0.1164 -0.0369
 2622TIP3    H129281   5.887   4.768  14.648 -0.4892 -0.0508  1.4388
 2622TIP3    H229282   6.024   4.744  14.707  0.2453 -0.5749 -0.4117
 2623TIP3   OH229283   4.090   0.696  16.401  0.7411 -0.3847  0.1857
 2623TIP3    H129284   4.081   0.640  16.478 -1.2949  0.1213  0.3607
 2623TIP3    H229285   4.096   0.785  16.436 -1.8522  0.0240 -0.1956
 2624TIP3   OH229286   3.271   0.839   5.454  0.1362  0.2972  0.3380
 2624TIP3    H129287   3.186   0.881   5.449 -1.4275 -2.6805 -0.1783
 2624TIP3    H229288   3.276   0.804   5.543  1.6340  1.8865  0.9364
 2625TIP3   OH229289   1.356   0.495   2.793 -0.0559  0.0240  0.6322
 2625TIP3    H129290   1.296   0.527   2.860  0.7734  1.7958  0.5959
 2625TIP3    H229291   1.442   0.528   2.820  0.7236 -1.4584  0.0697
 2626TIP3   OH229292   4.792   1.320   6.250 -0.2144  0.1430 -0.4872
 2626TIP3    H129293   4.813   1.412   6.268  0.1719  0.1338 -0.8609
 2626TIP3    H229294   4.705   1.323   6.210 -1.4856  0.0842  2.1195
 2627TIP3   OH229295   3.771   0.718  16.643  0.4323  0.1030  0.1052
 2627TIP3    H129296   3.863   0.700  16.665  0.7728  1.8753  0.2552
 2627TIP3    H229297   3.721   0.682  16.716  0.9828 -0.9680 -0.0244
 2628TIP3   OH229298   2.083   5.265  15.495 -0.8703  0.0741  0.1663
 2628TIP3    H129299   2.167   5.307  15.477 -0.5154  0.0197  1.5732
 2628TIP3    H229300   2.102   5.202  15.565 -1.9187 -0.5381 -0.0803
 2629TIP3   OH229301   3.872   6.049   3.891 -0.0190 -0.0945 -0.0336
 2629TIP3    H129302   3.927   6.011   3.960 -0.8210  0.7499  1.1105
 2629TIP3    H229303   3.798   5.989   3.882  0.6084 -0.7625 -0.9429
 2630TIP3   OH229304   2.788   1.552  11.600  0.1413  0.5171 -0.1712
 2630TIP3    H129305   2.865   1.608  11.615 -0.4787  1.5308 -0.6522
 2630TIP3    H229306   2.740   1.595  11.529 -1.5718  0.6651  1.0035
 2631TIP3   OH229307   2.489   2.032  16.717 -0.0445 -0.0047 -0.2681
 2631TIP3    H129308   2.578   2.056  16.743 -0.1952  0.0702  0.1788
 2631TIP3    H229309   2.499   1.994  16.629  0.2344  1.4255 -0.8716
 2632TIP3   OH229310   5.132   0.827   6.507  0.2053  0.4984 -0.3613
 2632TIP3    H129311   5.047   0.804   6.543  0.6461 -1.9339 -0.6977
 2632TIP3    H229312   5.195   0.795   6.572  0.9124  2.2792 -0.1003
 2633TIP3   OH229313   0.438   1.405  14.003  0.3369  0.3927  0.0977
 2633TIP3    H129314   0.500   1.441  14.067 -0.4091  1.0098  0.4910
 2633TIP3    H229315   0.395   1.482  13.965  0.6166  0.0237 -1.0025
 2634TIP3   OH229316   5.569   3.028  16.394 -0.4666  0.3409  0.1553
 2634TIP3    H129317   5.513   3.100  16.364 -2.0012 -0.3980  1.1159
 2634TIP3    H229318   5.513   2.977  16.452  1.0380 -0.8150  0.6530
 2635TIP3   OH229319   0.837   1.951   0.790  0.3861 -0.0918 -0.1327
 2635TIP3    H129320   0.822   1.874   0.735  0.7770 -0.6549  0.5349
 2635TIP3    H229321   0.881   2.013   0.732 -2.5400  0.8299 -1.5714
 2636TIP3   OH229322   3.132   4.895   5.049 -0.2757  0.2159  0.1807
 2636TIP3    H129323   3.137   4.945   4.967 -1.8775  1.2508  0.6593
 2636TIP3    H229324   3.203   4.831   5.043 -0.8105 -0.2577 -2.3718
 2637TIP3   OH229325   6.195   2.042  12.640 -0.3034  0.1490 -0.0333
 2637TIP3    H129326   6.200   2.100  12.717 -0.5450 -2.2865  1.9693
 2637TIP3    H229327   6.286   2.025  12.617 -0.1063 -1.3525  1.6339
 2638TIP3   OH229328   1.404   4.337  15.503 -0.0148 -0.6215  0.0446
 2638TIP3    H129329   1.445   4.418  15.532  1.0446 -0.9831 -0.4171
 2638TIP3    H229330   1.382   4.290  15.584 -0.1533 -0.1174  0.3010
 2639TIP3   OH229331   2.599   4.163   3.221  0.5070  0.3449  0.0591
 2639TIP3    H129332   2.634   4.085   3.263  0.4847  0.0824 -0.4061
 2639TIP3    H229333   2.665   4.231   3.238  0.4560  0.2627  0.5867
 2640TIP3   OH229334   4.566   1.752   3.982  0.0839  0.0863 -0.3052
 2640TIP3    H129335   4.533   1.693   3.915 -1.3604  0.1312  0.3482
 2640TIP3    H229336   4.643   1.793   3.941  0.7823 -1.7884 -0.9702
 2641TIP3   OH229337   3.410   5.856  11.058  0.4630 -0.2536  0.0082
 2641TIP3    H129338   3.504   5.864  11.044  0.3606  1.4448  0.0301
 2641TIP3    H229339   3.379   5.807  10.982  1.1281  0.8932 -1.0503
 2642TIP3   OH229340   1.082   2.276  11.335 -0.1147  0.6070  0.5383
 2642TIP3    H129341   0.987   2.267  11.329 -0.0283 -1.9943  1.6114
 2642TIP3    H229342   1.115   2.246  11.251 -0.2004 -0.9156  1.0167
 2643TIP3   OH229343   4.737   3.277   0.845 -0.6325  0.2027 -0.3539
 2643TIP3    H129344   4.825   3.295   0.812  0.3238 -1.2223  1.2295
 2643TIP3    H229345   4.698   3.219   0.780 -0.0423  0.0819 -0.6005
 2644TIP3   OH229346   1.034   3.021   2.149  0.8287  0.4124 -0.5096
 2644TIP3    H129347   0.953   3.015   2.097  0.5868  0.8778 -0.1880
 2644TIP3    H229348   1.103   2.995   2.088  0.5854  1.2727 -1.1750
 2645TIP3   OH229349   2.979   4.705   4.893  0.3032  0.0981 -0.5373
 2645TIP3    H129350   3.008   4.752   4.971 -1.3586 -2.0804  1.5341
 2645TIP3    H229351   2.907   4.757   4.858 -0.9484 -0.3708  1.2243
 2646TIP3   OH229352   5.266   0.143  13.079 -0.4062  0.1519 -0.1745
 2646TIP3    H129353   5.230   0.214  13.026  0.0013  1.5535  1.3405
 2646TIP3    H229354   5.326   0.186  13.140  0.4706 -1.6057  0.2729
 2647TIP3   OH229355   2.286   4.326   2.638 -0.7755  0.1668  0.1859
 2647TIP3    H129356   2.292   4.414   2.600  0.1396  0.3113  0.6257
 2647TIP3    H229357   2.328   4.269   2.573 -0.0493  0.2768  0.5519
 2648TIP3   OH229358   4.093   1.580   1.104 -0.0896 -0.0451  0.1235
 2648TIP3    H129359   4.003   1.602   1.129  0.2407 -0.0738  1.4165
 2648TIP3    H229360   4.083   1.523   1.027 -1.2190 -0.6439  0.6766
 2649TIP3   OH229361   4.783   4.872   5.338  0.5635 -0.4345  0.0888
 2649TIP3    H129362   4.825   4.903   5.419  1.9860  0.7880 -1.0432
 2649TIP3    H229363   4.788   4.947   5.279  0.2582 -1.5429 -1.3971
 2650TIP3   OH229364   0.718   4.301   3.467  0.4740 -0.2674  0.2651
 2650TIP3    H129365   0.657   4.319   3.538 -0.4963  1.6618 -0.9601
 2650TIP3    H229366   0.720   4.205   3.461  0.3969 -0.4788  2.6646
 2651TIP3   OH229367   2.510   3.424  14.246  0.2575 -0.0599 -0.1201
 2651TIP3    H129368   2.469   3.473  14.175 -0.5516  1.4330  1.3045
 2651TIP3    H229369   2.597   3.464  14.255  0.4637 -0.4321 -0.4365
 2652TIP3   OH229370   4.302   4.631  16.654 -0.0336  0.6473 -0.1259
 2652TIP3    H129371   4.303   4.643  16.559  0.4252  0.2059 -0.1755
 2652TIP3    H229372   4.368   4.692  16.687 -0.8606  1.4988 -0.0014
 2653TIP3   OH229373   5.472   1.695   5.539 -0.0975  0.0153 -0.1555
 2653TIP3    H129374   5.535   1.744   5.593  0.2036  0.0515 -0.5351
 2653TIP3    H229375   5.486   1.603   5.564 -1.6472  0.1999  1.5976
 2654TIP3   OH229376   0.547   0.875  15.413 -0.4036 -0.1632 -0.4344
 2654TIP3    H129377   0.562   0.783  15.434 -1.7568  0.0660  1.8284
 2654TIP3    H229378   0.574   0.922  15.492 -2.3421  1.1399 -0.4919
 2655TIP3   OH229379   4.550   3.788   1.673  0.0097  0.8992  0.0271
 2655TIP3    H129380   4.469   3.839   1.678 -0.4039  0.1582  2.0298
 2655TIP3    H229381   4.617   3.847   1.706 -0.3627  0.4131  1.7535
 2656TIP3   OH229382   1.008   5.478   3.351  0.2531  0.4161  0.4066
 2656TIP3    H129383   1.040   5.478   3.441  2.5515 -0.8249 -0.3428
 2656TIP3    H229384   0.971   5.390   3.339 -0.7851  0.8413  0.3341
 2657TIP3   OH229385   1.222   2.886   1.951 -0.0346  0.5203  0.5555
 2657TIP3    H129386   1.315   2.874   1.969  0.0228 -1.6618 -0.7543
 2657TIP3    H229387   1.180   2.810   1.991 -0.6655 -0.8457 -2.4563
 2658TIP3   OH229388   3.263   1.002   0.960 -0.1816  0.7237  0.1080
 2658TIP3    H129389   3.214   1.018   1.041  0.6177  2.6504  0.2614
 2658TIP3    H229390   3.355   1.013   0.985  0.4143 -2.4108 -0.2707
 2659TIP3   OH229391   1.361   4.853   0.227  0.2175 -0.3919 -0.3920
 2659TIP3    H129392   1.413   4.915   0.175  0.0450 -1.2613 -1.6414
 2659TIP3    H229393   1.424   4.790   0.261  0.3629  0.3127  0.6958
 2660TIP3   OH229394   5.888   2.679   1.182 -0.1346  0.0986 -0.6615
 2660TIP3    H129395   5.974   2.686   1.223 -0.4763  1.3192 -0.0945
 2660TIP3    H229396   5.893   2.733   1.104 -1.0338  2.1210  0.5904
 2661TIP3   OH229397   6.130   0.876   5.517  0.7390 -0.6881  0.2826
 2661TIP3    H129398   6.137   0.835   5.603 -0.6927  0.1255  0.8198
 2661TIP3    H229399   6.113   0.968   5.535 -2.5960 -0.9658 -0.7327
 2662TIP3   OH229400   1.282   5.724  15.898 -0.2470  0.6745  0.5830
 2662TIP3    H129401   1.195   5.753  15.924 -1.1451  0.3124 -1.7441
 2662TIP3    H229402   1.327   5.805  15.871 -0.4079  0.6809  0.3340
 2663TIP3   OH229403   2.846   4.040  14.412  0.1349  0.5579 -0.4777
 2663TIP3    H129404   2.820   4.011  14.499  2.2584 -1.9278 -0.5413
 2663TIP3    H229405   2.764   4.059  14.367 -1.1334 -0.3669  1.3287
 2664TIP3   OH229406   4.316   3.533   3.523  0.1747  0.0939 -0.1109
 2664TIP3    H129407   4.403   3.574   3.527  0.6239 -0.9237  1.6605
 2664TIP3    H229408   4.303   3.496   3.610 -0.6986 -2.4974 -1.2239
 2665TIP3   OH229409   0.797   0.518   2.257  0.4765 -0.5057  0.0357
 2665TIP3    H129410   0.747   0.446   2.219 -0.6035 -0.5182  1.3721
 2665TIP3    H229411   0.888   0.491   2.249  0.1852 -1.1981 -1.0859
 2666TIP3   OH229412   3.874   5.494   0.915 -0.0675 -0.5493  0.3338
 2666TIP3    H129413   3.937   5.459   0.852  0.5475 -0.2278  0.7631
 2666TIP3    H229414   3.928   5.531   0.985 -0.7373 -0.9645  1.0936
 2667TIP3   OH229415   0.820   6.215   1.411  0.0349  0.1118  0.0895
 2667TIP3    H129416   0.766   6.268   1.352 -0.9467 -0.2896  0.5903
 2667TIP3    H229417   0.865   6.279   1.467 -2.4036  0.4914  1.8111
 2668TIP3   OH229418   3.139   6.172  16.739  0.1140  0.8270  0.1434
 2668TIP3    H129419   3.195   6.215  16.674 -0.8306  0.4887 -0.9273
 2668TIP3    H229420   3.064   6.140  16.689  0.7514 -2.0918  0.8399
 2669TIP3   OH229421   3.852   1.392  12.673 -0.4618  0.4956 -0.2137
 2669TIP3    H129422   3.887   1.311  12.710  1.2000  0.1473 -2.3164
 2669TIP3    H229423   3.869   1.458  12.740 -1.5569 -0.8060  1.4074
 2670TIP3   OH229424   0.410   2.237   4.261 -0.4501  1.1925  0.0422
 2670TIP3    H129425   0.355   2.243   4.182  1.0236  0.0865 -1.1218
 2670TIP3    H229426   0.445   2.325   4.272  1.7571  0.7566 -2.4377
 2671TIP3   OH229427   5.258   4.631   5.210 -0.7182  0.9917  0.0551
 2671TIP3    H129428   5.329   4.694   5.224 -0.2161  0.8234 -1.5416
 2671TIP3    H229429   5.204   4.638   5.289  0.4881  1.8818  0.8434
 2672TIP3   OH229430   5.185   6.171  13.990 -0.4944 -0.1286 -0.1822
 2672TIP3    H129431   5.244   6.117  14.042  0.8949  1.2877 -0.2077
 2672TIP3    H229432   5.218   6.163  13.900  1.0777  2.2901  0.0728
 2673TIP3   OH229433   6.708   1.386   1.623 -0.8709  0.6989 -0.1649
 2673TIP3    H129434   6.623   1.348   1.599 -1.7402  2.8443 -0.8269
 2673TIP3    H229435   6.716   1.370   1.717 -1.7838  0.0118 -0.1929
 2674TIP3   OH229436   2.775   4.475   2.441 -0.7103 -0.0632  0.5131
 2674TIP3    H129437   2.759   4.475   2.346  2.0623  1.6453 -0.0617
 2674TIP3    H229438   2.815   4.389   2.458 -1.0085 -0.2892  0.0970
 2675TIP3   OH229439   1.402   4.764   4.612  0.2165 -0.4134 -0.1166
 2675TIP3    H129440   1.389   4.784   4.705 -0.4453  0.2593 -0.3459
 2675TIP3    H229441   1.496   4.774   4.599  0.4286 -1.2322  0.6374
 2676TIP3   OH229442   6.724   6.409  13.779  0.1328 -0.1057  0.7980
 2676TIP3    H129443   6.696   6.462  13.854 -0.1684 -0.6859  1.1011
 2676TIP3    H229444   6.673   6.442  13.705 -1.1672 -0.9541  1.2816
 2677TIP3   OH229445   1.422   5.093   0.885 -0.0930  0.2072 -0.0568
 2677TIP3    H129446   1.458   5.121   0.801  0.3685  0.4008  0.2015
 2677TIP3    H229447   1.417   5.173   0.937  0.5108 -0.0553  0.4206
 2678TIP3   OH229448   4.445   3.861   2.412  0.1815  0.0708 -0.2473
 2678TIP3    H129449   4.401   3.783   2.446 -1.3174  0.6526 -0.7691
 2678TIP3    H229450   4.456   3.844   2.318  0.0359  0.3924 -0.3259
 2679TIP3   OH229451   0.965   2.487   3.428 -0.0429 -0.2262  0.3349
 2679TIP3    H129452   0.897   2.554   3.427 -0.2463 -0.4314  0.2011
 2679TIP3    H229453   1.004   2.491   3.341  1.1493  0.9231  0.8884
 2680TIP3   OH229454   1.966   3.197   2.147 -0.1184 -0.0282  0.0903
 2680TIP3    H129455   1.984   3.260   2.078 -2.5012 -1.5592 -2.1008
 2680TIP3    H229456   1.882   3.224   2.183 -0.3160 -0.9207  0.3252
 2681TIP3   OH229457   1.638   6.348   2.422  0.1013  0.6831  0.5476
 2681TIP3    H129458   1.582   6.426   2.420 -0.4967  0.2682  0.7419
 2681TIP3    H229459   1.714   6.375   2.474  0.8380  1.7349 -0.9935
 2682TIP3   OH229460   1.053   0.269  14.787 -0.0669 -0.0166  0.3912
 2682TIP3    H129461   1.017   0.181  14.795 -2.4490  0.7785 -0.7577
 2682TIP3    H229462   0.997   0.324  14.842  1.5870  0.7755  1.3737
 2683TIP3   OH229463   2.877   1.552   5.912 -0.0037  0.0509  0.0246
 2683TIP3    H129464   2.895   1.526   6.002  0.8813 -0.6298 -0.3327
 2683TIP3    H229465   2.838   1.639   5.919 -1.0091 -0.4680  1.1291
 2684TIP3   OH229466   0.440   4.281   1.912 -0.0533  0.2106  0.0657
 2684TIP3    H129467   0.488   4.198   1.921 -0.9553 -0.3732 -0.4160
 2684TIP3    H229468   0.509   4.347   1.901  0.6508 -0.6255 -0.7332
 2685TIP3   OH229469   2.776   1.410   1.780 -0.5853 -0.1816  0.0000
 2685TIP3    H129470   2.779   1.351   1.856 -0.6446  0.8293  0.8007
 2685TIP3    H229471   2.687   1.402   1.748 -0.8214  0.0574  0.5828
 2686TIP3   OH229472   0.481   3.303  14.405 -0.1291  0.4918 -0.5214
 2686TIP3    H129473   0.433   3.266  14.479 -0.5752 -0.7709 -1.4077
 2686TIP3    H229474   0.491   3.396  14.427  0.7038 -0.0419  1.6054
 2687TIP3   OH229475   4.378   3.320   0.966  0.4741  0.1365  0.1189
 2687TIP3    H129476   4.340   3.255   1.024 -4.0296  2.5794  0.3521
 2687TIP3    H229477   4.422   3.382   1.025  2.2230 -1.0451  0.1323
 2688TIP3   OH229478   4.458   2.104   1.745 -0.4932 -0.4935 -0.2356
 2688TIP3    H129479   4.402   2.164   1.696  0.8362  1.0097  0.0281
 2688TIP3    H229480   4.448   2.131   1.836 -0.0888 -0.8706 -0.0760
 2689TIP3   OH229481   4.423   2.756  12.464 -0.4505  0.0985  0.4937
 2689TIP3    H129482   4.461   2.732  12.548 -1.0800 -0.2361  0.6909
 2689TIP3    H229483   4.440   2.680  12.408 -1.3932 -0.3394  0.7754
 2690TIP3   OH229484   3.477   1.274  14.707  0.4805 -0.2709 -0.9010
 2690TIP3    H129485   3.427   1.303  14.783  0.3542  1.5812 -1.6480
 2690TIP3    H229486   3.432   1.195  14.677 -1.3979  0.7919 -0.9721
 2691TIP3   OH229487   3.974   5.387   1.643  0.3839  0.0361  0.7390
 2691TIP3    H129488   3.930   5.403   1.559  3.4645  0.3669 -0.9678
 2691TIP3    H229489   3.910   5.337   1.694 -0.9155 -2.0688 -2.6020
 2692TIP3   OH229490   3.408   0.211  13.632  0.2044  0.1053  0.3435
 2692TIP3    H129491   3.469   0.252  13.571 -0.5075 -0.6802 -0.9395
 2692TIP3    H229492   3.322   0.243  13.605 -0.0366  0.6501  1.6858
 2693TIP3   OH229493   3.539   0.296   4.855 -0.7682 -0.1202  0.2767
 2693TIP3    H129494   3.549   0.201   4.862 -1.0657 -0.3407 -1.6586
 2693TIP3    H229495   3.610   0.332   4.908  1.2742 -1.4888 -1.3807
 2694TIP3   OH229496   5.568   0.023  14.155 -1.0025 -0.1168 -0.7099
 2694TIP3    H129497   5.507   0.036  14.227  1.2289 -0.3587  1.3282
 2694TIP3    H229498   5.619   0.104  14.151  0.4083 -0.9646 -0.4702
 2695TIP3   OH229499   1.572   1.970   4.988  0.3431 -0.5310  0.0531
 2695TIP3    H129500   1.578   1.988   5.081  1.1224  2.8194 -0.5044
 2695TIP3    H229501   1.507   2.032   4.955  0.4668 -1.2610 -1.7214
 2696TIP3   OH229502   1.234   0.838  10.854  0.1366  0.1401 -0.3571
 2696TIP3    H129503   1.321   0.863  10.824  0.3193  0.7842  0.6269
 2696TIP3    H229504   1.243   0.829  10.949 -1.1933  1.7371 -0.0223
 2697TIP3   OH229505   5.545   2.630  17.282  0.1267 -0.1775  0.2908
 2697TIP3    H129506   5.602   2.673  17.346  0.6827 -0.0356 -0.2798
 2697TIP3    H229507   5.470   2.599  17.332  0.7894 -0.5152  1.0931
 2698TIP3   OH229508   2.089   5.927  14.147  0.2858  0.4353  0.4183
 2698TIP3    H129509   2.096   5.993  14.216 -0.0254 -0.9014  1.7840
 2698TIP3    H229510   1.998   5.935  14.117 -0.1795 -0.2572  1.5516
 2699TIP3   OH229511   2.087   6.198  16.709 -0.1844  0.1999 -0.2052
 2699TIP3    H129512   2.151   6.219  16.777 -0.7430  1.2446  0.0119
 2699TIP3    H229513   2.058   6.109  16.731  2.3589 -0.9952 -1.2532
 2700TIP3   OH229514   2.856   5.800   3.538 -0.1744 -0.7303 -0.0099
 2700TIP3    H129515   2.825   5.772   3.452  0.4605  0.6049 -0.7027
 2700TIP3    H229516   2.778   5.795   3.594 -0.4426 -2.2523 -0.4714
 2701TIP3   OH229517   5.145   0.019   1.236 -0.0935  0.2356  0.3563
 2701TIP3    H129518   5.224   0.061   1.268  0.6469 -0.7206 -0.1595
 2701TIP3    H229519   5.168  -0.074   1.229 -1.0475  0.0341 -0.4249
 2702TIP3   OH229520   5.930   5.281   0.414  0.0546  0.2613  0.2742
 2702TIP3    H129521   5.903   5.337   0.487 -0.9264  0.7208 -0.4156
 2702TIP3    H229522   5.913   5.333   0.336  1.0332 -0.2480 -0.2975
 2703TIP3   OH229523   3.584   3.501   4.496 -0.0651  0.2088 -0.3268
 2703TIP3    H129524   3.547   3.527   4.580  0.7175  2.2971 -0.5829
 2703TIP3    H229525   3.510   3.505   4.435 -0.5476 -0.9435  0.1354
 2704TIP3   OH229526   1.013   4.121  16.608  0.2115 -0.2640 -0.0925
 2704TIP3    H129527   0.975   4.162  16.530  0.0128  0.1213  0.2071
 2704TIP3    H229528   1.097   4.164  16.619 -0.3557  0.6906  0.7163
 2705TIP3   OH229529   0.038   1.173  12.184  0.3643 -0.0372 -0.3171
 2705TIP3    H129530   0.027   1.256  12.138 -0.5826 -0.5880 -1.1318
 2705TIP3    H229531   0.035   1.107  12.114 -1.6254 -0.9432  0.5421
 2706TIP3   OH229532   1.514   6.487  11.930  0.0075 -0.1077  0.0195
 2706TIP3    H129533   1.448   6.418  11.929  0.0497 -0.1773 -2.1044
 2706TIP3    H229534   1.480   6.552  11.991 -1.3469 -0.7610 -0.0004
 2707TIP3   OH229535   3.843   1.040  14.761 -0.3087 -0.5007  0.2064
 2707TIP3    H129536   3.939   1.043  14.765 -0.1116 -1.8737 -2.1397
 2707TIP3    H229537   3.819   1.124  14.723 -0.2379  0.5650  2.3339
 2708TIP3   OH229538   6.505   2.762  12.514 -0.4939  0.2685  0.5606
 2708TIP3    H129539   6.585   2.711  12.505 -0.2545  0.4459  1.5723
 2708TIP3    H229540   6.450   2.733  12.442  0.4541  0.0978 -0.1095
 2709TIP3   OH229541   0.529   3.966   5.711  0.0494 -0.0697 -0.5819
 2709TIP3    H129542   0.566   4.039   5.761 -0.6331 -0.5070  0.5914
 2709TIP3    H229543   0.597   3.945   5.647  0.6079  1.0413 -0.3825
 2710TIP3   OH229544   4.221   3.276  16.165  0.6530  0.0055  0.1962
 2710TIP3    H129545   4.273   3.354  16.150  1.2192 -0.6920 -1.7018
 2710TIP3    H229546   4.133   3.308  16.184  0.7385  1.0986 -1.1325
 2711TIP3   OH229547   6.051   6.590  13.603 -0.1366  0.1019 -0.0983
 2711TIP3    H129548   6.032   6.497  13.618  0.1256  0.1177  0.3656
 2711TIP3    H229549   6.020   6.607  13.514 -0.6360 -0.3083 -0.0093
 2712TIP3   OH229550   4.561   5.028   3.175  0.4438  0.2239 -0.5052
 2712TIP3    H129551   4.505   4.953   3.155  0.1478  0.4750 -0.6484
 2712TIP3    H229552   4.650   4.996   3.165  0.3227 -0.2137 -0.1582
 2713TIP3   OH229553   1.476   1.587   0.495 -0.1201 -0.0258  0.1367
 2713TIP3    H129554   1.463   1.638   0.574  0.5973 -2.2017  1.7591
 2713TIP3    H229555   1.560   1.616   0.460 -1.2970  2.2701 -0.9669
 2714TIP3   OH229556   6.124   6.373  13.088  0.1958  0.1060  0.2510
 2714TIP3    H129557   6.166   6.348  13.171 -0.1266 -0.5540  0.2243
 2714TIP3    H229558   6.139   6.297  13.031 -0.4874  0.1263  0.0427
 2715TIP3   OH229559   1.869   3.599  14.051  0.1127  0.2549 -0.0856
 2715TIP3    H129560   1.871   3.566  13.962 -0.6984  1.4638 -0.5807
 2715TIP3    H229561   1.880   3.521  14.106  0.9405 -0.4671 -1.2237
 2716TIP3   OH229562   3.379   2.751  13.174 -0.2361 -0.6186 -0.5250
 2716TIP3    H129563   3.326   2.671  13.168  1.4140 -2.0085  1.6609
 2716TIP3    H229564   3.398   2.759  13.268  2.1224  0.6529 -1.0476
 2717TIP3   OH229565   2.243   3.449   1.858 -0.1652  0.2685  0.0330
 2717TIP3    H129566   2.216   3.503   1.785  0.8338  1.2728  0.3731
 2717TIP3    H229567   2.330   3.482   1.882 -0.3406 -0.2218  1.4764
 2718TIP3   OH229568   4.656   4.764   2.178  0.1985 -0.4320 -0.2936
 2718TIP3    H129569   4.598   4.830   2.139 -0.0147  0.2971  1.1669
 2718TIP3    H229570   4.682   4.803   2.262  2.7722 -0.7528 -0.8592
 2719TIP3   OH229571   4.062   4.877   1.958 -0.3845  0.2050  0.4394
 2719TIP3    H129572   3.998   4.806   1.952  1.0100 -0.9537 -1.7330
 2719TIP3    H229573   4.016   4.954   1.927 -1.3825 -0.1132  1.0931
 2720TIP3   OH229574   6.284   6.590  16.627  0.4477  0.3079 -0.4079
 2720TIP3    H129575   6.250   6.626  16.709  3.5754 -0.3507  1.3425
 2720TIP3    H229576   6.235   6.510  16.613 -1.0859  1.1343  0.0242
 2721TIP3   OH229577   5.373   3.213  16.318 -0.2756  0.0879 -0.3525
 2721TIP3    H129578   5.313   3.169  16.257  0.3087  0.4907 -1.2442
 2721TIP3    H229579   5.316   3.247  16.387 -1.2797  1.5448 -1.8143
 2722TIP3   OH229580   5.181   0.212   3.645  0.5841 -0.1333 -0.2666
 2722TIP3    H129581   5.264   0.166   3.660  0.6445  0.5104  1.6379
 2722TIP3    H229582   5.202   0.276   3.577  1.4996 -0.3462 -0.2077
 2723TIP3   OH229583   4.001   5.575   2.482  0.5572 -0.1516  0.3983
 2723TIP3    H129584   4.087   5.613   2.464  0.0452  0.2903 -1.2477
 2723TIP3    H229585   3.967   5.625   2.556  1.9108 -0.6859  1.4269
 2724TIP3   OH229586   0.477   0.404  16.245  0.0259  0.3499 -0.0218
 2724TIP3    H129587   0.433   0.442  16.321  0.1024 -0.8329  0.6482
 2724TIP3    H229588   0.407   0.357  16.198  0.2816 -0.3435  0.2702
 2725TIP3   OH229589   2.909   1.633   4.208 -0.1115 -0.0890  0.0996
 2725TIP3    H129590   2.911   1.728   4.203 -1.9352 -0.0756 -1.6101
 2725TIP3    H229591   2.910   1.604   4.117  1.2027 -1.7656  0.5978
 2726TIP3   OH229592   3.413   3.499  16.932  0.1718  0.1878  0.7459
 2726TIP3    H129593   3.344   3.522  16.870  1.0582  1.2408  0.1007
 2726TIP3    H229594   3.371   3.504  17.018 -0.6205  0.5429  0.3492
 2727TIP3   OH229595   0.057   1.691   5.116  0.0725  0.6289 -0.8076
 2727TIP3    H129596   0.126   1.633   5.145 -1.8553 -1.4195 -0.0205
 2727TIP3    H229597   0.080   1.777   5.152  1.7919 -0.1390  0.0090
 2728TIP3   OH229598   2.683   1.552  15.439  0.6928 -0.2559 -0.1346
 2728TIP3    H129599   2.682   1.465  15.398  1.8816 -0.8567  1.0530
 2728TIP3    H229600   2.625   1.543  15.515 -1.0476  0.6933 -1.2795
 2729TIP3   OH229601   4.931   5.368   5.567 -0.2006  0.2681 -0.2477
 2729TIP3    H129602   4.901   5.329   5.649 -0.1036  0.1694 -0.2590
 2729TIP3    H229603   4.860   5.427   5.541 -0.1153  0.4987  0.0450
 2730TIP3   OH229604   5.566   0.014  16.724  0.1819 -0.2533  0.0326
 2730TIP3    H129605   5.544   0.098  16.684  1.0066  0.1997  0.4913
 2730TIP3    H229606   5.525  -0.052  16.668 -1.1256  0.4820  0.0913
 2731TIP3   OH229607   3.788   2.250   2.009  0.2800 -0.2510  0.3220
 2731TIP3    H129608   3.765   2.341   1.989  0.1448  0.1002  1.9704
 2731TIP3    H229609   3.744   2.199   1.940  0.1652  0.8974 -0.4867
 2732TIP3   OH229610   1.203   3.904   4.255  0.2455  0.4024  0.0568
 2732TIP3    H129611   1.261   3.917   4.180 -0.4198  0.0503 -0.5357
 2732TIP3    H229612   1.121   3.945   4.228 -0.3752 -0.7722  0.1073
 2733TIP3   OH229613   5.211   5.640  16.918  0.0612 -0.4407 -0.7714
 2733TIP3    H129614   5.271   5.569  16.940 -0.4661 -0.9922 -1.0709
 2733TIP3    H229615   5.265   5.719  16.918  0.4273 -0.6699  0.7121
 2734TIP3   OH229616   0.589   5.779  15.861  0.0886 -0.2308  0.0809
 2734TIP3    H129617   0.666   5.722  15.862 -0.7701 -1.4539 -0.8426
 2734TIP3    H229618   0.515   5.719  15.866 -0.8884  0.6641 -2.2995
 2735TIP3   OH229619   6.087   0.038   2.458  0.1853 -0.2005 -0.2056
 2735TIP3    H129620   6.082  -0.037   2.517 -0.5266  0.0574  0.0734
 2735TIP3    H229621   6.140   0.008   2.384 -0.8198 -1.2489 -0.5088
 2736TIP3   OH229622   0.056   6.519  15.263  0.5155 -0.2997  0.2650
 2736TIP3    H129623  -0.023   6.498  15.214 -0.0439 -0.4564  1.1957
 2736TIP3    H229624   0.023   6.559  15.344  1.4260  0.6678  0.1845
 2737TIP3   OH229625   0.126   0.718  16.755  0.1445 -0.4846 -0.8588
 2737TIP3    H129626   0.099   0.638  16.800  0.5971 -0.2470 -0.1371
 2737TIP3    H229627   0.189   0.689  16.689  0.9956 -0.6407  0.0050
 2738TIP3   OH229628   0.294   6.525   5.334  0.0115 -0.1596 -0.3119
 2738TIP3    H129629   0.388   6.530   5.355  0.3954 -0.6114 -1.7817
 2738TIP3    H229630   0.280   6.595   5.270  0.0762 -2.0044 -2.4695
 2739TIP3   OH229631   4.899   2.978   4.439 -0.2169 -0.0901 -0.2893
 2739TIP3    H129632   4.958   3.051   4.418 -1.3472  0.8777 -0.2116
 2739TIP3    H229633   4.814   3.020   4.452 -0.4931 -1.1756  1.7959
 2740TIP3   OH229634   5.503   0.639  15.939  0.5359 -0.3043 -0.3452
 2740TIP3    H129635   5.489   0.731  15.961 -1.4581 -0.4090 -0.9776
 2740TIP3    H229636   5.424   0.595  15.971  1.7533 -1.9228  0.5532
 2741TIP3   OH229637   3.751   2.189  11.246 -0.0322 -0.0689 -0.4132
 2741TIP3    H129638   3.836   2.162  11.211 -0.1552 -1.7043  0.4845
 2741TIP3    H229639   3.690   2.171  11.174  0.0095 -1.4757 -0.1262
 2742TIP3   OH229640   5.403   1.865   1.140  0.5141  0.2744  0.2701
 2742TIP3    H129641   5.456   1.807   1.195  0.2085  0.0422  0.3239
 2742TIP3    H229642   5.350   1.806   1.086  1.2357  0.4881 -0.7047
 2743TIP3   OH229643   5.790   2.297  14.637 -0.6055 -0.0266  0.3356
 2743TIP3    H129644   5.777   2.385  14.670  0.5308  0.3773 -0.2559
 2743TIP3    H229645   5.802   2.243  14.715 -3.2785 -0.0438  0.8080
 2744TIP3   OH229646   5.771   4.228   2.888  0.3218 -0.1845 -0.4992
 2744TIP3    H129647   5.715   4.306   2.880  2.2452  2.1531  4.4139
 2744TIP3    H229648   5.856   4.257   2.854  0.3105 -1.3999 -1.6556
 2745TIP3   OH229649   1.417   2.886   4.831  0.7028  0.1407  0.0158
 2745TIP3    H129650   1.447   2.802   4.867 -0.2057 -0.0944  0.2625
 2745TIP3    H229651   1.426   2.876   4.736 -2.4013 -1.5089 -0.2256
 2746TIP3   OH229652   0.576   1.906   2.013  0.3356 -0.6815  0.2798
 2746TIP3    H129653   0.515   1.900   1.940  0.0373  1.6097  0.2721
 2746TIP3    H229654   0.656   1.865   1.981 -0.3696 -1.3355 -0.6705
 2747TIP3   OH229655   4.257   5.930  15.578 -0.2671 -0.2223  0.1673
 2747TIP3    H129656   4.272   6.015  15.620 -0.0443  0.2497 -0.8290
 2747TIP3    H229657   4.336   5.917  15.524 -0.2836 -1.0807  0.3513
 2748TIP3   OH229658   4.172   5.925   4.618  0.2631 -0.0301  0.0453
 2748TIP3    H129659   4.156   6.017   4.597  1.4147 -0.1617 -1.6570
 2748TIP3    H229660   4.087   5.891   4.645 -0.7907  0.8910 -1.9237
 2749TIP3   OH229661   4.069   6.275   4.297  0.1541 -0.0051 -0.0128
 2749TIP3    H129662   3.996   6.279   4.235 -0.1289  1.0301  0.3613
 2749TIP3    H229663   4.108   6.363   4.294  2.2009 -0.8733 -1.1567
 2750TIP3   OH229664   4.998   0.527   4.640 -0.5603 -0.0730  0.6010
 2750TIP3    H129665   5.008   0.503   4.732 -1.8534  1.3455  1.1591
 2750TIP3    H229666   5.032   0.616   4.635 -1.7907  0.3831  0.0307
 2751TIP3   OH229667   6.026   0.666   4.292 -0.1618 -0.1541  0.1179
 2751TIP3    H129668   5.933   0.653   4.275 -0.3277  0.7260  0.3028
 2751TIP3    H229669   6.029   0.708   4.378  0.4725 -1.2333  0.6363
 2752TIP3   OH229670   6.172   0.947  11.213  0.6893 -0.0648 -0.5288
 2752TIP3    H129671   6.225   0.916  11.140 -1.1318 -0.4756 -1.7352
 2752TIP3    H229672   6.098   0.886  11.217 -0.8644  1.7184 -0.3571
 2753TIP3   OH229673   1.558   0.579   4.104  0.5250  0.0120 -0.1338
 2753TIP3    H129674   1.547   0.543   4.016 -0.2287  0.0483 -0.0660
 2753TIP3    H229675   1.627   0.527   4.143 -1.4062 -2.3054  0.4308
 2754TIP3   OH229676   5.724   2.828   3.231  0.0872  0.4437 -0.1950
 2754TIP3    H129677   5.731   2.871   3.317  0.5988 -1.4174  0.7569
 2754TIP3    H229678   5.806   2.848   3.187  1.2954 -1.3000  1.1364
 2755TIP3   OH229679   1.988   2.077  14.917  0.4620 -0.1774 -0.7846
 2755TIP3    H129680   2.047   2.029  14.859  0.5188 -1.8428  0.5866
 2755TIP3    H229681   1.912   2.020  14.928  0.4382  0.0998  0.7341
 2756TIP3   OH229682   5.301   3.982   0.820 -0.1868  0.5663  0.6294
 2756TIP3    H129683   5.338   3.999   0.907  1.4089  0.9119 -0.0784
 2756TIP3    H229684   5.360   4.028   0.760 -1.9145  1.3052 -0.5714
 2757TIP3   OH229685   4.000   5.364   5.401  0.1995  0.4912  0.3564
 2757TIP3    H129686   3.935   5.433   5.412 -0.2223  0.0086  0.9926
 2757TIP3    H229687   4.045   5.361   5.485  0.0481 -0.1662  0.4209
 2758TIP3   OH229688   6.428   4.225  14.446 -0.0141 -0.8960  0.6628
 2758TIP3    H129689   6.402   4.290  14.381  0.0524  0.3659  1.8403
 2758TIP3    H229690   6.381   4.251  14.526  0.0647 -2.2671  1.1789
 2759TIP3   OH229691   6.391   5.417  10.590  0.1674 -0.2976  0.0242
 2759TIP3    H129692   6.456   5.466  10.640  1.3267 -0.9817 -0.7644
 2759TIP3    H229693   6.398   5.327  10.622 -0.2260 -0.4303 -0.2455
 2760TIP3   OH229694   2.434   5.448  12.983 -0.1772 -0.2717 -0.5634
 2760TIP3    H129695   2.527   5.430  12.970  0.3205  1.2050  0.5847
 2760TIP3    H229696   2.418   5.426  13.075 -1.3967 -2.0692 -1.1579
 2761TIP3   OH229697   1.887   1.932   4.545 -0.1105  0.2040 -0.5223
 2761TIP3    H129698   1.854   1.972   4.625  1.0534 -2.6556  1.5711
 2761TIP3    H229699   1.808   1.902   4.499 -0.7494 -0.2406  0.8078
 2762TIP3   OH229700   5.509   2.551  13.884  0.2782  0.0648 -0.4062
 2762TIP3    H129701   5.455   2.545  13.805  0.3604  0.6247 -0.5094
 2762TIP3    H229702   5.563   2.472  13.882 -2.3522 -1.9459  1.0851
 2763TIP3   OH229703   4.561   5.264  16.277 -0.5322 -0.2351 -0.5228
 2763TIP3    H129704   4.649   5.299  16.288 -0.1613 -1.7018  1.9070
 2763TIP3    H229705   4.570   5.193  16.214 -0.2950  0.6127 -1.4619
 2764TIP3   OH229706   6.049   5.755  13.894  0.3350 -0.2041  0.5380
 2764TIP3    H129707   6.012   5.828  13.844 -1.6716 -1.5674 -0.0960
 2764TIP3    H229708   6.125   5.727  13.843 -0.8574 -0.6770 -1.0698
 2765TIP3   OH229709   6.675   4.987  14.388  0.0384 -0.6036  0.0831
 2765TIP3    H129710   6.601   4.957  14.441 -0.2642 -0.2954 -0.1638
 2765TIP3    H229711   6.751   4.941  14.425  0.1403  0.9895  2.0224
 2766TIP3   OH229712   3.054   4.219   2.025  0.5754  0.0979  0.2909
 2766TIP3    H129713   3.040   4.126   2.040  2.4785 -0.3597 -0.4983
 2766TIP3    H229714   3.132   4.223   1.970 -0.9069  2.0363 -1.8669
 2767TIP3   OH229715   3.495   3.240  16.890 -0.0677  0.2604 -0.0796
 2767TIP3    H129716   3.433   3.212  16.823 -1.4081  0.8727  0.8650
 2767TIP3    H229717   3.479   3.334  16.899  0.7246  0.3519  0.4823
 2768TIP3   OH229718   1.776   5.943   2.793 -0.5118 -0.2124  0.1968
 2768TIP3    H129719   1.723   5.864   2.787 -0.4981 -0.1976 -0.1390
 2768TIP3    H229720   1.715   6.011   2.823 -0.7483 -0.1369 -0.4346
 2769TIP3   OH229721   0.104   4.085  16.376  0.5667  0.8130 -0.6187
 2769TIP3    H129722   0.187   4.127  16.356  1.0676  0.7976  1.2474
 2769TIP3    H229723   0.089   4.104  16.468 -1.1659  0.2248 -0.7323
 2770TIP3   OH229724   3.037   1.951   5.818 -0.4123 -0.2627 -0.0743
 2770TIP3    H129725   3.099   1.879   5.818 -0.7729 -0.6513 -2.0808
 2770TIP3    H229726   3.006   1.958   5.908  0.4573 -1.8720  0.3734
 2771TIP3   OH229727   5.272   5.736  14.246 -0.2294  0.2362  0.0797
 2771TIP3    H129728   5.317   5.693  14.174  1.0398  0.2381  0.8418
 2771TIP3    H229729   5.318   5.706  14.324 -0.5610  1.4644  0.7731
 2772TIP3   OH229730   5.614   1.381   2.932 -0.4063  0.2974  0.6089
 2772TIP3    H129731   5.631   1.429   3.013  1.8156 -0.1848  0.4873
 2772TIP3    H229732   5.694   1.392   2.880 -1.8162  0.6768 -1.5893
 2773TIP3   OH229733   4.804   5.357  17.021  0.4104 -0.4405 -0.5837
 2773TIP3    H129734   4.733   5.385  17.079  0.8717 -0.9773  0.2601
 2773TIP3    H229735   4.848   5.438  16.997  1.7558 -0.3570  1.8671
 2774TIP3   OH229736   1.361   4.151  13.019 -0.0680  0.4840  0.0074
 2774TIP3    H129737   1.429   4.218  13.024  0.4607 -0.0434  0.1084
 2774TIP3    H229738   1.334   4.138  13.110  2.1422 -1.7108  0.4695
 2775TIP3   OH229739   4.509   6.527  11.437  0.6187 -0.2193 -0.0275
 2775TIP3    H129740   4.495   6.432  11.448 -1.9370 -0.1086 -1.5710
 2775TIP3    H229741   4.426   6.559  11.403  1.0171  2.8239  1.5834
 2776TIP3   OH229742   5.484   1.043   3.658  0.4890 -0.1943  0.3225
 2776TIP3    H129743   5.571   1.019   3.627  0.9189  0.7037  0.7850
 2776TIP3    H229744   5.424   0.999   3.598  1.2574 -0.8028 -0.0218
 2777TIP3   OH229745   3.327   5.027  10.415 -0.2649 -0.1605  0.2228
 2777TIP3    H129746   3.295   4.988  10.334  0.5368 -1.6717  0.5990
 2777TIP3    H229747   3.367   4.954  10.463 -1.1872  0.5667  2.2233
 2778TIP3   OH229748   4.657   5.308   6.150  0.4567  0.2685  0.4752
 2778TIP3    H129749   4.626   5.301   6.060 -0.3074  0.7918  0.6823
 2778TIP3    H229750   4.699   5.224   6.167  2.9401  1.0661 -1.1808
 2779TIP3   OH229751   5.727   3.945  17.374  0.2743 -0.5748  0.4651
 2779TIP3    H129752   5.812   3.977  17.347  0.1340 -0.9163 -0.4083
 2779TIP3    H229753   5.746   3.866  17.426  0.4956 -0.5186  0.4690
 2780TIP3   OH229754   3.860   3.080  12.118  0.4096 -0.5543  0.7522
 2780TIP3    H129755   3.799   3.006  12.118  0.8146 -0.8981  0.6969
 2780TIP3    H229756   3.946   3.039  12.121  0.8640 -0.2855 -3.2281
 2781TIP3   OH229757   6.648   1.164  16.936  0.0766  0.1221  0.1873
 2781TIP3    H129758   6.731   1.204  16.909  0.6403 -0.9177  0.3239
 2781TIP3    H229759   6.656   1.154  17.031 -0.6681  1.0269  0.3502
 2782TIP3   OH229760   4.056   1.515  10.981 -0.1314 -0.3489 -0.3020
 2782TIP3    H129761   4.102   1.434  11.003 -1.0850 -1.5275 -2.3184
 2782TIP3    H229762   4.105   1.552  10.908  1.3901  2.0011  1.7549
 2783TIP3   OH229763   6.597   5.796  13.985  0.1565  0.5152  0.3699
 2783TIP3    H129764   6.581   5.807  13.891 -1.8831 -0.5849  0.5404
 2783TIP3    H229765   6.558   5.711  14.006 -0.2422  1.1638  2.3899
 2784TIP3   OH229766   0.488   3.758   6.689 -0.0003 -0.1888  0.4052
 2784TIP3    H129767   0.567   3.806   6.665  0.5031 -0.4416  1.5275
 2784TIP3    H229768   0.424   3.784   6.623  0.6074  1.1115  0.3004
 2785TIP3   OH229769   1.217   6.383  13.413  0.0107  0.6746 -0.1098
 2785TIP3    H129770   1.207   6.451  13.479  1.2588 -0.1238  0.9522
 2785TIP3    H229771   1.310   6.383  13.392 -0.3433  0.7859 -1.7516
 2786TIP3   OH229772   3.855   1.505   4.851  0.3623 -0.5340  0.2184
 2786TIP3    H129773   3.911   1.532   4.923  1.0232 -1.3464  0.0322
 2786TIP3    H229774   3.798   1.438   4.889  1.0142 -1.2862 -0.1044
 2787TIP3   OH229775   2.120   0.494   4.774  0.2623 -0.1477  0.4924
 2787TIP3    H129776   2.078   0.576   4.802 -2.5218 -0.9677 -0.9549
 2787TIP3    H229777   2.177   0.521   4.702 -2.1159  0.3712 -1.3097
 2788TIP3   OH229778   4.285   0.258   4.787  0.4021  0.3971  0.3016
 2788TIP3    H129779   4.346   0.222   4.852 -0.5727  0.2050  1.1286
 2788TIP3    H229780   4.286   0.194   4.716 -0.3843 -0.6757  1.2224
 2789TIP3   OH229781   4.422   4.621   1.650  0.5079 -0.0166  0.3703
 2789TIP3    H129782   4.509   4.626   1.688  0.6346  0.5923  0.0193
 2789TIP3    H229783   4.416   4.698   1.593  0.9558 -1.7132 -2.1378
 2790TIP3   OH229784   4.913   3.015   0.447  0.4447 -0.0856  0.4491
 2790TIP3    H129785   4.827   2.996   0.408 -0.1029  0.8505  1.1369
 2790TIP3    H229786   4.951   3.082   0.390  1.0415 -0.9985 -0.2516
 2791TIP3   OH229787   0.114   0.498  15.999 -0.2388 -0.1960 -0.2848
 2791TIP3    H129788   0.162   0.425  16.038  1.5131  1.1288  0.1671
 2791TIP3    H229789   0.036   0.507  16.054  0.7677 -0.1908  1.2182
 2792TIP3   OH229790   1.939   2.544  11.485  0.3203 -0.3457 -0.4239
 2792TIP3    H129791   1.950   2.590  11.402  0.1836 -0.4314 -0.4900
 2792TIP3    H229792   1.847   2.557  11.508  0.7623  1.2010  0.6266
 2793TIP3   OH229793   3.119   3.097  14.177 -0.5137 -0.1102  0.3765
 2793TIP3    H129794   3.120   3.148  14.258  0.2131 -0.3579  0.5326
 2793TIP3    H229795   3.145   3.009  14.204 -1.1632 -0.4210  0.0133
 2794TIP3   OH229796   3.887   4.765   1.537  0.0827  0.3273 -0.4762
 2794TIP3    H129797   3.884   4.861   1.531  1.3962  0.5226  1.1956
 2794TIP3    H229798   3.979   4.744   1.520  0.0831 -0.5065  0.4683
 2795TIP3   OH229799   1.091   3.896   3.324  0.2290 -0.7758  0.2034
 2795TIP3    H129800   1.090   3.973   3.267 -0.5428 -0.5729  0.4812
 2795TIP3    H229801   1.099   3.933   3.412  2.1277 -1.1042  0.2232
 2796TIP3   OH229802   1.671   5.663  17.329  0.1636 -0.0633 -0.2252
 2796TIP3    H129803   1.637   5.687  17.415  0.2739  1.7568 -0.6427
 2796TIP3    H229804   1.639   5.574  17.315 -2.4495  0.6742  0.3968
 2797TIP3   OH229805   1.330   2.052   4.227 -0.0936 -0.4288 -0.3931
 2797TIP3    H129806   1.317   1.971   4.178 -3.7424  0.5619 -1.4131
 2797TIP3    H229807   1.261   2.050   4.294  0.0438  1.5633 -0.1248
 2798TIP3   OH229808   2.263   5.312  15.165 -0.4231 -0.0768 -0.3513
 2798TIP3    H129809   2.284   5.220  15.149  3.0654  0.8130 -1.8903
 2798TIP3    H229810   2.320   5.338  15.237 -0.0992  1.2614 -1.0554
 2799TIP3   OH229811   6.483   4.365  12.717  0.2729  0.0453  0.2187
 2799TIP3    H129812   6.419   4.420  12.672  0.3057  0.4960  0.7186
 2799TIP3    H229813   6.474   4.279  12.676 -0.4214  0.1878  0.0655
 2800TIP3   OH229814   2.973   3.602   4.813  0.2751  0.3801 -0.5066
 2800TIP3    H129815   2.944   3.560   4.733  0.0875  0.2722 -0.3826
 2800TIP3    H229816   2.909   3.575   4.879  1.6613 -1.3964  0.2013
 2801TIP3   OH229817   0.914   1.773  13.817 -1.0394  0.0865  0.3618
 2801TIP3    H129818   0.837   1.729  13.853 -1.3098 -0.1530 -0.4772
 2801TIP3    H229819   0.948   1.826  13.889  0.1308 -2.5211  1.9161
 2802TIP3   OH229820   5.686   4.931   3.415 -0.4046  0.4698 -0.2449
 2802TIP3    H129821   5.771   4.941   3.371  0.3596 -1.1551  0.7674
 2802TIP3    H229822   5.669   4.837   3.412 -1.3275  0.5744  1.1039
 2803TIP3   OH229823   3.699   2.790  11.538  0.2219 -0.0682 -0.1642
 2803TIP3    H129824   3.705   2.717  11.475  1.7469  1.5147 -1.9708
 2803TIP3    H229825   3.701   2.869  11.484  0.1858  1.3742  1.8271
 2804TIP3   OH229826   6.192   5.095  16.548 -0.2891  0.4836  0.0469
 2804TIP3    H129827   6.217   5.010  16.512 -0.6941  1.0385 -1.6249
 2804TIP3    H229828   6.164   5.075  16.638  0.5587 -0.9846  0.0271
 2805TIP3   OH229829   1.348   4.724  11.812 -0.5195 -0.0848  0.0688
 2805TIP3    H129830   1.340   4.649  11.754 -1.3702  0.4216 -0.4781
 2805TIP3    H229831   1.431   4.709  11.858 -0.1006 -0.7580 -0.8753
 2806TIP3   OH229832   6.159   1.434  15.567  0.6904 -0.6230 -0.0145
 2806TIP3    H129833   6.079   1.431  15.516  0.8633  1.1804 -0.4682
 2806TIP3    H229834   6.138   1.388  15.648 -0.6462 -0.5756 -0.3113
 2807TIP3   OH229835   1.993   5.227  15.193 -0.5319 -0.5968 -0.2991
 2807TIP3    H129836   2.079   5.189  15.172 -0.4411 -1.0316  0.7615
 2807TIP3    H229837   2.012   5.315  15.223 -0.5311 -0.4444 -0.7416
 2808TIP3   OH229838   5.043   0.570  11.087  0.2921  0.2776 -0.1983
 2808TIP3    H129839   5.120   0.617  11.054  1.6794 -1.7200  0.0344
 2808TIP3    H229840   5.073   0.529  11.168 -1.7129  1.2436  1.1069
 2809TIP3   OH229841   3.286   1.337  15.868  0.0736  0.5066 -0.5413
 2809TIP3    H129842   3.266   1.361  15.778 -0.3291  1.1142 -0.2935
 2809TIP3    H229843   3.272   1.417  15.918 -1.5543 -0.2709  0.3379
 2810TIP3   OH229844   1.350   4.061   4.964 -0.1086  0.3719  0.2921
 2810TIP3    H129845   1.354   4.136   4.905 -2.4204  0.5317  0.2453
 2810TIP3    H229846   1.440   4.029   4.967  0.8938  2.8784  0.0107
 2811TIP3   OH229847   6.432   2.917  15.176  0.1625 -0.5618  0.3300
 2811TIP3    H129848   6.379   2.997  15.184 -0.2545 -0.3069 -3.4471
 2811TIP3    H229849   6.521   2.947  15.193 -0.2520  0.0787  1.5937
 2812TIP3   OH229850   6.618   2.378  17.106  0.4510  0.2129 -0.0897
 2812TIP3    H129851   6.567   2.396  17.028  1.0357  0.0123 -0.5270
 2812TIP3    H229852   6.707   2.404  17.084  0.9876 -1.4903 -0.1401
 2813TIP3   OH229853   1.073   0.072  16.215  0.1943 -0.4373  0.1359
 2813TIP3    H129854   1.032   0.082  16.129 -1.0714  0.7950  0.8444
 2813TIP3    H229855   1.138   0.003  16.202 -0.3816 -0.7067 -1.6533
 2814TIP3   OH229856   2.018   1.015   6.357  0.0631 -0.1472 -0.0168
 2814TIP3    H129857   1.953   0.987   6.422 -0.2836  0.3508 -0.1434
 2814TIP3    H229858   1.987   0.977   6.275  0.2704 -0.4182  0.0261
 2815TIP3   OH229859   1.292   5.932   2.009  0.0496  0.1807  0.0889
 2815TIP3    H129860   1.300   5.849   2.056  2.4332 -0.5283 -1.4425
 2815TIP3    H229861   1.325   5.914   1.921  0.2088  2.6512 -0.4329
 2816TIP3   OH229862   2.888   0.233  14.716  0.1368 -0.1537  0.1325
 2816TIP3    H129863   2.976   0.195  14.707  0.0430 -1.0299  2.3235
 2816TIP3    H229864   2.904   0.326  14.730  0.5005  0.2675 -2.4809
 2817TIP3   OH229865   0.489   1.765   6.464  0.4291  0.4260  0.5282
 2817TIP3    H129866   0.525   1.825   6.530 -2.4797  0.8462  1.8530
 2817TIP3    H229867   0.524   1.679   6.489  1.3249  0.9476  1.1217
 2818TIP3   OH229868   0.202   0.305   2.020 -0.1685 -0.3740 -0.1743
 2818TIP3    H129869   0.226   0.318   1.929 -0.3496  1.6479  0.0332
 2818TIP3    H229870   0.107   0.296   2.019 -0.1775 -0.2800 -0.1825
 2819TIP3   OH229871   2.119   1.604  14.040 -0.1948 -0.0860 -0.1944
 2819TIP3    H129872   2.070   1.686  14.029  1.0223  0.8194  0.9014
 2819TIP3    H229873   2.175   1.599  13.962 -0.5524 -0.0978 -0.4569
 2820TIP3   OH229874   3.752   2.545   3.105  0.5284 -1.2369 -0.0227
 2820TIP3    H129875   3.783   2.567   3.193 -1.6099 -0.0605  0.5178
 2820TIP3    H229876   3.821   2.576   3.047  0.6205  0.9091  1.1192
 2821TIP3   OH229877   2.879   2.020  11.496 -0.1728 -0.2003 -0.2730
 2821TIP3    H129878   2.847   1.965  11.424  0.9486 -3.1334  1.3054
 2821TIP3    H229879   2.973   2.002  11.500  0.3369  2.1852  0.1362
 2822TIP3   OH229880   1.196   6.365  13.814  0.4625  0.1753 -0.3273
 2822TIP3    H129881   1.153   6.400  13.736  1.5662 -0.1028 -1.0846
 2822TIP3    H229882   1.260   6.432  13.838  0.6553 -0.0808 -0.1162
 2823TIP3   OH229883   3.756   2.288   3.081  0.1389  0.2033 -0.7488
 2823TIP3    H129884   3.763   2.232   3.158  0.5086  1.1285 -0.0950
 2823TIP3    H229885   3.742   2.376   3.116  0.9537  0.7445 -1.7034
 2824TIP3   OH229886   6.463   5.697  16.317 -0.0728 -0.5161 -0.1891
 2824TIP3    H129887   6.523   5.727  16.384 -0.1912 -0.6973 -0.0016
 2824TIP3    H229888   6.513   5.633  16.267 -0.4406 -1.4751  0.6352
 2825TIP3   OH229889   2.665   5.462  15.365  0.1216 -0.4049  0.4874
 2825TIP3    H129890   2.749   5.506  15.354  0.7282 -1.5930  0.2222
 2825TIP3    H229891   2.608   5.528  15.404  0.0952  1.5858 -2.5954
 2826TIP3   OH229892   1.484   6.421  13.352  0.2314 -0.3478  0.2138
 2826TIP3    H129893   1.537   6.375  13.287  1.0792  0.6348  0.1773
 2826TIP3    H229894   1.526   6.399  13.436  0.5586  0.2147  0.2076
 2827TIP3   OH229895   5.923   2.494  13.370 -0.0132  0.0667  0.4372
 2827TIP3    H129896   5.890   2.552  13.438  0.6778 -1.2757  1.9694
 2827TIP3    H229897   5.846   2.473  13.317 -0.5219  1.2559  0.6693
 2828TIP3   OH229898   2.804   3.243  17.121 -0.7517  0.0617 -0.6274
 2828TIP3    H129899   2.716   3.265  17.090 -1.2082  0.6859  1.0250
 2828TIP3    H229900   2.853   3.325  17.114 -0.8357  0.1868  0.1885
 2829TIP3   OH229901   0.241   1.239  14.084 -0.1847  0.0869 -0.1414
 2829TIP3    H129902   0.273   1.168  14.029  0.8997  0.3803  0.0885
 2829TIP3    H229903   0.288   1.316  14.053  2.0649 -0.0819  2.4878
 2830TIP3   OH229904   4.610   3.508  11.816  0.0002  0.6739 -0.2002
 2830TIP3    H129905   4.634   3.532  11.906  0.7199  1.0310 -0.4747
 2830TIP3    H229906   4.531   3.456  11.825  1.0046 -0.7532  0.7871
 2831TIP3   OH229907   6.517   0.885  13.242 -0.0799  0.0084  0.4114
 2831TIP3    H129908   6.541   0.977  13.255 -1.0007  0.1649  1.1023
 2831TIP3    H229909   6.586   0.836  13.286 -0.8205  0.4379  2.1398
 2832TIP3   OH229910   1.290   6.743  17.217  0.0425  0.0889  0.3851
 2832TIP3    H129911   1.311   6.836  17.205 -0.3404  0.0627 -0.5073
 2832TIP3    H229912   1.371   6.705  17.251  0.4667  0.5847 -0.0568
 2833TIP3   OH229913   4.716   6.318  11.717 -0.1207  0.1433 -0.4382
 2833TIP3    H129914   4.640   6.262  11.706  0.2897 -0.9823  1.9237
 2833TIP3    H229915   4.789   6.258  11.729  1.9219  1.0408 -5.5546
 2834TIP3   OH229916   6.550   0.010   6.464  0.0914  0.1625 -0.2298
 2834TIP3    H129917   6.473   0.056   6.495  1.3050  2.1678 -0.0412
 2834TIP3    H229918   6.598  -0.014   6.543 -0.7619 -2.0296 -0.2826
 2835TIP3   OH229919   3.184   5.518  15.217  0.3212 -0.9386 -0.2342
 2835TIP3    H129920   3.188   5.602  15.170 -0.5653 -0.6047  0.2642
 2835TIP3    H229921   3.240   5.531  15.293  0.2775 -0.8328 -0.2196
 2836TIP3   OH229922   3.868   5.820   4.309  0.5617  0.4800 -0.6027
 2836TIP3    H129923   3.962   5.807   4.299  1.0839  2.4168  1.0137
 2836TIP3    H229924   3.833   5.808   4.221  1.9096 -2.6620 -0.8532
 2837TIP3   OH229925   5.214   5.100   2.016  0.0272 -0.6488  0.8074
 2837TIP3    H129926   5.264   5.131   1.941  1.5360  0.1439  2.0857
 2837TIP3    H229927   5.125   5.133   2.002  0.4173 -0.0699 -0.3488
 2838TIP3   OH229928   1.134   5.971   0.565  0.3522  0.6522 -0.3641
 2838TIP3    H129929   1.086   6.036   0.514 -0.0247  0.4010 -0.3319
 2838TIP3    H229930   1.108   5.887   0.527 -0.8057  0.3766  0.9625
 2839TIP3   OH229931   3.557   6.598  15.209 -0.1192 -0.0407 -0.0173
 2839TIP3    H129932   3.612   6.654  15.262  1.2349  0.1466 -1.5418
 2839TIP3    H229933   3.518   6.656  15.144  0.8018 -0.7151 -1.2206
 2840TIP3   OH229934   0.298   4.417  11.282  0.0976  0.6662 -0.3133
 2840TIP3    H129935   0.252   4.384  11.359  1.1825  3.7643  1.8833
 2840TIP3    H229936   0.390   4.396  11.297  0.0283 -1.9230 -2.7019
 2841TIP3   OH229937   5.449   6.359  16.882  0.3384  0.1845  0.8367
 2841TIP3    H129938   5.471   6.268  16.862  1.2935  0.7819 -1.0990
 2841TIP3    H229939   5.534   6.403  16.890 -0.0762  0.6881  3.1255
 2842TIP3   OH229940   5.166   5.797   3.107  0.0555  0.0285 -0.4961
 2842TIP3    H129941   5.140   5.863   3.171  1.3161 -0.0367  0.1269
 2842TIP3    H229942   5.138   5.832   3.023 -1.2598  0.3166  0.0370
 2843TIP3   OH229943   2.403   3.824  11.734 -0.2555  0.0992 -0.1481
 2843TIP3    H129944   2.405   3.907  11.782  0.0439  1.3366 -2.1805
 2843TIP3    H229945   2.313   3.792  11.746 -0.3648  0.6976  0.7030
 2844TIP3   OH229946   4.765   6.375  12.294 -0.0685 -0.0169 -0.4963
 2844TIP3    H129947   4.705   6.315  12.249  0.1604 -0.7906  0.2091
 2844TIP3    H229948   4.709   6.435  12.342 -0.2812 -0.3629 -0.3153
 2845TIP3   OH229949   0.179   5.992  14.901 -0.2950 -0.3157 -0.0363
 2845TIP3    H129950   0.143   5.991  14.812 -0.7361  0.7026  0.1085
 2845TIP3    H229951   0.137   6.068  14.942  0.9835  0.0682  0.5939
 2846TIP3   OH229952   0.732   5.890   5.472  0.7022 -0.0783 -0.0577
 2846TIP3    H129953   0.683   5.950   5.416 -0.7629 -1.3720 -0.2099
 2846TIP3    H229954   0.817   5.934   5.485 -0.2111  1.8790 -0.3549
 2847TIP3   OH229955   1.977   3.676   2.984  0.3251 -0.1662 -0.3882
 2847TIP3    H129956   1.922   3.745   2.946  0.7030  0.4788  0.2022
 2847TIP3    H229957   2.058   3.679   2.933 -0.2324 -1.2501 -1.3875
 2848TIP3   OH229958   0.923   5.022   1.398 -0.5206  0.7768  0.0079
 2848TIP3    H129959   0.968   4.948   1.439  1.2916  1.6801 -0.2201
 2848TIP3    H229960   0.830   5.005   1.411 -0.1464 -1.4288  0.1199
 2849TIP3   OH229961   4.381   5.779  16.118  0.1032 -0.0700  0.0433
 2849TIP3    H129962   4.335   5.698  16.094  1.3320 -0.7385 -0.1315
 2849TIP3    H229963   4.467   5.750  16.147  0.7628  1.2262 -0.5375
 2850TIP3   OH229964   1.331   4.247   4.756 -0.2484 -0.6912 -0.0401
 2850TIP3    H129965   1.352   4.203   4.674  1.8173 -0.7901  0.4712
 2850TIP3    H229966   1.400   4.313   4.766 -0.1263 -1.0392  1.8507
 2851TIP3   OH229967   3.348   1.081   1.484  0.2631  0.0363  0.1759
 2851TIP3    H129968   3.306   1.104   1.401 -0.6955  1.5489  1.0276
 2851TIP3    H229969   3.419   1.146   1.493  1.5567 -1.2479 -0.2832
 2852TIP3   OH229970   2.369   0.531  15.615  0.6617  0.2240  0.2104
 2852TIP3    H129971   2.397   0.557  15.528  2.1337  0.6926  0.7923
 2852TIP3    H229972   2.391   0.606  15.671 -0.8081  0.1789  0.8977
 2853TIP3   OH229973   1.559   2.170   0.664 -0.1106 -0.5257  0.4770
 2853TIP3    H129974   1.624   2.240   0.653  0.1551 -0.8521 -0.0715
 2853TIP3    H229975   1.607   2.089   0.645 -0.0907 -0.9957  2.2731
 2854TIP3   OH229976   0.994   6.683  10.441  0.5175  0.2850 -0.5260
 2854TIP3    H129977   1.055   6.756  10.434  1.6482 -0.7854 -3.4371
 2854TIP3    H229978   1.038   6.611  10.396 -1.3772 -1.6431  0.5210
 2855TIP3   OH229979   1.684   2.337  16.696 -0.0225  0.8012  0.4654
 2855TIP3    H129980   1.706   2.396  16.624 -2.0255  0.9760 -0.0597
 2855TIP3    H229981   1.740   2.260  16.682  0.5625  1.3886 -0.5112
 2856TIP3   OH229982   0.841   3.926   1.368  0.2476 -0.4384 -0.4720
 2856TIP3    H129983   0.897   3.995   1.405  0.0756  0.2222 -1.3942
 2856TIP3    H229984   0.884   3.845   1.393  0.6751  0.0119  0.3033
 2857TIP3   OH229985   2.017   0.202  16.601  0.1615  0.2245  0.3717
 2857TIP3    H129986   2.016   0.127  16.541 -2.5543  0.9836 -0.6812
 2857TIP3    H229987   1.967   0.172  16.678  2.8286 -0.4296  1.9826
 2858TIP3   OH229988   0.433   1.100  13.952  0.0898  0.2037  0.4816
 2858TIP3    H129989   0.469   1.188  13.958 -0.7891  0.6096  0.1214
 2858TIP3    H229990   0.506   1.044  13.927  0.3875  1.0546 -0.5966
 2859TIP3   OH229991   5.082   1.137  16.693 -0.2573 -0.3880  0.3453
 2859TIP3    H129992   4.994   1.113  16.664 -0.2427 -1.0067  0.7780
 2859TIP3    H229993   5.136   1.128  16.614 -0.6517  0.4509 -0.0343
 2860TIP3   OH229994   5.813   1.968  13.621  0.5232  0.4168  0.0817
 2860TIP3    H129995   5.776   2.026  13.687 -0.2946  0.9362 -0.8054
 2860TIP3    H229996   5.885   2.018  13.583  1.0271  0.0978  0.6018
 2861TIP3   OH229997   0.529   5.595  11.716  0.3984 -0.1376 -0.2449
 2861TIP3    H129998   0.497   5.508  11.739 -0.5105  0.2052 -0.1758
 2861TIP3    H229999   0.486   5.653  11.778  1.0102  0.3640 -0.2839
 2862TIP3   OH230000   4.512   5.601   4.179  0.3714  0.2542  0.4414
 2862TIP3    H130001   4.587   5.658   4.159  0.0433  0.9578  1.1521
 2862TIP3    H230002   4.453   5.612   4.105  1.0477 -0.4665 -0.2291
 2863TIP3   OH230003   1.954   6.638   5.822 -0.3010 -0.1578 -0.1830
 2863TIP3    H130004   1.903   6.628   5.903 -2.9726  2.4359 -1.3792
 2863TIP3    H230005   2.010   6.713   5.838  0.5093 -0.7663 -0.1351
 2864TIP3   OH230006   6.198   3.439  11.300 -0.4198 -0.2094 -0.0690
 2864TIP3    H130007   6.246   3.522  11.301  0.2545 -0.5983  0.1750
 2864TIP3    H230008   6.200   3.411  11.208 -0.9467  0.1993 -0.2185
 2865TIP3   OH230009   6.663   3.525  15.633  0.3446  0.3595  0.0039
 2865TIP3    H130010   6.611   3.600  15.606 -0.3341 -0.7526 -1.9676
 2865TIP3    H230011   6.617   3.490  15.710 -0.8345  0.4217 -0.6586
 2866TIP3   OH230012   0.401   0.577   5.918  0.1254 -0.2571  0.1638
 2866TIP3    H130013   0.313   0.615   5.921  0.4623  0.4929  0.6266
 2866TIP3    H230014   0.435   0.586   6.007  0.9411  0.1021 -0.1726
 2867TIP3   OH230015   5.236   3.291   3.379  0.5673  0.5203 -0.2244
 2867TIP3    H130016   5.331   3.280   3.374  0.6956 -1.6285  3.4406
 2867TIP3    H230017   5.224   3.381   3.409  1.4802  0.6258 -0.1342
 2868TIP3   OH230018   1.497   5.872  12.821  0.0612 -0.1568 -0.2720
 2868TIP3    H130019   1.502   5.956  12.774  1.3155  0.0941  0.2686
 2868TIP3    H230020   1.471   5.809  12.754 -4.3529  1.1351 -0.0527
 2869TIP3   OH230021   1.372   0.214  13.771 -0.1353 -0.2301  0.0043
 2869TIP3    H130022   1.465   0.207  13.752  0.3085 -0.8197  2.0634
 2869TIP3    H230023   1.352   0.307  13.761  0.5995 -0.1438 -0.7284
 2870TIP3   OH230024   4.027   6.692   4.903  0.6111  0.0285 -1.3283
 2870TIP3    H130025   4.046   6.713   4.811  0.4077 -0.8650 -1.5835
 2870TIP3    H230026   4.016   6.777   4.945 -2.4258  0.4975 -2.7794
 2871TIP3   OH230027   4.747   0.999  11.803  0.3652  0.7589  0.4678
 2871TIP3    H130028   4.743   0.942  11.726  0.4565 -0.5997  1.4218
 2871TIP3    H230029   4.669   1.053  11.798  0.3713  0.6804 -0.5693
 2872TIP3   OH230030   5.544   1.020  17.451 -1.2042 -0.0351 -0.2166
 2872TIP3    H130031   5.600   1.036  17.375  0.7944 -0.0911  1.1595
 2872TIP3    H230032   5.505   1.105  17.470 -0.2179  0.4311 -0.2031
 2873TIP3   OH230033   4.368   3.749  12.678 -0.1567 -0.2892 -0.4333
 2873TIP3    H130034   4.302   3.807  12.640  0.9202  0.7012 -0.8542
 2873TIP3    H230035   4.445   3.805  12.689  0.5414 -1.3610  0.2532
 2874TIP3   OH230036   5.196   0.709   0.147  0.0434 -0.1318  0.8007
 2874TIP3    H130037   5.151   0.747   0.072 -1.6640 -0.8223  1.4298
 2874TIP3    H230038   5.275   0.762   0.156 -1.4307  2.2634  0.6515
 2875TIP3   OH230039   5.779   4.597  15.263 -0.3534  0.0551 -0.2246
 2875TIP3    H130040   5.855   4.588  15.206  0.1394 -1.2550  0.5985
 2875TIP3    H230041   5.743   4.683  15.242  1.4786  0.8045 -0.4797
 2876TIP3   OH230042   0.862   4.783  11.230  0.2115 -0.4263  0.1504
 2876TIP3    H130043   0.784   4.737  11.201 -0.6830  1.4587 -0.5523
 2876TIP3    H230044   0.830   4.851  11.289  1.5613 -1.0639  1.7024
 2877TIP3   OH230045   0.834   3.341  13.078 -0.0286 -0.3206 -0.1996
 2877TIP3    H130046   0.882   3.293  13.011 -1.7193 -1.6240 -0.5375
 2877TIP3    H230047   0.853   3.433  13.060  0.6746 -0.7131 -1.5790
 2878TIP3   OH230048   2.141   5.287   4.604 -0.0270 -0.0309 -0.4369
 2878TIP3    H130049   2.101   5.229   4.670  0.6040 -2.3823 -1.9912
 2878TIP3    H230050   2.067   5.324   4.557 -0.4556  0.8278  0.8515
 2879TIP3   OH230051   2.087   2.892  13.340  0.2035  0.0283 -0.2430
 2879TIP3    H130052   2.113   2.812  13.385  2.6491  1.4251  1.0221
 2879TIP3    H230053   2.151   2.903  13.270 -0.4777  0.5591 -0.8000
 2880TIP3   OH230054   4.944   2.464  11.921 -0.1227  0.5989 -0.4094
 2880TIP3    H130055   4.873   2.528  11.925  0.7346  1.6004 -0.7200
 2880TIP3    H230056   5.021   2.513  11.951  0.6426 -0.1442 -1.1300
 2881TIP3   OH230057   5.491   3.101   3.871  0.1243  0.4643 -0.0679
 2881TIP3    H130058   5.524   3.187   3.847 -0.8698  1.0301  0.5148
 2881TIP3    H230059   5.400   3.116   3.896 -0.4758 -0.9594 -1.2087
 2882TIP3   OH230060   6.159   5.564  13.056  0.2335  0.1586  0.1505
 2882TIP3    H130061   6.204   5.490  13.016 -1.0240 -0.1851 -0.6821
 2882TIP3    H230062   6.067   5.540  13.053 -0.1719  1.6371  0.1420
 2883TIP3   OH230063   1.328   5.055   2.585 -0.2228 -0.4061  0.5395
 2883TIP3    H130064   1.289   4.968   2.590  0.4465 -0.6819  1.0776
 2883TIP3    H230065   1.271   5.110   2.638  1.6466 -1.3993  3.8468
 2884TIP3   OH230066   5.787   0.181   3.588  0.0794  0.4868 -0.2533
 2884TIP3    H130067   5.696   0.166   3.562  0.2163 -0.0399 -0.4489
 2884TIP3    H230068   5.787   0.269   3.625 -0.9156 -0.2382  1.6106
 2885TIP3   OH230069   1.380   0.204  11.976 -0.1830  0.1952  0.2612
 2885TIP3    H130070   1.400   0.214  11.883 -1.4877  0.1957 -0.0294
 2885TIP3    H230071   1.285   0.206  11.981 -0.2047 -1.6174  1.3876
 2886TIP3   OH230072   6.082   6.137  16.772 -0.4352 -0.3871  0.1420
 2886TIP3    H130073   6.102   6.070  16.837 -1.1258  1.2259  2.1416
 2886TIP3    H230074   6.165   6.184  16.759 -0.5955  0.1222  0.9057
 2887TIP3   OH230075   1.218   4.577  16.048  0.1368 -0.0330 -0.0204
 2887TIP3    H130076   1.178   4.503  16.002 -0.9367  0.3636  0.2508
 2887TIP3    H230077   1.145   4.621  16.090  1.0349 -0.1214  1.7216
 2888TIP3   OH230078   1.248   0.636   4.040 -0.8165  0.5924  0.1212
 2888TIP3    H130079   1.187   0.642   4.113 -2.7420 -1.7298 -1.1141
 2888TIP3    H230080   1.333   0.662   4.076 -1.7082 -0.2832  3.1224
 2889TIP3   OH230081   3.368   6.244   0.191 -0.2456 -0.3578 -0.0678
 2889TIP3    H130082   3.375   6.232   0.286  0.1193  0.1455 -0.0256
 2889TIP3    H230083   3.367   6.155   0.155  0.2806 -0.5430  0.3665
 2890TIP3   OH230084   4.677   3.870   6.059  0.0751  0.5956 -0.7593
 2890TIP3    H130085   4.600   3.918   6.029 -0.2736  0.0269 -0.8083
 2890TIP3    H230086   4.662   3.857   6.153 -0.8500 -1.1733 -1.1027
 2891TIP3   OH230087   3.841   2.621  15.362  0.0590 -0.4528 -0.1195
 2891TIP3    H130088   3.886   2.550  15.408 -1.6245 -0.2134  2.0314
 2891TIP3    H230089   3.770   2.578  15.314  0.0941 -0.3924 -0.2279
 2892TIP3   OH230090   1.576   0.549  16.480 -0.2275  0.0450 -0.3426
 2892TIP3    H130091   1.658   0.576  16.440 -1.0256  2.0308 -0.7447
 2892TIP3    H230092   1.602   0.490  16.551  1.4848  0.1643 -0.8329
 2893TIP3   OH230093   2.143   6.020  13.602 -0.1842 -0.3405 -0.2432
 2893TIP3    H130094   2.126   6.077  13.677  1.6345 -0.6574  0.4740
 2893TIP3    H230095   2.075   5.953  13.608  0.9301 -1.3963  2.2594
 2894TIP3   OH230096   0.803   4.775   4.683  0.4108 -0.1583 -0.2656
 2894TIP3    H130097   0.768   4.696   4.641  1.3007 -1.4180  1.2592
 2894TIP3    H230098   0.821   4.748   4.773 -0.1428  2.0692  0.5692
 2895TIP3   OH230099   5.122   3.070  13.008 -0.6711 -0.3142 -0.3573
 2895TIP3    H130100   5.202   3.065  12.956 -0.3114 -0.5659  0.2186
 2895TIP3    H230101   5.052   3.077  12.943 -0.1932 -0.1601 -0.8652
 2896TIP3   OH230102   2.857   5.789   2.378 -1.0625  0.2887  0.0975
 2896TIP3    H130103   2.817   5.846   2.311  0.1981  0.9808 -0.1045
 2896TIP3    H230104   2.949   5.814   2.378 -0.2812 -2.2898 -0.5249
 2897TIP3   OH230105   0.456   5.221   3.817  0.5419  0.7750 -0.6975
 2897TIP3    H130106   0.395   5.204   3.888  1.6104  0.4175  0.1487
 2897TIP3    H230107   0.510   5.142   3.811  0.3266  0.6952 -2.0678
 2898TIP3   OH230108   4.812   1.328  13.755  0.4641 -0.3673 -0.1078
 2898TIP3    H130109   4.779   1.244  13.724 -0.0994  0.1904 -1.0546
 2898TIP3    H230110   4.905   1.313  13.770  0.0618 -1.6374  1.4565
 2899TIP3   OH230111   6.244   4.669  12.880 -0.2526 -0.0927  0.6679
 2899TIP3    H130112   6.207   4.755  12.899 -0.5564 -0.4086  1.5447
 2899TIP3    H230113   6.276   4.677  12.790 -0.8763  0.7266  0.4992
 2900TIP3   OH230114   0.823   4.716  15.006 -0.2196  0.4728 -0.2478
 2900TIP3    H130115   0.909   4.727  15.047  0.0809  2.5548 -1.3007
 2900TIP3    H230116   0.764   4.695  15.079  0.5815  2.4750  1.0875
 2901TIP3   OH230117   5.763   4.043  11.177 -0.1484 -0.3139 -0.5020
 2901TIP3    H130118   5.821   4.026  11.251  0.1417  0.3429 -0.5757
 2901TIP3    H230119   5.786   3.977  11.112  0.3707 -0.1793 -0.4527
 2902TIP3   OH230120   6.096   2.281  15.249 -0.6980  0.0082 -0.2725
 2902TIP3    H130121   6.128   2.262  15.337 -2.9007 -0.0270  0.5752
 2902TIP3    H230122   6.165   2.336  15.210  0.1021  0.4317  1.6317
 2903TIP3   OH230123   2.610   1.004  17.241  0.0896  0.6449  0.2708
 2903TIP3    H130124   2.633   0.948  17.166  1.3296  0.1821  0.9531
 2903TIP3    H230125   2.530   1.048  17.215  1.1463  1.4558 -1.8463
 2904TIP3   OH230126   0.597   2.731   2.795 -0.0018  0.9521 -0.4532
 2904TIP3    H130127   0.519   2.700   2.841  0.7321  0.2590  0.3699
 2904TIP3    H230128   0.667   2.727   2.860  0.5418  2.4910 -0.8996
 2905TIP3   OH230129   1.426   6.547   2.396 -0.3871  0.1942 -0.0492
 2905TIP3    H130130   1.388   6.552   2.308 -1.4976  0.1610  0.4146
 2905TIP3    H230131   1.356   6.513   2.451  0.9296 -1.8764  0.4959
 2906TIP3   OH230132   2.383   1.951  11.458  0.1892  0.2836  0.1692
 2906TIP3    H130133   2.382   1.859  11.485 -0.3206  0.6309  1.4170
 2906TIP3    H230134   2.292   1.970  11.435  0.0968  0.7417  0.8956
 2907TIP3   OH230135   6.306   3.483  14.063  0.4059  0.0022  0.1628
 2907TIP3    H130136   6.239   3.524  14.117  2.0703  1.1041  1.5218
 2907TIP3    H230137   6.324   3.547  13.994  1.3559  0.5742  0.9153
 2908TIP3   OH230138   6.604   3.393  15.952  0.5959 -0.5317 -0.1087
 2908TIP3    H130139   6.585   3.302  15.930  1.1442 -1.2530  2.1638
 2908TIP3    H230140   6.699   3.397  15.962  0.7237  0.6380 -1.4858
 2909TIP3   OH230141   2.915   0.200   3.231 -0.2271  0.5126 -0.2112
 2909TIP3    H130142   2.867   0.201   3.148  0.8090 -0.7118 -0.8591
 2909TIP3    H230143   2.998   0.157   3.210  0.6073  1.3651  1.1764
 2910TIP3   OH230144   2.971   3.950  17.332  0.1007 -0.2497  0.0490
 2910TIP3    H130145   2.987   4.043  17.316  1.4347 -0.0038  2.3349
 2910TIP3    H230146   2.912   3.949  17.408 -0.6750 -1.3028 -0.5292
 2911TIP3   OH230147   1.502   5.132   6.733  0.5623  0.5116 -0.3000
 2911TIP3    H130148   1.499   5.094   6.821 -0.0510  0.1324 -0.4828
 2911TIP3    H230149   1.529   5.223   6.748  1.5065  0.1759  0.1859
 2912TIP3   OH230150   6.123   3.315  13.376 -0.2699 -0.4429 -0.2521
 2912TIP3    H130151   6.166   3.345  13.456 -0.5011 -1.6921  0.3702
 2912TIP3    H230152   6.035   3.351  13.382 -1.0600 -2.3914  1.2745
 2913TIP3   OH230153   5.666   0.974  11.945 -0.3101  0.1960  0.0515
 2913TIP3    H130154   5.574   0.997  11.930 -0.0268  0.7408 -1.0070
 2913TIP3    H230155   5.678   0.981  12.039 -1.3610  0.0878  0.2056
 2914TIP3   OH230156   2.638   3.140   3.316 -0.0270  0.5499 -0.2807
 2914TIP3    H130157   2.695   3.075   3.277 -0.2715 -0.3788  0.8516
 2914TIP3    H230158   2.551   3.121   3.279  0.0558  0.7959 -0.6076
 2915TIP3   OH230159   4.556   2.885  15.117  0.5275  1.1153  0.5827
 2915TIP3    H130160   4.588   2.974  15.130  2.2778  0.2076  3.3652
 2915TIP3    H230161   4.609   2.832  15.176 -1.6066 -1.5379  0.2934
 2916TIP3   OH230162   0.341   6.433  14.018 -0.1636 -0.7372  0.7766
 2916TIP3    H130163   0.353   6.340  14.040 -2.4074 -1.3423 -0.2492
 2916TIP3    H230164   0.270   6.461  14.076  0.6278  0.4131  1.2095
 2917TIP3   OH230165   6.610   4.362   5.585 -0.2670  0.1661  0.3051
 2917TIP3    H130166   6.520   4.388   5.569 -1.5154 -3.3335  0.9368
 2917TIP3    H230167   6.620   4.364   5.680  0.8033  1.7089  0.2117
 2918TIP3   OH230168   4.084   2.912   3.474  0.2319  0.1585  0.0509
 2918TIP3    H130169   4.068   2.910   3.568 -0.1314 -0.8751 -0.0267
 2918TIP3    H230170   4.001   2.941   3.436  0.4814  0.9176  0.0556
 2919TIP3   OH230171   3.218   3.106   4.859  0.1166  1.2611 -0.9331
 2919TIP3    H130172   3.306   3.144   4.863 -0.3650  2.5593 -1.8304
 2919TIP3    H230173   3.160   3.182   4.861 -0.9770  0.4331 -0.6355
 2920TIP3   OH230174   6.017   3.741  11.319  0.0627 -0.9925 -0.0424
 2920TIP3    H130175   6.065   3.823  11.306 -0.7456 -0.4392  0.3729
 2920TIP3    H230176   6.053   3.704  11.399  0.3476 -0.9792 -0.1652
 2921TIP3   OH230177   4.618   6.110   1.632  1.1153  0.0432  0.0665
 2921TIP3    H130178   4.535   6.069   1.659  0.0221  0.8533 -1.8468
 2921TIP3    H230179   4.622   6.191   1.684  1.7138 -0.9159  1.5710
 2922TIP3   OH230180   3.152   0.494   4.471  0.7358 -0.2242  0.2830
 2922TIP3    H130181   3.083   0.501   4.538 -2.0155 -2.6844 -1.9843
 2922TIP3    H230182   3.208   0.422   4.501 -0.3039 -1.1093  0.1864
 2923TIP3   OH230183   1.196   0.016   6.552 -0.1241 -0.4722 -0.1383
 2923TIP3    H130184   1.212   0.093   6.606 -2.9617  0.4872 -0.5158
 2923TIP3    H230185   1.241   0.034   6.470  0.7848 -0.1130  0.4142
 2924TIP3   OH230186   6.003   2.762  11.451 -0.3745 -0.1099 -0.5693
 2924TIP3    H130187   5.964   2.775  11.365  1.7442 -1.2155 -1.7984
 2924TIP3    H230188   6.011   2.667  11.459  2.0936  0.0178 -0.5131
 2925TIP3   OH230189   0.005   3.040  10.658  0.3805  0.6973 -0.0062
 2925TIP3    H130190   0.086   3.090  10.646 -0.5238  2.5319  1.0224
 2925TIP3    H230191  -0.029   3.070  10.742 -1.1718 -0.3273 -0.2288
 2926TIP3   OH230192   1.972   2.268  16.892  0.6502 -0.7374 -0.3512
 2926TIP3    H130193   1.948   2.352  16.854 -0.3487 -0.2308  1.2864
 2926TIP3    H230194   1.945   2.203  16.827  0.2188  0.1427 -1.0696
 2927TIP3   OH230195   4.204   1.052   2.380 -0.1262 -0.4285 -0.0074
 2927TIP3    H130196   4.205   1.054   2.284  0.6257  1.4091  0.0017
 2927TIP3    H230197   4.111   1.057   2.403 -0.2442  0.3870 -0.6384
 2928TIP3   OH230198   6.208   1.669   3.866 -0.0178 -0.0935  0.3247
 2928TIP3    H130199   6.292   1.628   3.847  0.6461  1.6467 -0.7749
 2928TIP3    H230200   6.146   1.625   3.809  0.4302 -0.4266  0.0935
 2929TIP3   OH230201   5.602   1.018   0.609  0.3951 -0.9159 -0.4561
 2929TIP3    H130202   5.555   0.945   0.651 -1.6731  1.1825  1.1533
 2929TIP3    H230203   5.674   1.038   0.670 -0.2945 -0.3113  0.1704
 2930TIP3   OH230204   4.667   2.813   1.113 -0.5490  0.0544 -0.2726
 2930TIP3    H130205   4.660   2.723   1.080  0.8960 -0.4704  0.7728
 2930TIP3    H230206   4.647   2.806   1.206 -3.9537  1.4280 -0.7431
 2931TIP3   OH230207   0.325   2.493   4.994 -0.3520 -0.2715  0.2881
 2931TIP3    H130208   0.417   2.504   4.972 -0.1701  0.2034  1.2306
 2931TIP3    H230209   0.278   2.521   4.916  0.2863  0.4309  0.1427
 2932TIP3   OH230210   3.501   6.540  13.615 -0.9154 -0.3308  0.2402
 2932TIP3    H130211   3.480   6.449  13.633 -0.0094 -0.4243  0.8974
 2932TIP3    H230212   3.425   6.573  13.567 -1.7641 -1.1072  1.0167
 2933TIP3   OH230213   3.794   0.613  13.332  0.6086 -0.0613 -0.2552
 2933TIP3    H130214   3.712   0.567  13.350 -0.0104  1.5729  1.5286
 2933TIP3    H230215   3.835   0.563  13.262 -1.6139 -1.2987 -0.7761
 2934TIP3   OH230216   1.793   3.712   4.510  0.2006 -0.2120 -0.8116
 2934TIP3    H130217   1.759   3.794   4.546  0.5897 -0.1609 -0.5526
 2934TIP3    H230218   1.796   3.727   4.416 -2.3906 -0.9263 -1.0698
 2935TIP3   OH230219   0.611   2.251   1.742  0.1060 -0.1501  0.4541
 2935TIP3    H130220   0.661   2.205   1.810 -1.4154 -2.4113  0.1530
 2935TIP3    H230221   0.669   2.251   1.666  0.8930  0.2449  1.0343
 2936TIP3   OH230222   6.735   3.052  13.524 -0.4746 -0.1898  0.6757
 2936TIP3    H130223   6.736   3.138  13.482  0.3902 -0.8531 -0.7027
 2936TIP3    H230224   6.781   3.066  13.607  0.5520  0.4673  0.0154
 2937TIP3   OH230225   0.572   6.116  15.013 -0.1115  0.4108 -0.0371
 2937TIP3    H130226   0.637   6.115  15.084  0.4099 -1.0713 -0.4981
 2937TIP3    H230227   0.536   6.028  15.012 -0.4732  0.5552 -1.2974
 2938TIP3   OH230228   5.021   1.591  13.979 -0.3369  0.1788 -0.0626
 2938TIP3    H130229   5.068   1.594  14.062 -0.0195  1.6537 -0.2701
 2938TIP3    H230230   4.929   1.585  14.004 -0.1552 -1.3178  0.3549
 2939TIP3   OH230231   6.094   6.344  11.414 -0.1517  0.4333  0.0499
 2939TIP3    H130232   6.040   6.406  11.364  0.1397 -0.3652 -1.3199
 2939TIP3    H230233   6.134   6.397  11.483 -0.1652  1.7102 -0.8874
 2940TIP3   OH230234   4.947   4.322  10.913  0.4880 -0.2829  0.5196
 2940TIP3    H130235   4.984   4.297  10.828  1.9062  1.3165  0.6057
 2940TIP3    H230236   4.872   4.377  10.891  2.1393  1.9840  0.1784
 2941TIP3   OH230237   3.784   1.993  14.230  0.1610  0.0141 -0.3643
 2941TIP3    H130238   3.737   2.055  14.174  1.4401  1.7783  0.4089
 2941TIP3    H230239   3.784   2.034  14.316  1.5937 -0.7305  0.0268
 2942TIP3   OH230240   3.454   2.605   5.649 -0.1017 -0.0165 -0.3150
 2942TIP3    H130241   3.373   2.559   5.673 -0.7100  1.6220  1.0191
 2942TIP3    H230242   3.439   2.633   5.558 -1.2440  0.6329  0.0479
 2943TIP3   OH230243   2.460   4.983   5.676 -0.1297  0.0554 -0.6200
 2943TIP3    H130244   2.512   4.979   5.597 -1.7273 -1.2417 -1.6690
 2943TIP3    H230245   2.415   4.899   5.680 -0.5615  0.3218  1.3484
 2944TIP3   OH230246   3.549   1.355  16.353  0.2610 -0.3335 -1.0978
 2944TIP3    H130247   3.493   1.313  16.419 -2.2837 -0.7776 -3.3479
 2944TIP3    H230248   3.488   1.400  16.295  2.4764  1.0959 -2.4738
 2945TIP3   OH230249   1.054   4.865   4.560  0.2251  0.3223 -0.1141
 2945TIP3    H130250   1.095   4.790   4.516  1.3059 -0.6231  2.3119
 2945TIP3    H230251   0.986   4.826   4.615  1.7930  0.8160  2.3499
 2946TIP3   OH230252   2.247   5.316   5.606  0.0185  0.0179 -0.2269
 2946TIP3    H130253   2.263   5.265   5.684 -2.2115 -2.6094 -1.3376
 2946TIP3    H230254   2.312   5.284   5.542 -0.2754 -0.2049 -0.4158
 2947TIP3   OH230255   0.203   2.712  14.095  0.4237 -0.1143  0.2332
 2947TIP3    H130256   0.263   2.639  14.079 -2.0855 -2.1588 -0.7024
 2947TIP3    H230257   0.153   2.685  14.172 -0.0014  1.0503  0.3902
 2948TIP3   OH230258   2.962   4.322  12.240 -0.2284 -0.1409 -0.0720
 2948TIP3    H130259   3.009   4.333  12.158  0.6888  1.8750  0.6455
 2948TIP3    H230260   3.029   4.301  12.305 -0.7277 -0.2909  0.4058
 2949TIP3   OH230261   6.323   0.442   4.124  0.7866 -0.7844  0.7867
 2949TIP3    H130262   6.403   0.478   4.085  0.8149 -1.4264  0.2420
 2949TIP3    H230263   6.343   0.437   4.218  0.8361  0.4547  0.8564
 2950TIP3   OH230264   5.677   3.199   5.085  0.1338 -0.1525  0.2478
 2950TIP3    H130265   5.671   3.154   5.001  0.7165  1.6699 -0.8204
 2950TIP3    H230266   5.678   3.128   5.150  2.3532 -1.7558 -1.3792
 2951TIP3   OH230267   3.638   6.639   2.995  0.4396  0.5517 -0.2086
 2951TIP3    H130268   3.585   6.710   2.960  0.7947  1.0267  0.1939
 2951TIP3    H230269   3.648   6.577   2.922 -0.7289  0.4093 -0.2610
 2952TIP3   OH230270   2.856   0.446   2.306 -0.2204  0.1151  0.9178
 2952TIP3    H130271   2.822   0.436   2.218  2.8525  2.5272 -0.7525
 2952TIP3    H230272   2.782   0.479   2.357 -2.1599 -1.6801 -0.5729
 2953TIP3   OH230273   5.974   4.969   2.558  0.1973  0.1231 -0.3312
 2953TIP3    H130274   6.019   4.986   2.475  0.2105  0.0229 -0.3449
 2953TIP3    H230275   6.042   4.978   2.625 -0.1077  1.6931 -0.1806
 2954TIP3   OH230276   6.434   3.048  13.606  0.2245  0.4556 -0.2577
 2954TIP3    H130277   6.427   3.090  13.691  0.9713 -0.7701  0.4201
 2954TIP3    H230278   6.519   3.076  13.572  0.3621  0.1431 -0.1673
 2955TIP3   OH230279   4.375   6.292  14.112 -0.3705 -0.8083 -0.1085
 2955TIP3    H130280   4.319   6.259  14.182 -1.1900 -0.8391 -0.7669
 2955TIP3    H230281   4.394   6.382  14.138  1.4540 -1.5555  1.4328
 2956TIP3   OH230282   6.053   3.907  14.387 -0.0592 -0.4387 -1.1478
 2956TIP3    H130283   6.005   3.989  14.401 -0.7650 -1.2655  2.2339
 2956TIP3    H230284   6.145   3.932  14.398 -0.2958 -0.1087  0.3976
 2957TIP3   OH230285   1.386   6.732  11.402  0.0879  0.4847  0.3419
 2957TIP3    H130286   1.297   6.766  11.410 -0.3508 -0.2146 -1.2511
 2957TIP3    H230287   1.388   6.657  11.463 -0.7641 -0.1290 -0.3463
 2958TIP3   OH230288   6.433   3.733  14.387  0.6928 -0.1856 -0.8739
 2958TIP3    H130289   6.389   3.771  14.311 -0.9167  2.1275  1.0525
 2958TIP3    H230290   6.372   3.666  14.419 -0.0026  0.8367 -0.0130
 2959TIP3   OH230291   2.108   4.705  11.621  0.4159 -0.5301 -0.3795
 2959TIP3    H130292   2.070   4.623  11.653 -1.6135 -0.7110 -2.9484
 2959TIP3    H230293   2.080   4.711  11.530  1.1285  2.6734 -0.5129
 2960TIP3   OH230294   3.596   5.767  13.531  0.0455  0.1336  0.4056
 2960TIP3    H130295   3.600   5.847  13.478 -0.9776  0.2777  0.5227
 2960TIP3    H230296   3.680   5.724  13.517  0.7838  1.4579  0.6947
 2961TIP3   OH230297   6.490   4.854  13.194 -0.0395 -0.2618 -0.2255
 2961TIP3    H130298   6.527   4.868  13.106 -0.2825  1.8717 -0.0284
 2961TIP3    H230299   6.561   4.878  13.253 -0.5095  0.2014  0.1568
 2962TIP3   OH230300   3.666   0.006  13.670 -0.2737  0.5157  0.0332
 2962TIP3    H130301   3.619  -0.073  13.641  1.3016 -0.5915  0.3434
 2962TIP3    H230302   3.598   0.072  13.680 -1.7002 -0.8818  0.0109
 2963TIP3   OH230303   0.378   3.735   5.904  0.1833  0.1571  0.1482
 2963TIP3    H130304   0.307   3.688   5.861  1.3428 -1.2490 -0.3298
 2963TIP3    H230305   0.425   3.778   5.833  0.1187  0.6293  0.3932
 2964TIP3   OH230306   6.407   1.415  11.920 -0.3359  0.1773  0.2906
 2964TIP3    H130307   6.395   1.397  11.827  3.8476  2.1468 -0.8465
 2964TIP3    H230308   6.476   1.354  11.948 -0.5261  0.5893  1.7425
 2965TIP3   OH230309   0.387   4.149  14.910 -0.3020 -0.2509  0.2732
 2965TIP3    H130310   0.399   4.219  14.974 -1.2345 -0.5398  0.7760
 2965TIP3    H230311   0.328   4.185  14.844  0.0195 -0.2275 -0.0069
 2966TIP3   OH230312   5.594   3.006   3.071  0.2334  0.2480  0.0480
 2966TIP3    H130313   5.519   3.028   3.126 -0.7175  0.4353 -1.2690
 2966TIP3    H230314   5.617   2.916   3.095 -0.6844  0.0438  0.1739
 2967TIP3   OH230315   2.786   5.573  14.538  0.5048  0.3926  0.3932
 2967TIP3    H130316   2.811   5.484  14.562 -0.2078 -0.0878 -0.5712
 2967TIP3    H230317   2.853   5.601  14.476  0.1000  0.0788 -0.1973
 2968TIP3   OH230318   0.583   0.512   2.902 -0.1446 -0.2441  0.3243
 2968TIP3    H130319   0.553   0.493   2.991  0.9596  2.1482  1.2916
 2968TIP3    H230320   0.648   0.443   2.884 -0.4902 -0.8444  1.3072
 2969TIP3   OH230321   1.883   2.200  14.319 -0.0900  0.1412 -0.2010
 2969TIP3    H130322   1.876   2.213  14.414 -0.0209 -1.0358 -0.0238
 2969TIP3    H230323   1.916   2.284  14.286  0.7108  0.2863  0.9100
 2970TIP3   OH230324   3.400   0.977   5.240 -0.1467  0.3059  0.4880
 2970TIP3    H130325   3.332   1.033   5.201 -0.5438  0.0839  0.8528
 2970TIP3    H230326   3.358   0.938   5.316  0.5858  0.6503  1.0877
 2971TIP3   OH230327   1.735   0.481  14.358 -0.2868 -0.1731 -0.2264
 2971TIP3    H130328   1.778   0.482  14.443 -1.1308  3.3179  0.3218
 2971TIP3    H230329   1.805   0.497  14.295  0.2205 -2.0039 -0.1941
 2972TIP3   OH230330   3.493   5.165  11.951 -0.1814  0.6218 -0.0223
 2972TIP3    H130331   3.524   5.077  11.970  1.7565  1.1058 -0.6909
 2972TIP3    H230332   3.459   5.159  11.862  2.2815  1.0136 -1.0809
 2973TIP3   OH230333   5.396   3.943   4.154 -0.2833 -0.4734  0.6539
 2973TIP3    H130334   5.377   3.993   4.075 -0.6755 -3.3443 -1.1970
 2973TIP3    H230335   5.312   3.937   4.199 -0.9811 -2.0061 -0.7428
 2974TIP3   OH230336   1.532   5.728  16.771 -0.4307  0.4790 -0.1209
 2974TIP3    H130337   1.488   5.764  16.694 -2.7636 -1.2548  0.2876
 2974TIP3    H230338   1.545   5.636  16.750  2.5490  0.7847  0.0644
 2975TIP3   OH230339   6.492   1.405  16.948  0.2501  0.0859  0.0994
 2975TIP3    H130340   6.549   1.473  16.913  0.9173 -0.4804  0.0753
 2975TIP3    H230341   6.540   1.324  16.935  0.6946 -0.1253  2.6196
 2976TIP3   OH230342   0.770   0.973  15.912 -0.2364 -0.0899  0.3458
 2976TIP3    H130343   0.753   1.059  15.952 -1.1986 -0.3294  0.4846
 2976TIP3    H230344   0.744   0.910  15.979  0.4776 -0.4991  0.2487
 2977TIP3   OH230345   3.090   3.750  13.502  0.2146  0.3658  0.1339
 2977TIP3    H130346   3.181   3.743  13.474  0.1718 -1.0490  0.3134
 2977TIP3    H230347   3.093   3.741  13.597 -0.0910  0.5377  0.1611
 2978TIP3   OH230348   6.384   4.032   2.475  0.0680 -0.2771 -0.2938
 2978TIP3    H130349   6.334   4.030   2.393  0.2316  2.8101 -0.5757
 2978TIP3    H230350   6.394   3.940   2.499 -0.8235 -1.2564 -3.2299
 2979TIP3   OH230351   0.970   3.199   5.254 -0.4001  0.4653 -0.1023
 2979TIP3    H130352   0.919   3.140   5.197 -0.0057  0.9624 -1.0013
 2979TIP3    H230353   0.906   3.232   5.317 -0.5911 -1.0279  0.5251
 2980TIP3   OH230354   4.391   4.408   2.920 -0.1690  0.0639  0.0380
 2980TIP3    H130355   4.340   4.440   2.994 -0.1575  1.4561 -0.5287
 2980TIP3    H230356   4.339   4.430   2.843 -0.5465 -2.0592 -0.3619
 2981TIP3   OH230357   2.120   3.373  14.480 -0.2122  0.1232 -0.0769
 2981TIP3    H130358   2.156   3.330  14.557  3.1956 -0.8775 -2.0211
 2981TIP3    H230359   2.034   3.332  14.468  0.5671 -2.0933  1.3362
 2982TIP3   OH230360   0.425   3.483  14.756 -0.0046  0.3899  0.1074
 2982TIP3    H130361   0.404   3.551  14.820 -3.3064  0.0666 -0.4822
 2982TIP3    H230362   0.390   3.403  14.795  1.7489 -0.6201 -0.2723
 2983TIP3   OH230363   2.904   1.455   6.163 -0.2824  0.0330 -0.6137
 2983TIP3    H130364   2.810   1.441   6.148 -0.2308 -1.5499  0.2870
 2983TIP3    H230365   2.938   1.368   6.183  0.9974  0.8530  1.0362
 2984TIP3   OH230366   1.079   5.535   1.604 -0.3833 -0.2173 -0.1150
 2984TIP3    H130367   1.131   5.486   1.668  0.5153 -1.1223 -1.4827
 2984TIP3    H230368   1.141   5.597   1.565 -1.3840  1.7163  1.2225
 2985TIP3   OH230369   4.577   5.837  15.874  0.1201 -0.6430 -0.3006
 2985TIP3    H130370   4.594   5.748  15.844 -0.4000 -0.7680 -0.2255
 2985TIP3    H230371   4.552   5.828  15.965  0.3598 -0.3886 -0.2070
 2986TIP3   OH230372   6.541   2.573   3.568 -0.9619 -0.5393  0.0373
 2986TIP3    H130373   6.488   2.494   3.559  0.1540 -1.2125 -0.9110
 2986TIP3    H230374   6.543   2.609   3.479 -1.0674  0.3117  0.3713
 2987TIP3   OH230375   4.389   1.998  14.985  0.2103  0.4997 -0.0481
 2987TIP3    H130376   4.481   1.983  14.964  0.1299  0.7368 -0.5787
 2987TIP3    H230377   4.341   1.947  14.920 -0.0385  0.7893 -0.0934
 2988TIP3   OH230378   6.528   4.036  15.140  0.1163 -0.0489  0.1538
 2988TIP3    H130379   6.565   3.949  15.155 -0.5066 -0.0826  1.7187
 2988TIP3    H230380   6.569   4.066  15.059  1.3838 -1.2292  0.3166
 2989TIP3   OH230381   3.433   3.000   2.948  0.1804 -0.1944  0.2946
 2989TIP3    H130382   3.383   3.060   2.893  0.4089 -1.1325 -0.9783
 2989TIP3    H230383   3.429   2.916   2.902  3.0347 -0.2894  0.0435
 2990TIP3   OH230384   1.884   4.346   2.353 -0.0323 -0.3359  0.0208
 2990TIP3    H130385   1.859   4.438   2.347 -0.5725 -0.4043  0.9709
 2990TIP3    H230386   1.833   4.303   2.284 -1.7897 -0.2949  1.2282
 2991TIP3   OH230387   4.535   2.913  13.259  0.1733 -0.2629 -0.0736
 2991TIP3    H130388   4.517   2.862  13.338 -0.6563 -0.1932 -0.2161
 2991TIP3    H230389   4.493   2.863  13.189 -0.4728  0.5080 -0.2413
 2992TIP3   OH230390   3.220   4.025   0.586  0.1726  0.0176  0.1861
 2992TIP3    H130391   3.239   4.118   0.590  0.8378 -0.1296  0.7675
 2992TIP3    H230392   3.187   4.004   0.673  0.8306 -0.4454  0.3323
 2993TIP3   OH230393   2.331   3.096   6.174  0.1047  0.2321  0.3872
 2993TIP3    H130394   2.275   3.147   6.232 -1.1589 -2.0509  1.3390
 2993TIP3    H230395   2.276   3.079   6.097  0.0963 -0.5677  0.5609
 2994TIP3   OH230396   1.131   4.495   6.478 -0.3317 -0.4396  0.9056
 2994TIP3    H130397   1.176   4.579   6.480 -1.2497  0.0545  1.0915
 2994TIP3    H230398   1.115   4.474   6.570 -0.6640 -0.5203  0.8288
 2995TIP3   OH230399   6.551   0.845  14.333  0.3374 -0.3463  0.1509
 2995TIP3    H130400   6.521   0.854  14.243 -0.0289  1.4853  0.4193
 2995TIP3    H230401   6.472   0.852  14.386  0.8780  2.2434  0.7505
 2996TIP3   OH230402   5.000   4.098  12.065  0.1602  0.0636  0.2897
 2996TIP3    H130403   5.093   4.077  12.067 -0.3196 -2.4929 -0.5971
 2996TIP3    H230404   4.958   4.020  12.028 -2.1111  1.9438 -1.4415
 2997TIP3   OH230405   0.738   2.270  16.254 -0.0530 -0.2893  0.3862
 2997TIP3    H130406   0.744   2.325  16.332  0.2887  0.7779 -0.3649
 2997TIP3    H230407   0.758   2.181  16.285  2.0850  0.3971  1.1752
 2998TIP3   OH230408   5.868   0.621   0.828 -0.0156  0.2628  0.2166
 2998TIP3    H130409   5.953   0.585   0.804  1.9038  3.5267  1.4178
 2998TIP3    H230410   5.867   0.619   0.924 -1.3549  0.1551  0.2184
 2999TIP3   OH230411   3.242   0.870   2.034 -0.0215 -0.0678 -0.4489
 2999TIP3    H130412   3.198   0.813   1.971  0.8458  0.0298 -1.1639
 2999TIP3    H230413   3.289   0.810   2.091  0.4055 -0.1083 -0.8326
 3000TIP3   OH230414   6.291   4.551   0.779 -0.0567 -0.1980  0.1974
 3000TIP3    H130415   6.208   4.529   0.737  1.0646 -1.2954 -1.5926
 3000TIP3    H230416   6.358   4.507   0.726  1.6039 -0.5041  2.3493
 3001TIP3   OH230417   2.124   6.299  12.987  0.5461  0.3447 -0.1173
 3001TIP3    H130418   2.108   6.389  13.014  0.6726  0.8368 -1.5770
 3001TIP3    H230419   2.205   6.304  12.935 -0.3357 -0.3172 -1.5981
 3002TIP3   OH230420   1.533   4.890  16.613 -0.1402  0.1169 -0.2652
 3002TIP3    H130421   1.469   4.851  16.672 -0.6937 -0.9163 -1.5284
 3002TIP3    H230422   1.573   4.816  16.567 -0.3893  0.9303 -1.8703
 3003TIP3   OH230423   0.120   3.080  13.764  1.0667  0.6404  0.5798
 3003TIP3    H130424   0.137   2.997  13.808 -1.1327  0.0220  0.3820
 3003TIP3    H230425   0.049   3.119  13.813  0.6926  1.4216 -0.5398
 3004TIP3   OH230426   1.578   1.104  11.707  0.4957 -0.0354 -0.8973
 3004TIP3    H130427   1.559   1.048  11.632  3.4398  0.0497 -1.8220
 3004TIP3    H230428   1.551   1.191  11.679 -3.1569 -0.6424  0.1718
 3005TIP3   OH230429   3.004   0.155   5.200  0.4619  0.4985  0.3440
 3005TIP3    H130430   2.976   0.064   5.209  4.0192 -1.0607 -1.8263
 3005TIP3    H230431   3.066   0.168   5.272  1.2891  0.5223 -0.3487
 3006TIP3   OH230432   4.453   5.265  17.425 -0.6864 -0.3262  0.0406
 3006TIP3    H130433   4.465   5.351  17.465  1.4922 -0.7496  0.3932
 3006TIP3    H230434   4.381   5.226  17.475 -0.9618  0.8412  0.6094
 3007TIP3   OH230435   0.094   5.077   4.658 -0.2616  0.8955  0.7761
 3007TIP3    H130436   0.126   5.053   4.571  0.7450 -0.9593  1.5916
 3007TIP3    H230437   0.173   5.076   4.713 -1.0026  1.2398  1.8794
 3008TIP3   OH230438   5.668   0.842   5.088 -0.2646 -0.6038  0.2416
 3008TIP3    H130439   5.597   0.864   5.148 -0.3301  0.4249 -0.2002
 3008TIP3    H230440   5.627   0.839   5.002  0.1283 -0.5364  0.0510
 3009TIP3   OH230441   3.418   1.405  14.982 -0.2618  0.1075 -0.0784
 3009TIP3    H130442   3.474   1.371  15.052  0.5757  0.7499 -0.4155
 3009TIP3    H230443   3.397   1.494  15.009  2.4232  1.4281 -1.8987
 3010TIP3   OH230444   2.062   3.203  12.564 -0.5362 -0.1765  0.4849
 3010TIP3    H130445   1.996   3.229  12.500 -0.6434  0.1048  0.7085
 3010TIP3    H230446   2.084   3.113  12.541  0.8589  0.5396 -1.1596
 3011TIP3   OH230447   2.274   1.754   3.987  0.2230  0.2821  0.0634
 3011TIP3    H130448   2.356   1.796   4.010  0.2646 -0.7652  2.1164
 3011TIP3    H230449   2.224   1.754   4.069 -1.3470 -0.1469 -0.8516
 3012TIP3   OH230450   0.998   0.557  16.227 -0.9050 -0.5505 -0.2789
 3012TIP3    H130451   0.906   0.582  16.220 -0.9481 -0.1981  1.1521
 3012TIP3    H230452   0.997   0.477  16.280 -0.4738 -1.3300 -1.4183
 3013TIP3   OH230453   1.808   4.639   2.885  0.0919 -0.0493  0.2779
 3013TIP3    H130454   1.881   4.614   2.941  1.3331  2.7168  0.0538
 3013TIP3    H230455   1.775   4.721   2.923 -0.5428  0.6662 -1.6753
 3014TIP3   OH230456   5.654   3.550   3.974  0.2175  0.2172  0.5048
 3014TIP3    H130457   5.741   3.515   3.952 -0.3666 -1.3802  0.6474
 3014TIP3    H230458   5.665   3.587   4.062  0.5965 -0.6561  0.8431
 3015TIP3   OH230459   3.048   4.960   5.282 -0.0257 -0.3615  0.0445
 3015TIP3    H130460   3.048   4.929   5.192 -1.1754 -1.4547  0.3756
 3015TIP3    H230461   3.135   4.937   5.315  0.6382  0.6444 -0.9541
 3016TIP3   OH230462   4.568   2.394   4.198  0.0437 -0.2554 -0.6661
 3016TIP3    H130463   4.478   2.389   4.230  0.4645 -0.8983  0.4637
 3016TIP3    H230464   4.598   2.481   4.225 -0.1964 -0.0802 -0.9550
 3017TIP3   OH230465   3.225   2.200  17.119 -0.0853  0.6802  0.3870
 3017TIP3    H130466   3.302   2.143  17.128 -1.3353 -0.9770  1.2205
 3017TIP3    H230467   3.217   2.215  17.025  0.0544 -0.9108  0.0862
 3018TIP3   OH230468   3.012   3.655   0.590 -0.1154 -0.4534  0.1835
 3018TIP3    H130469   3.040   3.605   0.513  1.1698 -1.1110  1.0518
 3018TIP3    H230470   2.992   3.588   0.655  0.8778  0.1440  1.1186
 3019TIP3   OH230471   1.339   4.430  11.333  0.0919  0.3875 -0.3532
 3019TIP3    H130472   1.323   4.525  11.337 -1.3144  0.1473  0.1817
 3019TIP3    H230473   1.428   4.419  11.366 -0.7997  1.2549  2.6231
 3020TIP3   OH230474   5.193   4.866  11.397 -0.0176 -0.5809 -0.3873
 3020TIP3    H130475   5.281   4.898  11.379 -0.5364  1.2790  0.2074
 3020TIP3    H230476   5.152   4.859  11.311 -0.8159  3.2810 -0.5061
 3021TIP3   OH230477   1.454   2.912  11.992 -0.1965 -0.0557  0.2647
 3021TIP3    H130478   1.489   2.882  12.077 -0.6028 -0.0869  0.4206
 3021TIP3    H230479   1.360   2.915  12.005 -0.3486 -1.0274 -0.4936
 3022TIP3   OH230480   6.261   5.248   3.790 -0.5634 -0.5921  0.0468
 3022TIP3    H130481   6.233   5.340   3.789  0.9603 -0.0627  1.1051
 3022TIP3    H230482   6.180   5.198   3.796 -1.3770  0.7350  0.6407
 3023TIP3   OH230483   5.255   5.182  13.192  0.4999 -0.4181  0.6284
 3023TIP3    H130484   5.338   5.228  13.187 -0.0236  0.7007  1.7890
 3023TIP3    H230485   5.212   5.201  13.108  1.1914 -0.6265  0.2135
 3024TIP3   OH230486   5.014   2.221  11.431  0.4727 -0.8004 -0.2779
 3024TIP3    H130487   4.934   2.170  11.414 -1.0208  0.2358  2.8439
 3024TIP3    H230488   5.033   2.265  11.348 -4.0824  1.3285 -0.5118
 3025TIP3   OH230489   5.619   5.753  16.917  0.2555 -0.3038  0.1039
 3025TIP3    H130490   5.647   5.799  16.838  1.9666  3.1684  2.4878
 3025TIP3    H230491   5.664   5.669  16.913  3.1851  1.1940 -0.9882
 3026TIP3   OH230492   2.556   1.076  15.033  0.0608  0.0009  0.2747
 3026TIP3    H130493   2.626   1.103  15.093  1.6579 -2.5716 -0.2574
 3026TIP3    H230494   2.475   1.094  15.081  1.1664  0.8132  1.9449
 3027TIP3   OH230495   6.579   3.615   4.518 -0.0212  0.0284 -0.4313
 3027TIP3    H130496   6.498   3.621   4.569  0.2031 -0.6934  0.0245
 3027TIP3    H230497   6.553   3.642   4.430 -0.2353  2.0838  0.1983
 3028TIP3   OH230498   1.434   1.544   3.898 -0.2780  0.7676 -0.2184
 3028TIP3    H130499   1.426   1.449   3.895  0.1764  0.6823  0.6795
 3028TIP3    H230500   1.366   1.572   3.959  0.0295  0.9463  0.0476
 3029TIP3   OH230501   2.003   2.330   2.082 -0.0364  0.3744  0.0867
 3029TIP3    H130502   1.945   2.393   2.039 -0.6214 -0.0123  0.2877
 3029TIP3    H230503   2.069   2.383   2.126  0.3471  0.7920 -0.9722
 3030TIP3   OH230504   1.172   2.914   4.622 -0.9325  0.1208  0.4582
 3030TIP3    H130505   1.112   2.840   4.610  0.0688 -1.0760  2.3181
 3030TIP3    H230506   1.139   2.959   4.700 -0.5147  0.5904  0.3645
 3031TIP3   OH230507   4.214   2.952  12.532  0.5140  0.7085 -0.3716
 3031TIP3    H130508   4.282   2.888  12.513  0.5542  0.8971 -0.9017
 3031TIP3    H230509   4.193   2.990  12.446 -0.3601  0.5486 -0.2358
 3032TIP3   OH230510   4.842   1.836   3.126  0.0329  0.3102 -0.6937
 3032TIP3    H130511   4.794   1.801   3.051 -1.4030  0.6031  0.0543
 3032TIP3    H230512   4.815   1.780   3.199  0.5656  0.7107 -0.1847
 3033TIP3   OH230513   2.826   3.542  16.603 -0.2197 -0.0660  0.1671
 3033TIP3    H130514   2.781   3.511  16.682  0.5688 -0.1467  0.5935
 3033TIP3    H230515   2.793   3.631  16.590 -0.9759 -0.3497  0.1036
 3034TIP3   OH230516   1.565   3.616  17.005 -0.6241  0.0832 -0.4656
 3034TIP3    H130517   1.649   3.660  17.013  0.7171 -2.0827 -1.7170
 3034TIP3    H230518   1.574   3.560  16.928 -3.2366 -0.2279 -0.6596
 3035TIP3   OH230519   0.528   6.219  10.858  0.1166 -0.1942 -0.3541
 3035TIP3    H130520   0.443   6.262  10.866  0.4561  0.5056 -0.4423
 3035TIP3    H230521   0.569   6.261  10.783  0.4577 -0.6896 -0.4536
 3036TIP3   OH230522   6.071   0.348  14.808  0.0160  0.0814 -0.3292
 3036TIP3    H130523   6.059   0.311  14.721  0.2102 -0.1895 -0.2420
 3036TIP3    H230524   6.006   0.303  14.862 -1.0694  1.2394 -0.6139
 3037TIP3   OH230525   1.767   2.051   4.766 -0.1426 -0.0793 -0.2794
 3037TIP3    H130526   1.715   2.009   4.834  0.1580  0.0252  0.0239
 3037TIP3    H230527   1.813   2.122   4.812  0.0629 -0.0054 -0.5911
 3038TIP3   OH230528   3.353   2.698  12.682 -0.1041 -0.5545  0.2052
 3038TIP3    H130529   3.298   2.643  12.627  1.0278 -1.7264  0.2085
 3038TIP3    H230530   3.332   2.788  12.655 -0.4894 -1.0549 -1.2488
 3039TIP3   OH230531   1.782   1.368   0.946 -0.4886 -0.4632  0.3522
 3039TIP3    H130532   1.825   1.351   0.862 -0.4550 -0.1973  0.3167
 3039TIP3    H230533   1.765   1.462   0.946 -0.5666 -0.4774  0.6068
 3040TIP3   OH230534   2.379   2.558  13.236 -0.0832  0.2222  0.3621
 3040TIP3    H130535   2.396   2.545  13.142  1.1967 -1.1595  0.7493
 3040TIP3    H230536   2.461   2.591  13.271 -0.4484  0.4045  1.0568
 3041TIP3   OH230537   0.511   3.924  13.084  0.0208  0.4363  0.0109
 3041TIP3    H130538   0.454   3.939  13.160 -0.0273  0.4569 -0.0296
 3041TIP3    H230539   0.597   3.909  13.122  0.4320  2.4939  0.0040
 3042TIP3   OH230540   5.853   2.452   1.562  0.1449 -0.5127 -0.0222
 3042TIP3    H130541   5.810   2.538   1.554 -1.1624 -1.3250 -3.6827
 3042TIP3    H230542   5.945   2.473   1.579 -0.3562  1.5464  0.4594
 3043TIP3   OH230543   4.912   2.245  11.736  0.6155  0.2651  0.0864
 3043TIP3    H130544   4.906   2.334  11.771 -2.3655  0.1731  0.0700
 3043TIP3    H230545   4.932   2.258  11.644 -1.6352  1.1211 -0.3603
 3044TIP3   OH230546   4.000   4.118  14.798  0.5966  0.7065 -0.4527
 3044TIP3    H130547   4.058   4.042  14.799  1.8590  1.6125 -1.1868
 3044TIP3    H230548   3.917   4.086  14.833  1.0103 -1.0676 -1.0057
 3045TIP3   OH230549   6.564   3.188   2.107  0.0043  0.4432  0.1506
 3045TIP3    H130550   6.523   3.115   2.061 -2.6669  2.1714 -0.4255
 3045TIP3    H230551   6.514   3.197   2.188 -1.7019  3.2933 -1.0638
 3046TIP3   OH230552   2.466   3.377  15.042  0.1814 -0.1771  0.0581
 3046TIP3    H130553   2.496   3.300  14.995  0.7401 -0.8983  1.5362
 3046TIP3    H230554   2.464   3.447  14.976 -1.3225 -1.6539 -1.5436
 3047TIP3   OH230555   6.634   6.156  17.319  0.5239  0.0670 -0.2324
 3047TIP3    H130556   6.661   6.090  17.256  0.2989  0.2686 -0.5410
 3047TIP3    H230557   6.668   6.124  17.403 -0.0042 -0.6969 -0.2903
 3048TIP3   OH230558   1.711   5.193   2.725 -0.1987 -0.0749 -0.2667
 3048TIP3    H130559   1.625   5.225   2.699  0.2134  0.1355 -1.4274
 3048TIP3    H230560   1.729   5.237   2.808  0.0200  2.1599 -1.4282
 3049TIP3   OH230561   2.944   3.822   1.757 -0.2168  0.3653 -0.4702
 3049TIP3    H130562   3.030   3.785   1.738 -0.6364 -1.1205  0.3539
 3049TIP3    H230563   2.955   3.916   1.746  1.5760  0.2252 -0.1023
 3050TIP3   OH230564   3.929   4.381   1.089 -0.2841  0.1113  0.4306
 3050TIP3    H130565   3.850   4.430   1.067 -0.6808 -0.5727  0.2765
 3050TIP3    H230566   3.989   4.446   1.124 -0.4927  0.8354 -0.5209
 3051TIP3   OH230567   1.312   6.532  16.984 -0.0071 -0.3813 -0.3112
 3051TIP3    H130568   1.240   6.592  17.003  0.5265  0.0539  0.3681
 3051TIP3    H230569   1.287   6.450  17.026 -0.3533 -0.3958 -0.5410
 3052TIP3   OH230570   3.462   0.108   5.200 -0.3782 -0.2555  0.1831
 3052TIP3    H130571   3.514   0.188   5.186 -0.9798  0.0517 -0.3804
 3052TIP3    H230572   3.383   0.138   5.245  0.3928 -0.8822  2.0425
 3053TIP3   OH230573   1.338   4.024   2.888 -0.1137  0.3222 -0.7555
 3053TIP3    H130574   1.294   3.956   2.837  0.2131 -0.3873 -0.1153
 3053TIP3    H230575   1.399   4.064   2.827 -1.1246  0.8473 -1.4661
 3054TIP3   OH230576   0.215   1.732  17.066  0.3707 -0.6799  0.3773
 3054TIP3    H130577   0.126   1.763  17.049  2.0319  3.5240 -2.4530
 3054TIP3    H230578   0.230   1.663  17.001 -0.3423 -0.2908 -0.2100
 3055TIP3   OH230579   0.744   4.062   2.821 -0.6450 -0.3701  0.5618
 3055TIP3    H130580   0.818   4.001   2.822 -0.2779  0.0808  1.5598
 3055TIP3    H230581   0.735   4.091   2.911 -2.5307 -0.9700  0.6010
 3056TIP3   OH230582   2.409   2.974   6.480 -0.1346  0.0953 -0.1998
 3056TIP3    H130583   2.378   3.065   6.480  0.4060  0.2850 -1.1410
 3056TIP3    H230584   2.393   2.944   6.570  0.6744  1.4600  0.4229
 3057TIP3   OH230585   6.155   2.374  16.510 -0.2738 -0.0793 -0.2973
 3057TIP3    H130586   6.198   2.350  16.428  1.6842  1.1396  0.3156
 3057TIP3    H230587   6.107   2.455  16.490  0.0536  0.1171 -0.2934
 3058TIP3   OH230588   0.486   6.609  16.891  0.0073  0.0382  0.3418
 3058TIP3    H130589   0.395   6.629  16.907  0.1640  0.2869  0.9099
 3058TIP3    H230590   0.512   6.667  16.819 -0.0325  0.6059  0.7841
 3059TIP3   OH230591   2.082   5.795  13.022 -0.1671 -0.0050  0.3417
 3059TIP3    H130592   2.109   5.827  13.108  1.4351  0.8140 -0.4254
 3059TIP3    H230593   2.088   5.871  12.965 -1.6066 -0.4408 -0.4468
 3060TIP3   OH230594   4.240   4.893  13.371 -0.1175  0.3887 -0.1176
 3060TIP3    H130595   4.209   4.971  13.324 -0.2074 -0.2981 -1.2254
 3060TIP3    H230596   4.333   4.910  13.385 -0.6019  1.7625  1.8324
 3061TIP3   OH230597   1.041   5.728  17.286  0.1871  0.4412  0.5973
 3061TIP3    H130598   1.013   5.642  17.317  1.0957 -0.4337 -0.8795
 3061TIP3    H230599   1.093   5.710  17.208 -0.0428  2.3747 -0.0718
 3062TIP3   OH230600   0.631   1.813   4.675  0.3314 -0.2012  0.0348
 3062TIP3    H130601   0.691   1.739   4.686  0.1717 -0.4226 -0.5530
 3062TIP3    H230602   0.571   1.805   4.750 -0.2276 -1.2032 -0.4832
 3063TIP3   OH230603   3.500   1.515  16.826 -0.0559 -0.3228 -0.5308
 3063TIP3    H130604   3.473   1.503  16.918 -1.5001 -2.0775 -1.1070
 3063TIP3    H230605   3.586   1.555  16.831 -0.0093 -0.5676  1.6109
 3064TIP3   OH230606   5.800   4.058  16.015  0.1124 -0.6528 -0.9876
 3064TIP3    H130607   5.742   4.123  16.055  0.0470 -1.2123 -0.1389
 3064TIP3    H230608   5.776   4.058  15.922 -0.1569  0.2441 -0.9318
 3065TIP3   OH230609   5.741   3.185   5.988  0.0944  0.1381 -0.6207
 3065TIP3    H130610   5.797   3.242   6.041  0.8719  1.5878 -2.8797
 3065TIP3    H230611   5.654   3.195   6.026  0.1494  3.0935 -1.0385
 3066TIP3   OH230612   0.850   2.173  13.753  0.1839  0.2471 -0.1896
 3066TIP3    H130613   0.945   2.185  13.750  0.2565  0.4703  1.6532
 3066TIP3    H230614   0.815   2.262  13.752 -0.0945  0.1500 -1.9492
 3067TIP3   OH230615   1.072   1.728   1.164 -0.2599 -0.3357  0.1424
 3067TIP3    H130616   1.164   1.718   1.140 -0.1148  1.3239 -0.0809
 3067TIP3    H230617   1.036   1.639   1.157  1.1422 -0.8872 -0.4779
 3068TIP3   OH230618   2.504   2.692  16.546  0.3419  0.2033 -0.3934
 3068TIP3    H130619   2.481   2.785  16.543  0.5867  0.3893  1.7710
 3068TIP3    H230620   2.583   2.689  16.600 -0.1924 -1.3288  0.3700
 3069TIP3   OH230621   2.108   1.837  16.415 -0.7509 -0.1105  0.1431
 3069TIP3    H130622   2.147   1.896  16.350 -1.6861 -0.2936 -0.6163
 3069TIP3    H230623   2.039   1.792  16.367 -0.1605 -1.7144  0.7553
 3070TIP3   OH230624   6.700   0.744  12.140 -0.0659  0.0227  0.1388
 3070TIP3    H130625   6.620   0.776  12.183 -0.8408 -1.3495 -0.2269
 3070TIP3    H230626   6.690   0.649  12.138  2.0985 -0.2797  1.0493
 3071TIP3   OH230627   3.703   1.672  14.851 -0.6717 -0.1854 -0.7458
 3071TIP3    H130628   3.756   1.599  14.882  2.5101  1.7235 -1.1928
 3071TIP3    H230629   3.636   1.632  14.796  0.2650 -2.7953 -0.1308
 3072TIP3   OH230630   5.467   6.493   2.492 -0.0949 -0.1838  0.3143
 3072TIP3    H130631   5.483   6.569   2.549  1.5272 -1.2787  1.4251
 3072TIP3    H230632   5.406   6.439   2.542  0.6699 -0.7464  0.6582
 3073TIP3   OH230633   5.419   3.870  14.425 -0.0614 -0.2249 -0.1226
 3073TIP3    H130634   5.365   3.793  14.444  2.9435 -2.0201  1.8389
 3073TIP3    H230635   5.447   3.857  14.334 -1.1906 -0.3584 -0.4686
 3074TIP3   OH230636   3.047   1.397   1.794 -0.1431 -0.3671  0.3060
 3074TIP3    H130637   3.041   1.304   1.816 -0.4813 -0.7835 -1.4180
 3074TIP3    H230638   2.956   1.427   1.792 -0.1842 -0.5299 -1.1819
 3075TIP3   OH230639   4.677   1.849  14.553 -0.2503  0.4999 -0.2036
 3075TIP3    H130640   4.708   1.759  14.558  1.1886  1.0263  1.2225
 3075TIP3    H230641   4.588   1.846  14.589 -0.3667 -0.4122 -0.5577
 3076TIP3   OH230642   6.399   6.395  14.872 -0.3512  0.0787 -1.0451
 3076TIP3    H130643   6.364   6.382  14.784  0.7068 -0.4473 -1.4027
 3076TIP3    H230644   6.484   6.438  14.858 -1.3194  2.4849 -0.1457
 3077TIP3   OH230645   4.662   4.993   3.873 -0.2318  0.1625 -0.0933
 3077TIP3    H130646   4.637   4.906   3.842 -0.4966  0.5567 -1.0215
 3077TIP3    H230647   4.584   5.025   3.919 -0.5626  0.3732 -0.7830
 3078TIP3   OH230648   3.288   6.016   0.117  0.0949 -0.4263  0.1631
 3078TIP3    H130649   3.247   6.010   0.030  1.3046 -0.4447 -0.4222
 3078TIP3    H230650   3.228   5.968   0.174  0.4390 -2.4653 -1.0959
 3079TIP3   OH230651   2.335   1.073   5.917 -0.4665  0.2239  0.4794
 3079TIP3    H130652   2.316   1.070   5.823 -2.2734  0.7443  0.7826
 3079TIP3    H230653   2.426   1.042   5.925  0.1937  1.4955 -1.5495
 3080TIP3   OH230654   4.692   6.533  15.244  0.1877 -0.0662  0.2813
 3080TIP3    H130655   4.766   6.525  15.183  0.3007  0.9325  0.2729
 3080TIP3    H230656   4.651   6.616  15.221  0.2770  0.3702  1.6137
 3081TIP3   OH230657   0.269   3.826   1.611 -0.2256 -0.2075  0.3211
 3081TIP3    H130658   0.360   3.842   1.586 -1.1379  2.1018 -1.9946
 3081TIP3    H230659   0.261   3.864   1.698  1.2012 -1.3749  1.0144
 3082TIP3   OH230660   4.179   2.179   1.317 -0.1467  0.3010 -0.5159
 3082TIP3    H130661   4.242   2.121   1.272 -1.2095 -1.3739  0.0666
 3082TIP3    H230662   4.093   2.150   1.286 -0.8432 -0.0744  1.6329
 3083TIP3   OH230663   6.311   1.755   1.711 -0.5996 -0.2187 -0.4845
 3083TIP3    H130664   6.294   1.776   1.619 -0.6636  0.8060 -0.2505
 3083TIP3    H230665   6.334   1.838   1.751 -0.0110 -0.7456  0.3170
 3084TIP3   OH230666   3.470   3.248  12.863  0.5441 -0.2641  0.2976
 3084TIP3    H130667   3.517   3.262  12.780  2.1434  1.6394  1.4294
 3084TIP3    H230668   3.524   3.185  12.910  1.2418  0.8059  0.9925
 3085TIP3   OH230669   4.258   5.462  12.777  0.1395 -0.2406 -0.4878
 3085TIP3    H130670   4.318   5.495  12.844 -0.4097 -0.7242  0.2561
 3085TIP3    H230671   4.266   5.367  12.783 -0.5233 -0.3040 -0.5428
 3086TIP3   OH230672   4.729   3.747   5.787 -0.4125 -0.2861 -0.4272
 3086TIP3    H130673   4.699   3.778   5.873  0.2462 -1.5201  0.2742
 3086TIP3    H230674   4.651   3.709   5.747 -0.9458  1.1174 -0.7988
 3087TIP3   OH230675   5.970   2.449  12.717 -0.1787 -0.4584 -0.5080
 3087TIP3    H130676   5.874   2.443  12.721 -0.0644 -1.9869  0.5972
 3087TIP3    H230677   5.997   2.368  12.674  0.7088 -0.9600  0.9505
 3088TIP3   OH230678   5.414   4.378   4.001 -0.2347 -0.4539  0.0441
 3088TIP3    H130679   5.403   4.468   3.970 -0.3333 -0.7085 -0.6765
 3088TIP3    H230680   5.470   4.337   3.935  0.4580 -0.7139  0.7770
 3089TIP3   OH230681   2.367   1.950   0.060 -0.3468  0.4207 -0.0980
 3089TIP3    H130682   2.430   1.976   0.128 -0.2547 -0.0774  0.0108
 3089TIP3    H230683   2.401   1.991  -0.020  0.3618 -0.1871 -0.1256
 3090TIP3   OH230684   1.476   3.206   0.813 -0.4000  0.0007  0.2831
 3090TIP3    H130685   1.535   3.181   0.742 -0.4492  0.5440  0.0437
 3090TIP3    H230686   1.456   3.298   0.796  1.1276  0.7354  2.0683
 3091TIP3   OH230687   4.447   2.449   1.536  0.2436 -0.1447  0.6502
 3091TIP3    H130688   4.445   2.537   1.573  0.6752 -0.3603  1.1920
 3091TIP3    H230689   4.537   2.419   1.550  0.4954 -0.1333 -0.8187
 3092TIP3   OH230690   0.919   2.122  12.073  0.5771 -0.0064 -0.0680
 3092TIP3    H130691   0.997   2.176  12.077 -0.2809  1.2441  2.9905
 3092TIP3    H230692   0.952   2.032  12.063  2.2283  0.6789 -1.1201
 3093TIP3   OH230693   1.971   1.130   2.575 -0.0566  0.0041  0.4821
 3093TIP3    H130694   2.062   1.112   2.599 -0.5494 -2.1899  0.9601
 3093TIP3    H230695   1.947   1.057   2.518 -0.9752  1.5739 -1.2461
 3094TIP3   OH230696   2.505   2.781   3.190  0.6953  0.5550 -0.0851
 3094TIP3    H130697   2.583   2.729   3.210  0.0545  0.0704  1.2840
 3094TIP3    H230698   2.528   2.829   3.111  1.3241 -1.7776 -1.4075
 3095TIP3   OH230699   3.035   2.445   1.634 -0.2003  0.2892  0.6249
 3095TIP3    H130700   3.081   2.365   1.610  1.7538  2.2385 -2.9294
 3095TIP3    H230701   2.970   2.457   1.564 -0.3426  1.8568  0.9902
 3096TIP3   OH230702   1.664   5.696  14.843  0.2316  0.2540  0.0502
 3096TIP3    H130703   1.611   5.727  14.769  0.9981  1.4906 -0.0109
 3096TIP3    H230704   1.633   5.607  14.859 -0.0877  0.0345 -1.6253
 3097TIP3   OH230705   3.199   2.965  16.310  0.3582 -0.3281 -0.2174
 3097TIP3    H130706   3.192   2.959  16.214  1.8243  0.9275 -0.4535
 3097TIP3    H230707   3.193   3.059  16.328 -1.0156 -0.6207  1.0640
 3098TIP3   OH230708   5.343   6.596  13.342  0.5668 -0.3298  0.1077
 3098TIP3    H130709   5.258   6.557  13.362  0.6793 -0.5546  0.1530
 3098TIP3    H230710   5.344   6.679  13.389  1.5962 -1.6835  2.6348
 3099TIP3   OH230711   4.280   4.931   4.788  0.2011 -0.8698  0.3158
 3099TIP3    H130712   4.186   4.913   4.791  0.2783 -1.5995 -0.7580
 3099TIP3    H230713   4.291   5.012   4.836 -1.0473 -0.5566  0.1006
 3100TIP3   OH230714   4.245   4.313  15.874  0.1385 -0.2681 -0.3628
 3100TIP3    H130715   4.256   4.248  15.943  0.9769 -0.9883 -1.1415
 3100TIP3    H230716   4.264   4.396  15.916 -1.5697 -0.4162  0.8129
 3101TIP3   OH230717   4.381   2.155  16.322 -0.1513 -0.0096 -0.1021
 3101TIP3    H130718   4.402   2.066  16.294 -1.0484 -0.5391  0.8461
 3101TIP3    H230719   4.373   2.149  16.417 -2.0956  0.6612 -0.1931
 3102TIP3   OH230720   0.262   5.729   3.229 -0.2622  0.5770 -0.1599
 3102TIP3    H130721   0.330   5.757   3.291 -1.8635  3.2400  0.5327
 3102TIP3    H230722   0.202   5.676   3.282  0.8945 -1.3729 -0.6687
 3103TIP3   OH230723   4.708   5.547  10.957  0.5089 -0.7783 -0.0081
 3103TIP3    H130724   4.712   5.615  10.890  0.9608  1.5636  2.2562
 3103TIP3    H230725   4.615   5.533  10.971  0.3968 -0.1374 -0.0693
 3104TIP3   OH230726   6.259   1.815   5.686  0.0726 -0.0051 -0.2926
 3104TIP3    H130727   6.336   1.850   5.731  0.1506 -0.3917 -0.1190
 3104TIP3    H230728   6.288   1.801   5.596  0.3267 -0.5188 -0.1359
 3105TIP3   OH230729   4.122   1.101   1.877  0.4005  0.1163 -0.4194
 3105TIP3    H130730   4.166   1.107   1.792 -1.3310 -1.3837 -1.4940
 3105TIP3    H230731   4.042   1.052   1.859  0.0805 -0.4397  2.1385
 3106TIP3   OH230732   5.415   4.570  15.862  0.7343  0.1837 -0.5360
 3106TIP3    H130733   5.360   4.585  15.785 -0.3586 -1.4645 -0.1473
 3106TIP3    H230734   5.435   4.657  15.896 -0.1029  0.8743 -1.7648
 3107TIP3   OH230735   3.711   6.162  16.596  0.4504  0.1975  0.3557
 3107TIP3    H130736   3.801   6.153  16.628  0.4488  0.6834  0.4962
 3107TIP3    H230737   3.682   6.071  16.583  0.7236  0.0116  0.9725
 3108TIP3   OH230738   0.022   6.423   3.969 -0.1427 -0.3328  0.2215
 3108TIP3    H130739  -0.036   6.427   3.893 -0.0995 -0.1400  0.1994
 3108TIP3    H230740  -0.015   6.485   4.032 -0.5370 -0.9476  0.6088
 3109TIP3   OH230741   6.423   6.132  12.470  0.3308  0.1709  0.2692
 3109TIP3    H130742   6.412   6.219  12.510 -0.2196  0.1806  0.1043
 3109TIP3    H230743   6.395   6.144  12.379 -2.9875 -0.9044  1.0012
 3110TIP3   OH230744   1.886   3.653  15.334 -0.1273  0.1043 -1.0302
 3110TIP3    H130745   1.949   3.690  15.272  0.7770 -0.4496 -0.4691
 3110TIP3    H230746   1.916   3.564  15.349 -0.7623 -0.0103 -0.3565
 3111TIP3   OH230747   3.315   6.153   5.874 -0.3846  0.2867 -0.6764
 3111TIP3    H130748   3.248   6.172   5.939  1.1268  0.4377  0.8999
 3111TIP3    H230749   3.320   6.233   5.821 -0.5626  0.7528  0.0051
 3112TIP3   OH230750   5.585   1.969  15.870 -0.2131  0.2070  0.1703
 3112TIP3    H130751   5.614   2.045  15.920 -0.2707  0.1606  0.2746
 3112TIP3    H230752   5.665   1.933  15.832 -0.2745  0.7782 -0.5309
 3113TIP3   OH230753   0.547   3.717  15.703 -0.4281 -0.0446 -0.4967
 3113TIP3    H130754   0.600   3.667  15.641  1.0118 -1.0907  1.4642
 3113TIP3    H230755   0.460   3.677  15.699  0.0917 -1.1947 -0.6395
 3114TIP3   OH230756   5.982   2.158  13.776  0.0665  0.9982  0.2763
 3114TIP3    H130757   6.078   2.166  13.776  0.1568  0.1914 -0.8460
 3114TIP3    H230758   5.962   2.119  13.861  0.9251 -0.4620 -0.1376
 3115TIP3   OH230759   0.841   5.049  12.062 -0.0052 -0.1233  0.2223
 3115TIP3    H130760   0.838   5.025  12.155  0.0146  0.3541  0.3502
 3115TIP3    H230761   0.898   5.126  12.059  1.1321 -0.9645 -0.3837
 3116TIP3   OH230762   1.124   0.540   5.286 -0.3391 -0.3188  0.8315
 3116TIP3    H130763   1.151   0.578   5.369  1.3116  1.2961 -0.3444
 3116TIP3    H230764   1.032   0.565   5.276  0.1561  1.7301  1.0272
 3117TIP3   OH230765   5.282   3.414   4.222  0.2628  0.5798 -0.4913
 3117TIP3    H130766   5.322   3.494   4.257  0.8365  0.6009 -1.1909
 3117TIP3    H230767   5.290   3.422   4.127  1.9761 -1.1360 -0.5350
 3118TIP3   OH230768   4.310   3.651  16.618 -0.1441 -0.0697 -0.5495
 3118TIP3    H130769   4.364   3.662  16.696 -0.4323  2.1729 -0.5730
 3118TIP3    H230770   4.236   3.711  16.632 -0.2840  0.2829 -2.4384
 3119TIP3   OH230771   3.714   3.297   4.899  0.4508  0.2061 -0.2026
 3119TIP3    H130772   3.797   3.253   4.918 -0.7321 -1.7818  0.7127
 3119TIP3    H230773   3.662   3.284   4.978 -0.7714  1.3787 -0.7793
 3120TIP3   OH230774   5.512   3.651  13.260 -0.4009 -0.6993  0.2192
 3120TIP3    H130775   5.544   3.632  13.172 -0.2852  1.8852 -0.3810
 3120TIP3    H230776   5.591   3.675  13.309 -0.1237 -4.1832  1.7674
 3121TIP3   OH230777   4.047   2.361   0.990 -0.0690  0.3910  0.5393
 3121TIP3    H130778   3.962   2.344   1.031  0.8297  1.7094  3.1733
 3121TIP3    H230779   4.102   2.287   1.016 -0.5440 -0.9380 -1.9173
 3122TIP3   OH230780   3.887   0.553   5.573  0.3269 -0.0781 -0.2402
 3122TIP3    H130781   3.928   0.539   5.659 -0.2671  3.6048  0.8147
 3122TIP3    H230782   3.957   0.587   5.518  0.6416 -2.1846 -1.2515
 3123TIP3   OH230783   5.840   5.098  13.528 -0.1329 -0.2684  0.1195
 3123TIP3    H130784   5.885   5.182  13.530  0.1684 -0.4297  0.2214
 3123TIP3    H230785   5.880   5.048  13.599  0.3244 -0.8196 -0.5102
 3124TIP3   OH230786   4.794   1.241   3.152  0.4932 -0.6026 -0.0761
 3124TIP3    H130787   4.756   1.297   3.219  0.3564  0.4276 -0.9766
 3124TIP3    H230788   4.735   1.250   3.077  1.1355 -0.9761 -0.6428
 3125TIP3   OH230789   1.197   0.508  14.007  0.1880 -0.2255  0.2451
 3125TIP3    H130790   1.291   0.523  14.015  0.3257 -0.5347 -0.6374
 3125TIP3    H230791   1.170   0.565  13.935 -0.4412  0.4109  0.9747
 3126TIP3   OH230792   0.312   5.050  17.218 -0.6960  0.4979 -0.0982
 3126TIP3    H130793   0.217   5.065  17.212 -0.9781 -0.6532  1.0746
 3126TIP3    H230794   0.321   4.984  17.287  0.9074 -0.0058 -0.7631
 3127TIP3   OH230795   0.725   6.456   5.758  0.3328 -0.6635 -0.7978
 3127TIP3    H130796   0.777   6.460   5.838  0.1924  1.2963 -0.7488
 3127TIP3    H230797   0.643   6.501   5.780 -0.0870 -0.9122 -1.7737
 3128TIP3   OH230798   0.805   6.327  11.814 -0.0185 -0.2018  0.2924
 3128TIP3    H130799   0.729   6.373  11.850  0.5967  0.2680  1.0227
 3128TIP3    H230800   0.880   6.373  11.852  0.6345 -0.4266 -0.7116
 3129TIP3   OH230801   4.149   6.549  15.382 -0.0435  0.0533 -0.8456
 3129TIP3    H130802   4.075   6.525  15.328 -3.1551 -0.5491  3.1826
 3129TIP3    H230803   4.189   6.465  15.407  0.8539  0.2693 -1.5277
 3130TIP3   OH230804   2.143   0.723   1.421 -0.2055  0.8920  0.0094
 3130TIP3    H130805   2.195   0.741   1.500  0.1614 -0.3044  0.0666
 3130TIP3    H230806   2.156   0.800   1.366  2.1683  0.4005 -0.2407
 3131TIP3   OH230807   3.300   6.026  13.655 -0.1169 -0.0605 -0.0177
 3131TIP3    H130808   3.261   6.009  13.569 -0.8490 -0.2254  0.3415
 3131TIP3    H230809   3.353   5.948  13.673 -0.8287 -0.5128  0.1544
 3132TIP3   OH230810   6.214   5.498   1.106  0.0208  0.5746 -0.4627
 3132TIP3    H130811   6.194   5.487   1.013 -0.3178 -0.8878 -0.2342
 3132TIP3    H230812   6.256   5.584   1.111  0.8620  0.2960 -2.1012
 3133TIP3   OH230813   5.431   5.895  10.637 -0.0302 -0.6945  0.2964
 3133TIP3    H130814   5.355   5.950  10.656  0.2123 -0.3022  0.1455
 3133TIP3    H230815   5.504   5.937  10.682  0.3438 -0.3401 -0.6023
 3134TIP3   OH230816   1.263   5.450  15.365 -0.2576  0.1978  0.0622
 3134TIP3    H130817   1.299   5.425  15.280 -1.2033 -2.0638  0.2384
 3134TIP3    H230818   1.250   5.544  15.360  2.3512  0.5702 -1.2456
 3135TIP3   OH230819   3.129   3.435   5.606  0.7504 -0.5330 -0.4320
 3135TIP3    H130820   3.078   3.431   5.687 -0.1313  1.0014 -0.8831
 3135TIP3    H230821   3.185   3.512   5.617  4.0525 -2.8426  0.6031
 3136TIP3   OH230822   4.038   1.003   3.000  0.4203 -0.2686 -0.2464
 3136TIP3    H130823   3.994   1.001   2.915  2.0735 -2.1727 -1.1247
 3136TIP3    H230824   4.032   0.913   3.032  1.1916  0.0753  0.9146
 3137TIP3   OH230825   5.742   4.603   4.161 -0.4273 -0.3488  0.1374
 3137TIP3    H130826   5.717   4.663   4.091 -1.4563  2.2180  2.5127
 3137TIP3    H230827   5.660   4.565   4.192 -0.1957 -0.1686  1.0155
 3138TIP3   OH230828   3.750   5.346  17.441  0.1844 -0.0507  0.2415
 3138TIP3    H130829   3.735   5.438  17.465  2.1547  0.0233  1.4175
 3138TIP3    H230830   3.675   5.300  17.478 -0.9464  1.0940 -0.5466
 3139TIP3   OH230831   6.129   1.968   2.284 -0.0896 -0.3453  0.0887
 3139TIP3    H130832   6.081   2.002   2.209  2.1864  0.4289 -1.1206
 3139TIP3    H230833   6.062   1.956   2.352 -1.6319  3.0684 -0.6154
 3140TIP3   OH230834   1.439   3.582  15.521 -0.1279 -0.0412  0.4026
 3140TIP3    H130835   1.491   3.579  15.441 -0.9072  2.4926 -0.2750
 3140TIP3    H230836   1.503   3.574  15.592  1.0781  1.6811 -0.4299
 3141TIP3   OH230837   4.834   6.247   5.492  0.6670 -0.1158 -1.1277
 3141TIP3    H130838   4.775   6.171   5.483 -0.0224 -0.0754  1.7990
 3141TIP3    H230839   4.774   6.322   5.498  1.2365  0.4029 -1.8973
 3142TIP3   OH230840   3.446   6.445  11.948  0.0180 -0.4309 -0.4016
 3142TIP3    H130841   3.502   6.449  11.871 -1.1252  2.6692 -1.2210
 3142TIP3    H230842   3.506   6.454  12.022  0.8251  1.0305 -1.1899
 3143TIP3   OH230843   5.644   6.301   6.116  0.0373 -0.0909 -0.4531
 3143TIP3    H130844   5.571   6.358   6.094 -1.3577  0.1324  3.7899
 3143TIP3    H230845   5.718   6.361   6.129  0.6310 -0.1479 -3.0712
 3144TIP3   OH230846   5.950   5.104  17.114  0.4431 -0.5727 -0.3795
 3144TIP3    H130847   5.908   5.079  17.196  1.1707 -0.9213 -0.1060
 3144TIP3    H230848   6.043   5.086  17.128  0.8217  0.9857 -0.6671
 3145TIP3   OH230849   4.248   5.557  11.786 -0.2180  0.5171 -0.0238
 3145TIP3    H130850   4.155   5.548  11.808 -0.6525  1.3763 -1.4021
 3145TIP3    H230851   4.272   5.643  11.820  0.0114  0.4016  0.1087
 3146TIP3   OH230852   2.156   5.425  11.407  0.5884 -0.1842  0.4349
 3146TIP3    H130853   2.133   5.346  11.455 -0.2459 -0.1007  0.1901
 3146TIP3    H230854   2.243   5.407  11.371  1.7181  0.1562  2.8240
 3147TIP3   OH230855   0.618   1.866   0.103 -0.2471 -0.3805 -0.0657
 3147TIP3    H130856   0.577   1.779   0.109 -2.5250  0.4267 -2.1124
 3147TIP3    H230857   0.575   1.917   0.171 -1.2915 -0.0565 -0.9402
 3148TIP3   OH230858   4.007   1.040   3.275  0.3036 -0.1289  0.5041
 3148TIP3    H130859   3.912   1.045   3.273  0.3228  0.2132 -0.5744
 3148TIP3    H230860   4.031   1.016   3.185  1.1934 -1.2070  1.0005
 3149TIP3   OH230861   0.151   0.008  12.110  0.0251  0.6447  0.3098
 3149TIP3    H130862   0.230  -0.035  12.078 -0.7251 -0.0539 -0.6705
 3149TIP3    H230863   0.168   0.024  12.203  0.3318 -1.8245  0.7464
 3150TIP3   OH230864   4.453   0.896   1.282 -0.0338  0.8492 -0.3068
 3150TIP3    H130865   4.453   0.984   1.320 -2.3227  0.6095  0.4017
 3150TIP3    H230866   4.385   0.849   1.331  1.5401 -1.5094 -0.2538
 3151TIP3   OH230867   0.469   5.548  10.759  0.6592 -0.6072 -0.3552
 3151TIP3    H130868   0.398   5.484  10.770  0.5314 -0.3504  0.3512
 3151TIP3    H230869   0.549   5.497  10.769  0.5715 -0.7884 -0.5531
 3152TIP3   OH230870   6.688   5.932  17.184 -0.0720 -0.1687  0.7394
 3152TIP3    H130871   6.665   5.839  17.192 -0.6873 -0.1631 -0.6413
 3152TIP3    H230872   6.768   5.932  17.130 -0.1020  0.1019  0.6926
 3153TIP3   OH230873   0.241   2.068  16.191 -0.0131  0.7934 -0.3531
 3153TIP3    H130874   0.183   2.105  16.257 -0.0937  0.2334 -0.1128
 3153TIP3    H230875   0.318   2.125  16.193  0.5275  0.0401  1.1174
 3154TIP3   OH230876   6.436   2.280  12.819  0.4093  0.1658  0.2946
 3154TIP3    H130877   6.459   2.366  12.855 -0.0155  1.2280 -1.8197
 3154TIP3    H230878   6.341   2.283  12.809  0.4902 -0.1921 -0.6349
 3155TIP3   OH230879   4.367   2.368   3.686  0.1945 -0.0062  0.8457
 3155TIP3    H130880   4.333   2.325   3.607  2.0426 -0.9285  0.4865
 3155TIP3    H230881   4.441   2.313   3.712 -0.9880 -0.3268  3.8803
 3156TIP3   OH230882   5.421   5.290  13.978 -0.2255  0.1253  0.5743
 3156TIP3    H130883   5.373   5.306  14.059 -0.3288  0.1828  0.5015
 3156TIP3    H230884   5.496   5.350  13.982 -0.1269 -0.0071  0.7147
 3157TIP3   OH230885   4.796   5.130  13.486 -0.4564 -0.2557 -0.1494
 3157TIP3    H130886   4.854   5.109  13.412 -0.7190  0.5996 -0.6121
 3157TIP3    H230887   4.783   5.046  13.530  1.3716 -0.4360  0.1439
 3158TIP3   OH230888   0.102   0.793   0.748 -0.7344  0.4686 -0.0465
 3158TIP3    H130889   0.074   0.862   0.809 -0.9828  1.2858 -1.0648
 3158TIP3    H230890   0.128   0.840   0.669  0.3200 -0.5265 -0.3129
 3159TIP3   OH230891   4.007   2.673   1.902 -0.0718  0.2430  0.1549
 3159TIP3    H130892   3.946   2.601   1.889 -0.9161  1.1052 -0.9053
 3159TIP3    H230893   4.059   2.676   1.822  0.8364  0.0282  0.7172
 3160TIP3   OH230894   6.529   1.134   4.557  0.2345  0.1137  0.0433
 3160TIP3    H130895   6.462   1.086   4.606  0.3592 -0.7907 -0.6546
 3160TIP3    H230896   6.608   1.081   4.565  1.4052  1.9694  2.2719
 3161TIP3   OH230897   0.468   5.113   1.053  0.5933 -0.1779  0.2501
 3161TIP3    H130898   0.438   5.041   1.108 -0.9576 -1.4927 -2.1648
 3161TIP3    H230899   0.550   5.141   1.094  0.3855 -2.1569  2.2261
 3162TIP3   OH230900   0.685   3.141  14.353  0.2109 -0.1246  0.0302
 3162TIP3    H130901   0.612   3.199  14.374 -0.6666 -1.1748 -0.0358
 3162TIP3    H230902   0.667   3.061  14.403  0.4438 -1.0050 -1.2628
 3163TIP3   OH230903   2.011   4.957   4.178 -0.3860  0.5675  0.2658
 3163TIP3    H130904   2.022   4.932   4.269  1.1575  0.3157  0.0387
 3163TIP3    H230905   2.096   4.991   4.152 -0.0894 -1.4008 -1.6865
 3164TIP3   OH230906   4.425   3.942   5.040  0.4778  0.2346  0.2158
 3164TIP3    H130907   4.344   3.964   4.994 -0.6204 -0.9337  1.5303
 3164TIP3    H230908   4.465   3.874   4.986  0.8711  1.1452 -0.6897
 3165TIP3   OH230909   5.775   4.373   6.180 -0.1145 -0.0806 -0.0328
 3165TIP3    H130910   5.741   4.336   6.262 -0.7541 -1.7231 -0.9900
 3165TIP3    H230911   5.853   4.321   6.161 -0.2193 -0.0059 -0.6841
 3166TIP3   OH230912   1.461   2.632  14.957 -0.7400 -0.2852  0.4543
 3166TIP3    H130913   1.442   2.672  15.042 -0.7439 -1.9482  1.2721
 3166TIP3    H230914   1.375   2.618  14.917 -0.9347 -1.8336  1.3249
 3167TIP3   OH230915   0.830   1.964  15.619 -0.5109  0.1132 -0.0822
 3167TIP3    H130916   0.857   2.056  15.616 -0.4085  0.0827 -0.1254
 3167TIP3    H230917   0.912   1.915  15.608 -0.5664  0.0174 -0.0695
 3168TIP3   OH230918   6.485   1.931  14.254  0.4224  0.8035  0.0492
 3168TIP3    H130919   6.576   1.958  14.239 -0.4626  3.9465 -0.3927
 3168TIP3    H230920   6.447   2.003  14.304 -1.9874 -0.1452 -0.2906
 3169TIP3   OH230921   0.493   2.075  17.258  0.0459  0.2097 -0.8245
 3169TIP3    H130922   0.464   1.984  17.260 -1.4379  0.6675  0.5152
 3169TIP3    H230923   0.562   2.077  17.192  1.6242 -2.3113  0.5816
 3170TIP3   OH230924   5.379   5.135   1.609 -0.3719 -0.0040  0.6652
 3170TIP3    H130925   5.401   5.191   1.684 -0.6992  1.4842 -0.3076
 3170TIP3    H230926   5.440   5.161   1.541 -0.8983 -0.4622  0.0088
 3171TIP3   OH230927   2.470   3.743  15.544 -0.1484 -0.5104  0.3016
 3171TIP3    H130928   2.519   3.702  15.615  0.6492 -1.1531 -0.5983
 3171TIP3    H230929   2.412   3.674  15.512  1.6502 -1.1931 -1.6391
 3172TIP3   OH230930   6.062   3.736  14.624 -0.0735 -0.0997 -0.3724
 3172TIP3    H130931   6.047   3.776  14.538 -1.0848  0.7181  0.1634
 3172TIP3    H230932   6.099   3.649  14.604 -2.1794 -0.7572 -1.7203
 3173TIP3   OH230933   5.396   0.741   5.011 -0.4974 -0.7996  0.8396
 3173TIP3    H130934   5.315   0.691   4.999  0.1655 -1.7545  0.1761
 3173TIP3    H230935   5.390   0.775   5.100 -2.2128  0.2474  0.3753
 3174TIP3   OH230936   2.397   0.693   4.898 -0.9422 -0.2636 -0.1554
 3174TIP3    H130937   2.368   0.649   4.819  1.1233 -0.1479 -1.0564
 3174TIP3    H230938   2.370   0.784   4.886 -1.3992 -0.4240 -0.3321
 3175TIP3   OH230939   4.590   5.130   5.709  0.2021  0.3246 -0.5375
 3175TIP3    H130940   4.519   5.168   5.658 -0.4255 -0.3093 -0.1512
 3175TIP3    H230941   4.591   5.038   5.683  1.7586  0.5860 -1.5333
 3176TIP3   OH230942   3.036   2.278   2.994 -0.1405 -0.6003 -0.5215
 3176TIP3    H130943   2.956   2.251   2.950 -0.7061 -2.7321  1.6425
 3176TIP3    H230944   3.101   2.211   2.971  0.5780  0.2049 -0.9125
 3177TIP3   OH230945   5.002   6.328   2.636  0.1254  0.1634 -0.0157
 3177TIP3    H130946   5.094   6.309   2.620  1.0771  2.2960  2.3754
 3177TIP3    H230947   4.988   6.415   2.598 -1.1664 -0.4375 -1.0278
 3178TIP3   OH230948   6.615   0.991  13.565 -0.0053 -0.2424 -0.4180
 3178TIP3    H130949   6.546   0.972  13.628  0.8312 -2.0828  0.0157
 3178TIP3    H230950   6.579   1.060  13.510 -2.2958 -1.3059 -0.3597
 3179TIP3   OH230951   4.398   4.097   3.819 -0.1376 -0.1160  0.6458
 3179TIP3    H130952   4.307   4.084   3.846 -0.7920  3.6425  0.7945
 3179TIP3    H230953   4.401   4.068   3.728 -1.4891 -0.2952  0.6404
 3180TIP3   OH230954   2.760   5.426  16.744  0.1761 -0.0215  0.0790
 3180TIP3    H130955   2.756   5.389  16.655  2.1051  2.1433 -1.0184
 3180TIP3    H230956   2.822   5.370  16.790  0.6128 -0.0803 -0.5567
 3181TIP3   OH230957   3.491   6.483   4.960  0.1867 -0.1246  0.6814
 3181TIP3    H130958   3.444   6.495   4.877 -0.5293  0.6370  1.1751
 3181TIP3    H230959   3.583   6.472   4.935 -0.1417 -0.8554 -0.2611
 3182TIP3   OH230960   0.166   2.331   0.561 -0.0037  0.1089  0.2215
 3182TIP3    H130961   0.097   2.396   0.569 -0.6118 -0.5424  0.3217
 3182TIP3    H230962   0.247   2.380   0.579 -0.2016  1.3263 -1.8893
 3183TIP3   OH230963   3.633   3.144   3.072 -0.0444 -0.9476  0.1005
 3183TIP3    H130964   3.570   3.122   3.004 -0.3250  0.3287 -0.0777
 3183TIP3    H230965   3.639   3.239   3.070  1.3662 -0.9972  0.5953
 3184TIP3   OH230966   1.224   0.384  12.848  0.0092  0.4633  0.5230
 3184TIP3    H130967   1.148   0.439  12.829  0.8341  1.2334 -0.6965
 3184TIP3    H230968   1.187   0.298  12.869 -1.1863  0.7594 -0.2641
 3185TIP3   OH230969   4.790   2.444   6.548 -0.1441 -0.2929 -0.2995
 3185TIP3    H130970   4.752   2.507   6.608 -0.0672 -1.1179  0.6498
 3185TIP3    H230971   4.813   2.369   6.603  1.5238 -0.4031 -1.0539
 3186TIP3   OH230972   1.922   6.570   2.850  0.4841  0.1974  0.9690
 3186TIP3    H130973   1.998   6.560   2.907 -0.3586 -1.4807  1.8856
 3186TIP3    H230974   1.847   6.572   2.910 -0.3394 -0.2983 -0.0068
 3187TIP3   OH230975   1.064   1.003  14.065 -0.9113  0.2868 -0.3752
 3187TIP3    H130976   1.059   0.921  14.016  1.5371 -1.4568  1.9551
 3187TIP3    H230977   0.974   1.022  14.090 -1.4006 -2.8508  0.6375
 3188TIP3   OH230978   4.501   0.337   5.907 -0.5451 -0.3776 -0.5203
 3188TIP3    H130979   4.475   0.257   5.952  1.8031 -1.8407 -1.5664
 3188TIP3    H230980   4.583   0.315   5.864  0.4800  2.7543 -0.4679
 3189TIP3   OH230981   6.536   5.290   4.591  0.0260 -0.3065 -0.2606
 3189TIP3    H130982   6.545   5.204   4.549 -0.1462  0.8755 -2.8971
 3189TIP3    H230983   6.442   5.308   4.589  0.1038  0.1290 -0.1280
 3190TIP3   OH230984   4.359   0.936  16.787 -0.1434  0.0911  0.1965
 3190TIP3    H130985   4.449   0.945  16.755  0.3527  1.0606  1.7014
 3190TIP3    H230986   4.367   0.878  16.863 -0.9938 -0.7860 -0.3719
 3191TIP3   OH230987   1.054   2.487  14.203 -0.4291 -0.1339 -0.2325
 3191TIP3    H130988   1.091   2.575  14.210 -1.2772  0.2517 -0.3822
 3191TIP3    H230989   1.053   2.469  14.109  0.0464 -0.4438 -0.1807
 3192TIP3   OH230990   5.975   2.728   5.280 -0.3184  0.6029 -0.0915
 3192TIP3    H130991   5.909   2.767   5.337 -1.3774  0.4810 -1.2157
 3192TIP3    H230992   6.056   2.773   5.305 -1.2431  2.5616 -0.3709
 3193TIP3   OH230993   0.679   2.653   1.781  0.0092 -0.5550 -0.1188
 3193TIP3    H130994   0.703   2.741   1.750 -0.5778 -0.8587 -1.5043
 3193TIP3    H230995   0.589   2.641   1.752 -0.0914 -1.4261  0.5123
 3194TIP3   OH230996   5.653   5.157   0.462  0.1683  0.2690  0.1168
 3194TIP3    H130997   5.715   5.144   0.534  0.3122  0.6206  0.0553
 3194TIP3    H230998   5.684   5.235   0.417 -0.2226  0.3476 -0.0196
 3195TIP3   OH230999   1.732   4.575   5.313  0.4413 -0.0013  0.0821
 3195TIP3    H131000   1.652   4.595   5.362 -0.5206 -1.6160 -0.7443
 3195TIP3    H231001   1.722   4.483   5.287  1.5449  0.3944 -1.9424
 3196TIP3   OH231002   1.853   6.334  12.180 -0.4111  0.2029 -0.1905
 3196TIP3    H131003   1.848   6.245  12.214  0.8467  0.1063 -0.2250
 3196TIP3    H231004   1.848   6.325  12.085 -2.6554  0.3804 -0.1551
 3197TIP3   OH231005   2.114   6.118   5.015  0.3672  0.4699 -0.0841
 3197TIP3    H131006   2.184   6.183   5.016  0.5594  0.3330  2.7624
 3197TIP3    H231007   2.059   6.144   4.942  2.9517  0.9906 -2.0125
 3198TIP3   OH231008   5.522   0.137  15.779  0.3465  0.0160  0.3192
 3198TIP3    H131009   5.500   0.061  15.725 -1.0527  0.5843  0.0606
 3198TIP3    H231010   5.608   0.164  15.748  0.0625 -0.3617 -0.8356
 3199TIP3   OH231011   5.495   3.012  16.675 -0.1355 -0.5217  0.0422
 3199TIP3    H131012   5.406   2.993  16.646 -0.1678  2.1515 -1.9382
 3199TIP3    H231013   5.525   3.083  16.618  2.4681  0.2063  2.1014
 3200TIP3   OH231014   1.577   6.385   3.393 -0.4037  0.8903 -0.0086
 3200TIP3    H131015   1.645   6.344   3.446  0.0018  1.3555 -0.1648
 3200TIP3    H231016   1.518   6.424   3.456 -1.5514 -1.0541  0.2132
 3201TIP3   OH231017   2.849   3.897  12.775 -0.0511 -0.3822 -0.2992
 3201TIP3    H131018   2.839   3.965  12.708  2.5132  0.2803 -0.1136
 3201TIP3    H231019   2.873   3.818  12.727 -0.4875 -0.5101 -0.3137
 3202TIP3   OH231020   2.736   6.538  16.684  0.2111  0.0220 -0.0113
 3202TIP3    H131021   2.795   6.599  16.641  0.9988 -1.4592 -1.1372
 3202TIP3    H231022   2.661   6.591  16.711  1.6182  1.7718  0.6101
 3203TIP3   OH231023   5.877   1.129   0.203 -0.5000  0.3096 -0.1034
 3203TIP3    H131024   5.812   1.199   0.206 -0.2712  0.5730 -1.1138
 3203TIP3    H231025   5.932   1.144   0.280 -0.7190  0.9798 -0.0703
 3204TIP3   OH231026   2.710   5.112   2.303  0.1496 -0.4802  0.5465
 3204TIP3    H131027   2.711   5.051   2.377  3.1308  0.5039  1.4728
 3204TIP3    H231028   2.758   5.066   2.233 -0.5676 -0.4823  0.0447
 3205TIP3   OH231029   2.359   0.838   3.878  0.5710 -0.0934  0.0190
 3205TIP3    H131030   2.270   0.835   3.843  0.6830  2.5962 -0.7603
 3205TIP3    H231031   2.408   0.775   3.826 -0.8451 -1.7041  0.5280
 3206TIP3   OH231032   1.112   5.918   4.652  0.3278  0.1601  0.0919
 3206TIP3    H131033   1.164   5.995   4.677  1.5919 -0.9099  0.8778
 3206TIP3    H231034   1.111   5.864   4.731 -1.6591 -0.0571 -0.0386
 3207TIP3   OH231035   2.195   5.790  15.842  0.3220  0.1380 -0.0270
 3207TIP3    H131036   2.208   5.878  15.877 -0.8034  0.9690 -1.5693
 3207TIP3    H231037   2.272   5.774  15.788  0.2540  0.4273 -0.2153
 3208TIP3   OH231038   4.392   0.800   2.947  0.2423  1.0751  0.4830
 3208TIP3    H131039   4.366   0.710   2.965 -1.0282  1.2870 -0.2129
 3208TIP3    H231040   4.482   0.805   2.979  1.0610 -1.0058 -1.2226
 3209TIP3   OH231041   0.223   0.258  16.123 -0.0942  0.0187  0.1052
 3209TIP3    H131042   0.253   0.229  16.209 -1.3920  0.1202  0.6196
 3209TIP3    H231043   0.129   0.239  16.123  0.0300 -0.7800 -1.6270
 3210TIP3   OH231044   5.894   4.379   4.106 -0.6907 -0.5971  0.0367
 3210TIP3    H131045   5.871   4.319   4.176  0.2636  0.6895  1.5011
 3210TIP3    H231046   5.829   4.449   4.111 -1.5504 -1.2309 -1.4008
 3211TIP3   OH231047   4.282   6.738  16.093 -0.4939 -0.1854 -0.2677
 3211TIP3    H131048   4.312   6.683  16.021 -0.2250  0.5526 -0.7265
 3211TIP3    H231049   4.360   6.787  16.120 -1.2908  1.9444 -1.6399
 3212TIP3   OH231050   6.221   2.811   2.922  0.0348 -0.2388  0.2144
 3212TIP3    H131051   6.259   2.894   2.949  0.8257 -0.2825 -0.7108
 3212TIP3    H231052   6.209   2.819   2.827 -0.0177 -1.1155  0.1323
 3213TIP3   OH231053   2.802   5.168  11.364  0.2235 -0.1678 -0.3939
 3213TIP3    H131054   2.755   5.098  11.317 -1.2409 -0.2618  1.1363
 3213TIP3    H231055   2.760   5.249  11.334 -0.3927 -0.1953  0.3831
 3214TIP3   OH231056   2.456   0.575   4.023 -0.4362 -0.1884  0.0132
 3214TIP3    H131057   2.367   0.606   4.008 -0.2614 -0.3130 -1.3626
 3214TIP3    H231058   2.506   0.606   3.947  0.9607  0.8515  1.2869
 3215TIP3   OH231059   1.533   5.612   1.086  0.3522  0.3075  0.1041
 3215TIP3    H131060   1.478   5.533   1.086  0.4229  0.2563 -0.2928
 3215TIP3    H231061   1.613   5.585   1.040  0.8323  0.2953  0.9323
 3216TIP3   OH231062   5.027   4.072  12.731  0.0785 -0.1462 -0.5136
 3216TIP3    H131063   4.988   4.150  12.770 -0.8285 -1.3231  1.0285
 3216TIP3    H231064   4.962   4.003  12.745  1.5584 -1.5586 -0.3189
 3217TIP3   OH231065   0.869   5.306  11.875  0.4494  0.1828  0.2514
 3217TIP3    H131066   0.956   5.265  11.870  0.0938 -0.5277 -0.3489
 3217TIP3    H231067   0.812   5.246  11.827 -0.7052 -0.2248  2.0616
 3218TIP3   OH231068   2.729   0.830   2.951 -0.0396  0.1503  0.1582
 3218TIP3    H131069   2.788   0.903   2.933  0.6139 -0.5261 -0.5047
 3218TIP3    H231070   2.784   0.764   2.992 -0.4620 -0.2563  0.0822
 3219TIP3   OH231071   2.505   6.383  15.756 -0.6449  0.1300 -0.0372
 3219TIP3    H131072   2.422   6.356  15.716 -1.8227  1.5148  1.3585
 3219TIP3    H231073   2.481   6.456  15.813  1.4149  0.0251  1.0355
 3220TIP3   OH231074   4.336   0.674  14.350  0.6780 -0.2945  0.4064
 3220TIP3    H131075   4.295   0.729  14.283  0.4607 -1.2303 -0.2567
 3220TIP3    H231076   4.376   0.602  14.300 -0.7159 -1.8094  1.3529
 3221TIP3   OH231077   5.285   1.962  11.706  0.0233  0.2777 -0.1958
 3221TIP3    H131078   5.257   2.017  11.632 -1.3770 -0.2290 -0.0902
 3221TIP3    H231079   5.241   2.001  11.782 -1.4111 -1.2146 -0.1938
 3222TIP3   OH231080   5.471   1.985   0.739  0.3456 -0.1377  0.7336
 3222TIP3    H131081   5.475   1.902   0.691 -2.6529 -0.2705  0.5080
 3222TIP3    H231082   5.524   1.970   0.818  1.1279 -1.7005 -0.0425
 3223TIP3   OH231083   3.170   6.501   3.059 -0.0792 -0.0761  0.1293
 3223TIP3    H131084   3.100   6.547   3.013 -0.3372 -0.3917  0.2019
 3223TIP3    H231085   3.154   6.520   3.152  1.0249  1.3867  0.0474
 3224TIP3   OH231086   3.509   5.395  11.619 -0.6380  0.1302 -0.2029
 3224TIP3    H131087   3.537   5.343  11.695 -1.7875 -1.5643 -0.8596
 3224TIP3    H231088   3.589   5.412  11.571 -0.0905 -0.0955  0.6090
 3225TIP3   OH231089   5.452   0.316  12.456 -0.1817  0.1139 -0.5720
 3225TIP3    H131090   5.366   0.277  12.467  0.0277  0.1007  1.4296
 3225TIP3    H231091   5.514   0.244  12.466  0.0981  0.1258 -1.9709
 3226TIP3   OH231092   4.722   0.331  14.544  0.0403 -0.4620 -0.3729
 3226TIP3    H131093   4.651   0.369  14.595 -1.5094 -0.1963 -2.5662
 3226TIP3    H231094   4.730   0.241  14.577 -1.1516 -0.4167  0.0925
 3227TIP3   OH231095   2.298   6.499   0.395 -0.0951 -0.1918  0.3636
 3227TIP3    H131096   2.330   6.462   0.478  0.4786 -0.8749 -0.1498
 3227TIP3    H231097   2.214   6.457   0.381 -0.8396  0.9336  1.2652
 3228TIP3   OH231098   4.826   2.806   2.670 -0.3935  0.0284  0.2145
 3228TIP3    H131099   4.868   2.851   2.596  2.2027 -1.1323  0.8505
 3228TIP3    H231100   4.825   2.871   2.740  1.9025 -0.3254  0.6539
 3229TIP3   OH231101   2.260   6.411  15.427 -0.1774 -0.1765  0.8144
 3229TIP3    H131102   2.301   6.327  15.450  1.4397  0.4173  0.2514
 3229TIP3    H231103   2.217   6.394  15.343 -0.2402 -0.5598  0.9223
 3230TIP3   OH231104   1.621   2.005   4.053 -0.4244  0.4813  0.6187
 3230TIP3    H131105   1.561   1.946   4.101 -1.8408 -0.0955 -1.7023
 3230TIP3    H231106   1.634   2.079   4.112 -1.8086 -0.3326  2.0252
 3231TIP3   OH231107   1.998   2.531   5.711 -0.4372 -0.4282  0.9320
 3231TIP3    H131108   1.925   2.579   5.750 -0.8946  0.5322 -0.9488
 3231TIP3    H231109   1.957   2.460   5.662  0.0643 -1.1204  1.4832
 3232TIP3   OH231110   1.460   4.909   5.758  0.3268 -0.0568 -0.4410
 3232TIP3    H131111   1.448   4.912   5.663  1.2299  0.0969 -0.5595
 3232TIP3    H231112   1.379   4.945   5.793  0.9115  2.2174 -1.2328
 3233TIP3   OH231113   6.724   0.176   6.247  0.1227  0.2375 -0.2145
 3233TIP3    H131114   6.714   0.156   6.154 -1.2256 -0.4256  0.0440
 3233TIP3    H231115   6.641   0.215   6.272  0.8635  1.4316  0.4902
 3234TIP3   OH231116   2.308   4.307   0.414  0.4666  0.8516  0.5962
 3234TIP3    H131117   2.355   4.246   0.357  1.5048 -1.1530  3.3878
 3234TIP3    H231118   2.368   4.380   0.426  0.9320  0.4996  0.4436
 3235TIP3   OH231119   6.314   2.211   3.904  0.0852  0.3853 -0.8832
 3235TIP3    H131120   6.264   2.213   3.823 -0.8024 -2.5609 -0.5078
 3235TIP3    H231121   6.312   2.120   3.933  1.4515  1.0686  1.8065
 3236TIP3   OH231122   3.705   3.799  13.924 -0.1964  0.2754 -0.4893
 3236TIP3    H131123   3.770   3.734  13.951 -1.4536 -0.0986  1.9514
 3236TIP3    H231124   3.732   3.879  13.970 -3.0071 -0.6449  3.2325
 3237TIP3   OH231125   6.385   0.461  15.944 -0.4921 -0.2788  0.0539
 3237TIP3    H131126   6.468   0.489  15.905 -0.9845 -0.1703 -0.9556
 3237TIP3    H231127   6.383   0.505  16.029  0.1125  0.3850 -0.2603
 3238TIP3   OH231128   3.202   5.523   5.468 -0.2333 -0.3636  0.2213
 3238TIP3    H131129   3.120   5.521   5.517 -0.1806 -0.3539  0.3094
 3238TIP3    H231130   3.208   5.435   5.428 -0.1711 -0.4412  0.4023
 3239TIP3   OH231131   6.444   5.336  13.281 -0.0910 -0.2696  0.3772
 3239TIP3    H131132   6.520   5.393  13.271  0.4866 -1.1922 -0.6636
 3239TIP3    H231133   6.480   5.251  13.306 -0.9378 -0.2278  1.8644
 3240TIP3   OH231134   6.388   4.679   4.908  0.1144  0.0998 -0.5987
 3240TIP3    H131135   6.367   4.769   4.885  0.8034  0.5636  0.5510
 3240TIP3    H231136   6.337   4.661   4.987 -2.0033 -1.3855 -2.1784
 3241TIP3   OH231137   3.240   6.059   3.062 -0.6332  0.1741 -0.4535
 3241TIP3    H131138   3.280   6.008   3.133  0.4324  2.0218  0.3489
 3241TIP3    H231139   3.149   6.069   3.089 -0.8463 -1.1639 -0.5790
 3242TIP3   OH231140   3.347   6.569  16.685  0.0495 -0.3742  0.4423
 3242TIP3    H131141   3.315   6.610  16.605 -0.3815  0.6163  1.1104
 3242TIP3    H231142   3.367   6.479  16.659  0.2662  0.0298 -0.8625
 3243TIP3   OH231143   5.979   3.993  12.753  0.7127  0.1546  0.2920
 3243TIP3    H131144   6.074   4.008  12.758  0.8698 -0.9877  1.3002
 3243TIP3    H231145   5.940   4.072  12.791  1.2393  0.7034 -0.2804
 3244TIP3   OH231146   1.460   0.076  15.453 -0.1335  0.3105  0.1932
 3244TIP3    H131147   1.533   0.092  15.394 -0.0895 -1.9479 -0.4787
 3244TIP3    H231148   1.426  -0.010  15.426 -1.8578  0.4600  1.6861
 3245TIP3   OH231149   4.329   1.446  12.683 -0.1510  0.5581 -0.1884
 3245TIP3    H131150   4.399   1.412  12.627 -0.4109 -1.0334  0.3772
 3245TIP3    H231151   4.351   1.538  12.696  0.1044  0.8933 -2.5700
 3246TIP3   OH231152   4.172   5.156  13.247  0.2358  0.1356 -0.1514
 3246TIP3    H131153   4.174   5.250  13.263 -0.3312  0.4837 -1.8966
 3246TIP3    H231154   4.085   5.140  13.210  0.9536 -0.7538 -1.5430
 3247TIP3   OH231155   1.880   4.335   0.916 -0.2230  0.0771 -0.0921
 3247TIP3    H131156   1.929   4.271   0.864  0.3940  0.2979  0.2081
 3247TIP3    H231157   1.848   4.398   0.852  1.9422  1.2911 -0.0901
 3248TIP3   OH231158   5.214   0.527  17.335 -0.3774  0.1317 -0.1696
 3248TIP3    H131159   5.150   0.456  17.341 -0.2351  0.0737  0.7753
 3248TIP3    H231160   5.295   0.483  17.308 -0.0287 -0.2529  1.3882
 3249TIP3   OH231161   2.507   6.392   0.225  0.3191 -0.1667 -0.0649
 3249TIP3    H131162   2.549   6.457   0.169 -1.5127 -0.8925 -2.4453
 3249TIP3    H231163   2.435   6.439   0.268 -0.3468 -0.3436 -0.9623
 3250TIP3   OH231164   5.807   1.446   3.372  0.0149  0.1201 -0.7459
 3250TIP3    H131165   5.886   1.498   3.360  0.7592 -1.1481 -1.6411
 3250TIP3    H231166   5.767   1.480   3.452  2.7453 -0.7845  1.1536
 3251TIP3   OH231167   2.465   5.270  11.111 -0.1117 -0.2560  0.3848
 3251TIP3    H131168   2.429   5.230  11.032  2.7022 -0.0933 -1.1016
 3251TIP3    H231169   2.466   5.364  11.093 -0.2204 -0.1323  0.9823
 3252TIP3   OH231170   4.206   2.678  11.243  0.1184  0.4901  0.4308
 3252TIP3    H131171   4.142   2.615  11.276 -0.1489  0.8790  0.6571
 3252TIP3    H231172   4.156   2.757  11.224 -0.0013 -0.1364 -2.2854
 3253TIP3   OH231173   2.163   1.957  16.660 -0.1364 -0.8292 -0.2273
 3253TIP3    H131174   2.156   1.917  16.573  1.0809  0.6689 -1.0722
 3253TIP3    H231175   2.257   1.965  16.675 -0.3429 -0.8466  1.1308
 3254TIP3   OH231176   2.798   3.864   0.713 -0.0976 -0.2889  0.3216
 3254TIP3    H131177   2.777   3.932   0.777  1.6369  1.6689 -1.0722
 3254TIP3    H231178   2.890   3.844   0.728 -0.5274 -2.2881  0.5884
 3255TIP3   OH231179   4.567   2.019  15.463  0.2441 -0.5117 -0.2995
 3255TIP3    H131180   4.626   2.085  15.425  0.4174 -0.2854  0.3462
 3255TIP3    H231181   4.497   2.070  15.503  1.0820 -0.6312  1.3992
 3256TIP3   OH231182   6.566   4.967  14.123 -0.7107 -0.2770  0.0977
 3256TIP3    H131183   6.627   4.995  14.191  1.2485 -0.5080 -1.4959
 3256TIP3    H231184   6.483   5.009  14.147  0.1059  0.3081  2.1488
 3257TIP3   OH231185   2.298   0.068   6.174  0.6640 -0.2803  0.0966
 3257TIP3    H131186   2.321   0.146   6.226  2.5031 -0.5577 -0.2600
 3257TIP3    H231187   2.264   0.006   6.239  2.9038 -0.6135  1.0250
 3258TIP3   OH231188   0.301   4.759   0.996  0.0520  0.8141 -0.3276
 3258TIP3    H131189   0.210   4.760   0.967 -0.5478 -0.5828  1.3172
 3258TIP3    H231190   0.296   4.730   1.087  2.1444  0.8088 -0.1753
 3259TIP3   OH231191   2.582   1.362  14.681 -0.0660 -0.7682  0.1887
 3259TIP3    H131192   2.664   1.397  14.647 -2.0588  1.9719 -2.2213
 3259TIP3    H231193   2.580   1.271  14.651  2.4583 -1.2378  1.2167
 3260TIP3   OH231194   4.252   1.765  14.391 -0.0990 -0.3000  0.1959
 3260TIP3    H131195   4.215   1.849  14.364 -0.3723 -0.4253  0.1714
 3260TIP3    H231196   4.243   1.709  14.313  1.4186  0.0670 -0.2709
 3261TIP3   OH231197   1.259   2.252   3.149 -0.3891  0.3285  0.2860
 3261TIP3    H131198   1.193   2.300   3.100  0.9754  2.1766  0.1375
 3261TIP3    H231199   1.273   2.172   3.100 -0.9989  0.8916 -0.8376
 3262TIP3   OH231200   4.229   5.981  17.031 -0.1201 -0.3680 -0.3477
 3262TIP3    H131201   4.276   5.963  16.949 -2.2209  1.4271 -2.0922
 3262TIP3    H231202   4.198   6.071  17.021  0.2463  0.2266  2.8522
 3263TIP3   OH231203   2.703   2.455   5.003  0.2218 -0.4372  0.1018
 3263TIP3    H131204   2.664   2.535   4.966 -2.2395 -1.5836  0.0151
 3263TIP3    H231205   2.677   2.456   5.095 -0.2852 -1.3923 -0.0279
 3264TIP3   OH231206   0.231   0.973   4.697 -0.0647  0.1313 -0.4302
 3264TIP3    H131207   0.285   0.979   4.776  0.6205  0.7062 -0.9357
 3264TIP3    H231208   0.257   1.048   4.644 -1.9099  0.8662 -0.3600
 3265TIP3   OH231209   2.231   1.919  12.588  0.2358 -0.0711 -0.2495
 3265TIP3    H131210   2.216   1.864  12.664  1.1314  0.3662  0.2590
 3265TIP3    H231211   2.175   1.995  12.601  0.8040  0.2656  0.2607
 3266TIP3   OH231212   1.615   0.104  11.069  0.2805  0.4007 -0.2278
 3266TIP3    H131213   1.655   0.026  11.031 -0.0187 -0.2557  0.7790
 3266TIP3    H231214   1.544   0.127  11.008 -1.0445 -1.4145  0.5482
 3267TIP3   OH231215   6.330   5.064  14.570 -0.4972  0.0801  0.3213
 3267TIP3    H131216   6.285   5.041  14.489  1.1824  1.2011 -0.9914
 3267TIP3    H231217   6.350   5.157  14.562  2.7316 -0.4910  0.4113
 3268TIP3   OH231218   2.032   2.529  17.112 -0.2827 -0.0815  0.5407
 3268TIP3    H131219   1.953   2.511  17.164  0.8611 -0.5230  2.2227
 3268TIP3    H231220   2.041   2.452  17.056 -2.2814  0.9862 -1.4406
 3269TIP3   OH231221   4.796   1.524  16.712 -0.1810 -0.0022 -0.3534
 3269TIP3    H131222   4.798   1.585  16.786 -3.2408 -0.2185  0.0057
 3269TIP3    H231223   4.849   1.450  16.741  0.0171  0.6130  0.9504
 3270TIP3   OH231224   4.203   0.507   5.277 -0.3848  0.1387  0.0345
 3270TIP3    H131225   4.174   0.597   5.260 -1.7938 -0.4252 -0.7221
 3270TIP3    H231226   4.213   0.502   5.372  1.1949  1.5051 -0.0172
 3271TIP3   OH231227   0.985   5.100   5.177  0.2216  0.2721 -0.2344
 3271TIP3    H131228   0.967   5.101   5.083 -0.7781 -0.2914 -0.0660
 3271TIP3    H231229   0.915   5.045   5.214  0.5183  0.6057  0.8504
 3272TIP3   OH231230   4.929   0.587   6.411  0.2045  0.7973 -0.1968
 3272TIP3    H131231   5.014   0.549   6.434  0.4336  0.1615 -1.9230
 3272TIP3    H231232   4.915   0.656   6.475  1.4110  0.0524  0.9185
 3273TIP3   OH231233   5.929   2.979  12.700 -0.7541  0.8481 -0.1951
 3273TIP3    H131234   6.024   2.969  12.694 -0.8331  0.8353 -1.9620
 3273TIP3    H231235   5.916   3.071  12.722 -0.3366  0.5300  1.5611
 3274TIP3   OH231236   1.000   1.865  15.303 -0.1212  0.3486 -0.1119
 3274TIP3    H131237   1.013   1.826  15.390 -0.1775 -0.9855 -0.6728
 3274TIP3    H231238   1.087   1.898  15.278  0.0560  0.0855  0.1494
 3275TIP3   OH231239   0.870   6.336   2.653  0.1538  0.0554  0.0534
 3275TIP3    H131240   0.915   6.413   2.618  1.1012 -0.0663  0.9416
 3275TIP3    H231241   0.785   6.336   2.610  0.3079  1.3453 -0.2921
 3276TIP3   OH231242   0.048   2.373  12.434 -0.2442  0.1641 -0.1311
 3276TIP3    H131243  -0.003   2.312  12.486  0.9545 -0.5234  0.2701
 3276TIP3    H231244   0.038   2.457  12.479  0.2244 -0.2848  0.8164
 3277TIP3   OH231245   2.979   5.830   1.553  0.1833 -0.3560  0.0665
 3277TIP3    H131246   3.048   5.823   1.487 -1.2558  0.4958 -1.5956
 3277TIP3    H231247   2.990   5.752   1.607  0.1486 -2.2221 -2.4401
 3278TIP3   OH231248   3.765   4.003  14.133 -0.0613 -0.5535 -0.0630
 3278TIP3    H131249   3.757   3.946  14.209 -1.5323 -1.7565 -1.0502
 3278TIP3    H231250   3.712   4.080  14.155  0.8571 -0.1372  0.7537
 3279TIP3   OH231251   4.074   0.126   5.136 -0.0329  0.4651 -0.8600
 3279TIP3    H131252   4.038   0.188   5.073 -1.4844  0.4310 -0.1025
 3279TIP3    H231253   4.052   0.162   5.221  1.3539  0.1904 -0.3584
 3280TIP3   OH231254   1.883   5.449   2.738 -0.1303 -0.6653 -0.2852
 3280TIP3    H131255   1.826   5.383   2.699 -1.7110 -0.5584  1.7060
 3280TIP3    H231256   1.891   5.516   2.670 -1.8302 -1.0008 -0.8648
 3281TIP3   OH231257   1.103   1.033   0.285 -0.6161  0.4496  0.1343
 3281TIP3    H131258   1.189   1.058   0.317  0.3432  1.8647 -3.1820
 3281TIP3    H231259   1.115   0.945   0.250 -1.3449 -0.5612  2.2430
 3282TIP3   OH231260   0.315   3.383   0.688 -0.4615 -0.1856  0.1396
 3282TIP3    H131261   0.352   3.460   0.646  0.2804 -0.5540  0.1074
 3282TIP3    H231262   0.226   3.410   0.714 -0.6309  0.2981 -0.9152
 3283TIP3   OH231263   4.172   2.441  15.926  0.0671 -0.6027  0.4490
 3283TIP3    H131264   4.222   2.372  15.968  0.9793  0.7673  1.7109
 3283TIP3    H231265   4.155   2.505  15.996  0.5690  1.1664 -0.9632
 3284TIP3   OH231266   5.806   4.490   4.400  0.1930  0.0341  0.2555
 3284TIP3    H131267   5.802   4.532   4.314 -0.1354  3.0126  1.5989
 3284TIP3    H231268   5.733   4.428   4.401  0.1101  0.0706 -1.5354
 3285TIP3   OH231269   3.511   5.157  14.539  0.2868 -0.1778 -0.2841
 3285TIP3    H131270   3.504   5.247  14.506  1.2480  0.2502  0.6072
 3285TIP3    H231271   3.432   5.113  14.507  0.1402  0.7887 -1.3129
 3286TIP3   OH231272   4.283   6.171   1.453  0.4399  0.0273  0.1281
 3286TIP3    H131273   4.195   6.208   1.453  0.0224 -0.9491  0.7149
 3286TIP3    H231274   4.340   6.245   1.474 -0.1900  0.7412 -0.5931
 3287TIP3   OH231275   1.432   0.270  15.916  0.4841  0.0042  0.2975
 3287TIP3    H131276   1.423   0.340  15.981 -0.3024 -0.6684  0.9306
 3287TIP3    H231277   1.510   0.222  15.944  0.2211 -0.2067  0.6736
 3288TIP3   OH231278   4.654   3.750   4.436 -0.4685 -0.0010 -0.4481
 3288TIP3    H131279   4.723   3.769   4.373  1.3450 -1.6136  0.9364
 3288TIP3    H231280   4.620   3.664   4.409 -0.0572 -0.4480  0.4076
 3289TIP3   OH231281   4.250   4.533   5.053 -0.6139 -0.5171 -0.1050
 3289TIP3    H131282   4.303   4.509   4.977 -0.2606 -0.6980  0.1950
 3289TIP3    H231283   4.298   4.499   5.128 -0.1288  1.0222  0.3359
 3290TIP3   OH231284   1.946   0.015  11.597 -0.3792 -0.3267 -0.0555
 3290TIP3    H131285   1.924  -0.033  11.517  0.2825  0.2907 -0.6225
 3290TIP3    H231286   1.890   0.092  11.595 -1.5974 -1.1441  0.9655
 3291TIP3   OH231287   4.865   6.500   4.220  0.2035 -0.7836  0.1433
 3291TIP3    H131288   4.776   6.511   4.185  0.3069  1.9625  0.5290
 3291TIP3    H231289   4.915   6.463   4.148 -0.5402  0.7982 -1.2650
 3292TIP3   OH231290   4.508   3.226  16.328 -0.2167 -0.0156  0.2300
 3292TIP3    H131291   4.522   3.299  16.388 -0.4518  0.5347 -0.3759
 3292TIP3    H231292   4.557   3.248  16.249 -0.6307 -0.3043 -0.1194
 3293TIP3   OH231293   1.071   0.499   2.198 -0.0303 -0.3346  0.1198
 3293TIP3    H131294   1.094   0.578   2.246  0.1211 -0.9576  1.1140
 3293TIP3    H231295   1.139   0.436   2.222 -0.2401 -0.8079 -0.5239
 3294TIP3   OH231296   5.267   5.255   4.587 -0.2203 -0.1429  0.3292
 3294TIP3    H131297   5.171   5.258   4.587 -0.2781 -0.8105 -1.3669
 3294TIP3    H231298   5.294   5.346   4.578 -0.7441 -0.0610 -0.5299
 3295TIP3   OH231299   2.086   4.358   5.216  0.5047  0.0607 -0.0023
 3295TIP3    H131300   1.999   4.377   5.182 -0.2218 -1.5353  0.8480
 3295TIP3    H231301   2.127   4.444   5.227 -1.0439  0.8500 -0.1878
 3296TIP3   OH231302   1.991   2.172  14.041  0.4998 -0.4986 -0.6375
 3296TIP3    H131303   2.068   2.115  14.045  0.9151  0.0959  0.0729
 3296TIP3    H231304   1.949   2.162  14.127 -1.0991 -1.9882 -1.5158
 3297TIP3   OH231305   0.922   3.358   4.100  0.3835  0.6099 -0.5129
 3297TIP3    H131306   1.009   3.373   4.063  0.2940  1.6068 -0.3287
 3297TIP3    H231307   0.869   3.333   4.025  0.4612  1.5602 -0.8954
 3298TIP3   OH231308   2.011   2.138   4.850  0.1102 -0.1694  0.1232
 3298TIP3    H131309   2.044   2.051   4.826 -0.6192  0.0641 -1.8962
 3298TIP3    H231310   2.061   2.198   4.794 -0.1449  0.6325  0.7452
 3299TIP3   OH231311   1.652   2.535   5.617 -0.3205  0.2687 -0.5042
 3299TIP3    H131312   1.633   2.497   5.703 -0.4293 -0.7178 -0.9509
 3299TIP3    H231313   1.734   2.493   5.591  1.3917  2.7934  0.4064
 3300TIP3   OH231314   6.170   5.869  13.482 -0.1092 -1.0083 -0.4212
 3300TIP3    H131315   6.168   5.928  13.407 -3.1068  2.6855  2.1738
 3300TIP3    H231316   6.254   5.888  13.525  0.7430 -1.7315 -1.6826
 3301TIP3   OH231317   3.279   3.759  14.742  0.4523  0.3649 -0.2196
 3301TIP3    H131318   3.306   3.693  14.677  0.1681  1.3105 -1.3337
 3301TIP3    H231319   3.262   3.708  14.821 -3.2675 -1.5234 -1.9314
 3302TIP3   OH231320   2.187   6.267  11.847  1.1344  0.0949  0.2738
 3302TIP3    H131321   2.122   6.334  11.868  0.0867 -1.0115  0.6719
 3302TIP3    H231322   2.181   6.204  11.919  0.8363 -1.3302 -0.9443
 3303TIP3   OH231323   5.277   5.963   6.110  0.5852  0.1183 -0.0466
 3303TIP3    H131324   5.192   6.006   6.105  0.1538 -0.4882  1.5204
 3303TIP3    H231325   5.331   6.020   6.164  0.6690 -0.2830  0.2977
 3304TIP3   OH231326   0.383   3.114  14.045  0.6705 -0.2538  0.3515
 3304TIP3    H131327   0.293   3.093  14.072  0.9839 -1.0134  0.8524
 3304TIP3    H231328   0.391   3.208  14.060 -0.1548 -0.1103 -0.0531
 3305TIP3   OH231329   3.765   1.747  15.780  0.4109 -0.0060  0.2389
 3305TIP3    H131330   3.851   1.778  15.809  0.6064  1.0637 -1.3585
 3305TIP3    H231331   3.762   1.656  15.809  0.9933  0.6439  2.5756
 3306TIP3   OH231332   5.978   3.724   2.240 -0.5366 -0.1499 -0.7179
 3306TIP3    H131333   5.921   3.659   2.280  0.1764 -0.6846 -0.5508
 3306TIP3    H231334   5.925   3.804   2.236 -1.1313 -0.5107 -0.1359
 3307TIP3   OH231335   4.056   4.832   6.933 -0.0647  0.0240 -0.0765
 3307TIP3    H131336   4.013   4.746   6.928 -0.1015  0.0697 -0.5588
 3307TIP3    H231337   4.090   4.847   6.845 -2.2117  1.6057 -0.7100
 3308TIP3   OH231338   0.992   5.567  14.601 -0.3381 -0.2001 -0.1130
 3308TIP3    H131339   1.055   5.587  14.531 -2.2930  0.0687 -1.8869
 3308TIP3    H231340   0.938   5.497  14.566 -1.2348 -0.2184  1.2266
 3309TIP3   OH231341   0.306   3.500   6.017 -0.6801  0.4405  0.1538
 3309TIP3    H131342   0.314   3.498   6.113 -1.0495  1.3582  0.2110
 3309TIP3    H231343   0.329   3.589   5.993  0.6756 -0.1393 -0.7481
 3310TIP3   OH231344   6.151   0.778   2.191  0.4117  0.1051  0.5113
 3310TIP3    H131345   6.229   0.832   2.179 -0.1482  0.9348  0.5162
 3310TIP3    H231346   6.087   0.838   2.231  0.1274 -0.8481  1.5280
 3311TIP3   OH231347   3.736   3.996   2.035 -0.5403  0.4324 -0.6640
 3311TIP3    H131348   3.716   3.970   2.125 -0.5266 -0.6961 -0.9783
 3311TIP3    H231349   3.660   3.966   1.984 -0.2076  0.4000 -1.1462
 3312TIP3   OH231350   4.378   6.244   3.919 -0.5002 -0.0621 -0.1508
 3312TIP3    H131351   4.345   6.313   3.976 -0.2535  0.1613 -0.2740
 3312TIP3    H231352   4.465   6.274   3.894 -0.4832 -0.3103 -0.3910
 3313TIP3   OH231353   5.330   2.455  12.512 -0.4937  0.0422  0.1654
 3313TIP3    H131354   5.412   2.491  12.479 -0.4522 -0.4788 -0.3014
 3313TIP3    H231355   5.356   2.377  12.562 -0.5424  0.8537  1.5241
 3314TIP3   OH231356   5.634   5.719   3.955  0.2246 -0.0134  0.3970
 3314TIP3    H131357   5.579   5.797   3.967 -2.1302 -1.4112 -0.6780
 3314TIP3    H231358   5.607   5.683   3.871  1.9560 -1.4833  0.4143
 3315TIP3   OH231359   3.159   4.257  12.788  0.6620  0.1852  0.1428
 3315TIP3    H131360   3.109   4.237  12.867  0.8029  0.7453  0.3772
 3315TIP3    H231361   3.247   4.280  12.820  1.1696 -1.0747 -0.2799
 3316TIP3   OH231362   3.525   2.106   5.286  0.5539  0.3237  0.2783
 3316TIP3    H131363   3.562   2.194   5.290 -1.1231  1.0647  0.0007
 3316TIP3    H231364   3.518   2.087   5.193  0.2120  0.2010  0.3277
 3317TIP3   OH231365   3.193   1.426  13.545  0.0309  0.3401 -0.2388
 3317TIP3    H131366   3.225   1.516  13.546  2.9572 -0.5789  1.9193
 3317TIP3    H231367   3.271   1.372  13.554 -1.6608 -2.4442 -0.8926
 3318TIP3   OH231368   0.513   5.159  16.218 -0.1799  0.1467  0.3243
 3318TIP3    H131369   0.556   5.203  16.144  1.4860 -0.0270  1.1467
 3318TIP3    H231370   0.430   5.128  16.182  0.5302  0.1749 -1.4501
 3319TIP3   OH231371   3.976   5.743  12.913 -0.2041  0.4059  0.2373
 3319TIP3    H131372   4.045   5.795  12.953 -0.8561  2.0197 -0.6580
 3319TIP3    H231373   3.903   5.745  12.975  0.7278 -1.9637  1.5589
 3320TIP3   OH231374   1.021   3.505   5.013  0.3990 -0.2018 -0.2879
 3320TIP3    H131375   0.980   3.520   5.098 -1.0630 -0.8996 -0.8406
 3320TIP3    H231376   1.085   3.576   5.004  0.5535 -0.1040  1.3640
 3321TIP3   OH231377   1.524   2.447   0.750  0.2640  0.8295 -0.0269
 3321TIP3    H131378   1.463   2.495   0.694 -0.5907 -0.8436 -0.5972
 3321TIP3    H231379   1.576   2.394   0.689  1.5644  1.4047  0.5421
 3322TIP3   OH231380   0.527   2.434   2.029 -0.0980 -0.3035  0.4162
 3322TIP3    H131381   0.486   2.500   1.973 -0.2783  1.3169  2.3614
 3322TIP3    H231382   0.470   2.357   2.021 -2.3692  1.1753  1.3522
 3323TIP3   OH231383   0.806   5.102   1.704  0.4934 -0.1671  0.5405
 3323TIP3    H131384   0.831   5.182   1.656 -0.3092  0.3831  1.0135
 3323TIP3    H231385   0.778   5.041   1.636  1.0980 -0.0468  0.1734
 3324TIP3   OH231386   0.510   2.637  15.346 -0.0898  0.0815 -0.5705
 3324TIP3    H131387   0.555   2.567  15.298  1.4309  0.1801  0.6212
 3324TIP3    H231388   0.555   2.717  15.318  0.0999  0.2498  0.2006
 3325TIP3   OH231389   5.759   4.478   0.743 -0.1289 -0.5856 -0.3900
 3325TIP3    H131390   5.774   4.563   0.703  0.5842  0.1095  1.2470
 3325TIP3    H231391   5.836   4.426   0.719  0.9110  0.2262  1.0081
 3326TIP3   OH231392   4.554   0.361  16.668  0.1491  0.1976  0.2693
 3326TIP3    H131393   4.624   0.398  16.615 -0.0436 -0.6736 -0.6293
 3326TIP3    H231394   4.589   0.360  16.757  0.5206  1.5793  0.1540
 3327TIP3   OH231395   3.647   0.208  14.921  0.2772 -0.2879  0.1853
 3327TIP3    H131396   3.592   0.165  14.987 -0.1329  0.4708  0.3514
 3327TIP3    H231397   3.683   0.284  14.966 -1.2831  1.1627 -0.8783
 3328TIP3   OH231398   1.209   0.026   3.776 -0.3340 -0.0681 -0.7368
 3328TIP3    H131399   1.118  -0.002   3.763 -0.0281 -0.4496 -2.3447
 3328TIP3    H231400   1.257  -0.056   3.788 -0.2368  0.1574  0.5658
 3329TIP3   OH231401   0.159   5.840  15.435  0.3809 -0.2230 -0.4801
 3329TIP3    H131402   0.121   5.844  15.347  0.7073 -0.3536 -0.6316
 3329TIP3    H231403   0.085   5.850  15.494  0.0428 -0.9900 -0.7613
 3330TIP3   OH231404   0.898   3.120  13.253 -0.2317 -0.1799 -0.0618
 3330TIP3    H131405   0.863   3.125  13.342 -0.2819  0.2313 -0.1052
 3330TIP3    H231406   0.900   3.210  13.223 -0.6079 -0.3578 -0.6284
 3331TIP3   OH231407   2.148   0.600   2.872  0.0020  0.0677  0.1152
 3331TIP3    H131408   2.130   0.536   2.941  2.7392 -0.7715  0.1758
 3331TIP3    H231409   2.093   0.571   2.799 -0.3377 -1.1432  0.8115
 3332TIP3   OH231410   1.379   6.164  16.594  0.3512 -0.4268  0.0816
 3332TIP3    H131411   1.328   6.194  16.670 -0.5462 -1.1486 -0.2122
 3332TIP3    H231412   1.453   6.225  16.589 -0.4740  0.6461  0.5344
 3333TIP3   OH231413   2.299   5.073  17.379  0.4156  0.2469 -0.3544
 3333TIP3    H131414   2.279   4.985  17.348 -0.0075  0.1395  0.2213
 3333TIP3    H231415   2.221   5.125  17.358 -0.6860 -0.2372  2.1497
 3334TIP3   OH231416   2.696   3.158  11.802  0.6853 -0.2769 -0.0026
 3334TIP3    H131417   2.626   3.098  11.778  0.3531 -0.1117  0.5299
 3334TIP3    H231418   2.690   3.229  11.739  0.1306 -0.0825  0.2629
 3335TIP3   OH231419   2.804   1.821   0.744 -0.7248 -0.0392 -0.4097
 3335TIP3    H131420   2.892   1.798   0.714 -0.5651 -0.1716  0.1476
 3335TIP3    H231421   2.816   1.900   0.797 -1.0814  0.5160 -1.1399
 3336TIP3   OH231422   5.678   0.232   4.897  0.5348  0.0057 -0.3409
 3336TIP3    H131423   5.727   0.157   4.862 -0.9422 -0.4542 -1.5443
 3336TIP3    H231424   5.632   0.196   4.973 -0.4728 -0.4517 -1.1394
 3337TIP3   OH231425   3.222   4.743  15.583  0.8538 -0.5392  0.4499
 3337TIP3    H131426   3.258   4.655  15.576 -0.5747 -1.4021  2.8101
 3337TIP3    H231427   3.140   4.740  15.533  0.9327 -0.4654  0.3160
 3338TIP3   OH231428   3.932   0.333   6.176 -0.0977 -0.0307 -0.0895
 3338TIP3    H131429   3.935   0.251   6.126 -1.4880  0.3044 -0.7916
 3338TIP3    H231430   3.879   0.391   6.122 -2.5486  0.0462  2.2154
 3339TIP3   OH231431   2.678   4.405  16.109 -0.2904  0.1343  1.1215
 3339TIP3    H131432   2.636   4.412  16.024 -0.6360 -0.0809  1.2736
 3339TIP3    H231433   2.616   4.356  16.163 -0.2564  0.6192  1.6178
 3340TIP3   OH231434   5.948   3.445   3.916  0.1710 -0.5615  0.3394
 3340TIP3    H131435   6.012   3.428   3.985  2.0436 -1.0842 -1.4547
 3340TIP3    H231436   5.959   3.537   3.894 -1.3625 -0.0290  1.5692
 3341TIP3   OH231437   6.018   0.515   2.298 -0.1000 -0.4716 -0.5191
 3341TIP3    H131438   5.992   0.537   2.209 -0.3441 -0.5729 -0.4714
 3341TIP3    H231439   6.105   0.555   2.307 -0.1901 -0.2251 -0.7099
 3342TIP3   OH231440   5.363   0.072  13.894 -0.3971 -0.1659 -0.2533
 3342TIP3    H131441   5.393   0.049  13.982 -0.6308  0.8785  0.1126
 3342TIP3    H231442   5.328   0.161  13.903  1.8829  1.0212 -1.9005
 3343TIP3   OH231443   6.287   3.462  11.770 -0.7215  0.0138  0.3661
 3343TIP3    H131444   6.338   3.381  11.770  1.6447  1.3985 -0.9335
 3343TIP3    H231445   6.270   3.480  11.678  0.5719  1.9948  0.4663
 3344TIP3   OH231446   5.244   6.547  14.869  0.4028  0.0946 -0.3684
 3344TIP3    H131447   5.281   6.488  14.803  0.4394 -0.9365  0.5485
 3344TIP3    H231448   5.313   6.612  14.884  0.2319  0.5967 -1.6305
 3345TIP3   OH231449   4.384   0.213  12.433  0.5956  0.2757  0.5312
 3345TIP3    H131450   4.433   0.234  12.512  0.2911  2.0149  0.3023
 3345TIP3    H231451   4.417   0.274  12.367 -0.7235  0.3925 -0.0636
 3346TIP3   OH231452   4.672   5.678  12.422  0.6465 -0.4123  0.1594
 3346TIP3    H131453   4.726   5.667  12.344  2.3520 -0.9487  1.3492
 3346TIP3    H231454   4.694   5.765  12.455 -1.6600  0.7277 -1.0468
 3347TIP3   OH231455   3.585   0.482  11.334 -0.0795  0.1240  0.4170
 3347TIP3    H131456   3.583   0.570  11.371  2.4357  0.5787 -0.3187
 3347TIP3    H231457   3.502   0.443  11.359 -0.2132  1.8169  2.9297
 3348TIP3   OH231458   3.518   4.628  14.480 -0.8910 -0.3888  0.2311
 3348TIP3    H131459   3.607   4.664  14.490  0.0954 -2.0236 -1.8336
 3348TIP3    H231460   3.472   4.691  14.425 -1.8228  1.5518  2.9979
 3349TIP3   OH231461   1.162   4.900   1.174  0.2116  0.6571 -0.1932
 3349TIP3    H131462   1.123   4.977   1.132 -0.5769  0.3696 -0.0130
 3349TIP3    H231463   1.090   4.836   1.178 -0.1216  1.0741  2.6808
 3350TIP3   OH231464   5.288   4.049   1.810 -0.2187 -0.0144 -0.1362
 3350TIP3    H131465   5.314   3.968   1.765  0.9371  0.4365 -0.3076
 3350TIP3    H231466   5.194   4.040   1.823 -0.0436 -1.5758  0.2125
 3351TIP3   OH231467   0.291   4.337   5.248  0.4997 -0.0909 -0.8152
 3351TIP3    H131468   0.366   4.386   5.281  1.6738 -0.8851 -2.1831
 3351TIP3    H231469   0.304   4.334   5.153 -1.0853 -0.5407 -1.0386
 3352TIP3   OH231470   6.173   5.129  13.540 -0.0878 -0.7095  0.1380
 3352TIP3    H131471   6.171   5.072  13.617 -0.7425  0.4678  1.0305
 3352TIP3    H231472   6.245   5.189  13.556  0.0735 -0.7540 -0.3968
 3353TIP3   OH231473   1.568   0.545  11.857 -0.5081 -0.5365 -0.1467
 3353TIP3    H131474   1.578   0.624  11.911 -1.9351 -0.9853  0.8349
 3353TIP3    H231475   1.618   0.564  11.778 -1.4321  1.6656 -0.2628
 3354TIP3   OH231476   2.802   1.516   2.091  0.0766 -0.0003 -0.4021
 3354TIP3    H131477   2.874   1.556   2.042  1.3289 -0.9029  0.6448
 3354TIP3    H231478   2.779   1.438   2.040  0.3463 -0.1170 -0.3452
 3355TIP3   OH231479   3.735   0.534  15.752 -0.1731 -0.1426  0.1072
 3355TIP3    H131480   3.673   0.465  15.727 -1.6029  1.4701 -1.0784
 3355TIP3    H231481   3.815   0.487  15.775 -0.4193 -2.1027 -2.5391
 3356TIP3   OH231482   5.829   6.591  15.010 -0.4472 -0.3890 -0.1414
 3356TIP3    H131483   5.867   6.541  14.937 -0.3071  0.7900 -0.9028
 3356TIP3    H231484   5.905   6.619  15.061 -0.4652 -0.1854 -0.2266
 3357TIP3   OH231485   4.941   2.712  16.732 -0.0611 -0.6370 -0.0140
 3357TIP3    H131486   4.863   2.686  16.683 -0.7214 -0.3098  0.8307
 3357TIP3    H231487   4.936   2.808  16.735  0.3506 -0.6188  0.0794
 3358TIP3   OH231488   2.058   3.312   5.577 -0.0864 -0.0002 -0.1058
 3358TIP3    H131489   2.144   3.320   5.535 -0.1977 -0.6331 -0.4782
 3358TIP3    H231490   2.031   3.402   5.594  1.1709  0.1769  1.1273
 3359TIP3   OH231491   6.341   4.911   1.380  0.1105 -0.2487  0.0080
 3359TIP3    H131492   6.419   4.931   1.432  3.2116  0.4799 -4.3321
 3359TIP3    H231493   6.332   4.985   1.320 -1.8050 -1.9204 -1.9587
 3360TIP3   OH231494   2.625   3.358   4.810  0.3135  0.5812  0.0357
 3360TIP3    H131495   2.570   3.381   4.735  1.2987  0.3466 -0.7807
 3360TIP3    H231496   2.606   3.426   4.875  0.5724  1.6761 -1.0028
 3361TIP3   OH231497   5.029   1.223  13.941  0.1971 -0.0913 -0.1219
 3361TIP3    H131498   5.085   1.146  13.942  1.9909  0.9575  4.3107
 3361TIP3    H231499   4.940   1.189  13.936  0.9936 -2.2145 -0.8449
 3362TIP3   OH231500   1.361   6.435   2.933 -0.0824  0.1529  0.4564
 3362TIP3    H131501   1.393   6.454   3.022 -1.1741 -0.2094  0.9395
 3362TIP3    H231502   1.273   6.472   2.931 -0.8045 -1.4876  0.1764
 3363TIP3   OH231503   0.250   2.595  16.266  0.0565 -0.1670 -0.0168
 3363TIP3    H131504   0.335   2.639  16.270 -0.9021  1.7636  0.2209
 3363TIP3    H231505   0.236   2.577  16.173  1.0386 -1.2088  0.0181
 3364TIP3   OH231506   2.013   5.464   5.540  0.8336 -0.2623  0.5226
 3364TIP3    H131507   1.971   5.401   5.482  0.3276 -0.3222  0.9490
 3364TIP3    H231508   2.080   5.413   5.586 -0.1276 -0.6904  1.4713
 3365TIP3   OH231509   4.566   3.934   2.171  0.3474 -0.1313  0.0570
 3365TIP3    H131510   4.642   3.918   2.116 -0.3525  0.0879 -1.0143
 3365TIP3    H231511   4.491   3.920   2.113 -0.4456 -0.8649  1.2216
 3366TIP3   OH231512   1.165   3.054  13.171 -0.9811  0.2439  0.0398
 3366TIP3    H131513   1.179   2.967  13.209 -3.6934  0.1653  1.0777
 3366TIP3    H231514   1.095   3.092  13.224  1.2147  3.7949  0.7262
 3367TIP3   OH231515   1.435   1.222  15.617 -0.1006 -0.3255 -0.3286
 3367TIP3    H131516   1.358   1.273  15.593 -0.3249 -1.2491 -1.7109
 3367TIP3    H231517   1.400   1.147  15.665 -0.0843 -0.7392 -0.9464
 3368TIP3   OH231518   5.439   5.039  14.098  0.3046 -0.1551 -0.1430
 3368TIP3    H131519   5.371   5.045  14.031 -2.2207 -1.2302  2.1209
 3368TIP3    H231520   5.471   5.128  14.108 -2.8131  1.0106  0.5985
 3369TIP3   OH231521   2.340   1.809   1.959 -0.2324  0.2422  0.0360
 3369TIP3    H131522   2.405   1.752   1.919 -0.2103  0.2894  0.0050
 3369TIP3    H231523   2.276   1.749   1.999  0.1064  0.1949  0.5107
 3370TIP3   OH231524   3.362   5.975  11.722  0.7157 -0.7262  0.0732
 3370TIP3    H131525   3.298   6.009  11.785 -0.2478 -0.4038 -1.0320
 3370TIP3    H231526   3.401   5.900  11.766  0.3180 -0.3142  1.1790
 3371TIP3   OH231527   6.391   6.185  12.894 -0.0382 -0.4857 -0.2068
 3371TIP3    H131528   6.408   6.117  12.828 -0.1457 -0.4972 -0.2236
 3371TIP3    H231529   6.307   6.159  12.932  0.0294 -0.4841 -0.0583
 3372TIP3   OH231530   2.462   4.240  16.204 -0.6652 -0.4580  0.3232
 3372TIP3    H131531   2.391   4.193  16.247  0.1904 -2.4160 -0.2786
 3372TIP3    H231532   2.472   4.196  16.119 -0.3046  1.3348 -0.6133
 3373TIP3   OH231533   3.942   2.338  14.353 -0.5224  0.9976 -0.9717
 3373TIP3    H131534   3.906   2.256  14.385  1.5048  0.5673  0.4804
 3373TIP3    H231535   4.027   2.345  14.397  0.1529  2.9977 -2.4327
 3374TIP3   OH231536   6.562   0.770   3.078 -0.1648 -0.0223 -0.0185
 3374TIP3    H131537   6.562   0.863   3.056 -0.7175 -0.0803 -0.2817
 3374TIP3    H231538   6.574   0.767   3.173 -0.4490  0.3299  0.0297
 3375TIP3   OH231539   3.887   0.647  13.973 -0.2257  0.7605  0.2734
 3375TIP3    H131540   3.799   0.670  13.944 -0.7447 -0.7479  0.5533
 3375TIP3    H231541   3.940   0.724  13.953 -0.9647  0.5875 -2.7369
 3376TIP3   OH231542   0.292   4.323  16.475 -0.8112  0.5480  0.6013
 3376TIP3    H131543   0.325   4.281  16.554  0.1313  0.1036 -0.0113
 3376TIP3    H231544   0.337   4.278  16.403 -1.2090  1.3380 -0.1604
 3377TIP3   OH231545   2.998   0.348  13.994 -0.3239  0.0338 -0.4200
 3377TIP3    H131546   2.909   0.315  14.005 -0.5285 -0.4845 -3.0081
 3377TIP3    H231547   3.054   0.276  14.023 -0.7966 -1.2145 -2.3730
 3378TIP3   OH231548   1.637   3.077  14.465 -0.4094  0.1144  0.4017
 3378TIP3    H131549   1.648   2.993  14.508  2.4668  0.3014  0.1961
 3378TIP3    H231550   1.712   3.129  14.493  0.5970  0.8979 -3.2095
 3379TIP3   OH231551   5.576   6.538  14.007 -1.2764  0.2333 -0.8030
 3379TIP3    H131552   5.639   6.584  13.951 -1.1983 -0.1665 -1.0475
 3379TIP3    H231553   5.548   6.604  14.070  2.3697 -0.4833  1.8990
 3380TIP3   OH231554   3.413   5.595   4.895  0.0288 -0.6385 -0.4290
 3380TIP3    H131555   3.411   5.623   4.803  0.2709 -1.0843 -0.5752
 3380TIP3    H231556   3.475   5.522   4.896 -1.6623 -2.1661 -0.3404
 3381TIP3   OH231557   3.264   4.091  14.135 -0.1842  0.2650  0.6207
 3381TIP3    H131558   3.264   4.184  14.157  1.3758  0.7145 -1.0294
 3381TIP3    H231559   3.192   4.082  14.072 -1.3776 -0.0050  1.9828
 3382TIP3   OH231560   0.060   2.586   2.896 -0.0713 -0.1163 -0.2357
 3382TIP3    H131561   0.134   2.548   2.942 -1.0556 -0.0220  1.5237
 3382TIP3    H231562  -0.016   2.560   2.948 -1.1319  1.0607 -1.1392
 3383TIP3   OH231563   2.517   5.134   5.157 -0.4869  0.6101  0.5432
 3383TIP3    H131564   2.579   5.076   5.114 -1.0904 -0.4050  1.0073
 3383TIP3    H231565   2.532   5.120   5.251  0.7061  2.6732  0.7156
 3384TIP3   OH231566   0.563   5.439  12.329  0.0985 -0.6688 -0.0196
 3384TIP3    H131567   0.514   5.357  12.331  0.1275 -0.6899  2.3732
 3384TIP3    H231568   0.638   5.423  12.386 -1.6709  1.9794  3.4223
 3385TIP3   OH231569   4.884   6.108  11.828 -0.0702  0.3244  0.0672
 3385TIP3    H131570   4.858   6.026  11.787  1.7264 -0.5258  0.5583
 3385TIP3    H231571   4.979   6.110  11.820 -0.1136  2.9404 -1.0059
 3386TIP3   OH231572   1.844   4.037   4.995  0.1232 -0.0273  0.0182
 3386TIP3    H131573   1.905   3.968   4.970  0.2803 -0.1734  0.7862
 3386TIP3    H231574   1.872   4.064   5.082  0.2191  1.1940 -0.3734
 3387TIP3   OH231575   2.443   4.073  16.846  0.3765  0.2612  0.4935
 3387TIP3    H131576   2.480   3.987  16.825  1.9020  0.5825  1.6712
 3387TIP3    H231577   2.403   4.061  16.933  0.8668  0.8034  0.8024
 3388TIP3   OH231578   5.435   3.342   4.792 -0.5584  0.1570  0.7871
 3388TIP3    H131579   5.516   3.291   4.795  1.1746  2.7020  0.0519
 3388TIP3    H231580   5.456   3.424   4.836 -2.2631  1.4714 -0.6920
 3389TIP3   OH231581   3.001   0.264   6.310 -0.5536  0.2114  0.4783
 3389TIP3    H131582   3.052   0.338   6.343  1.2076 -0.0163 -1.4836
 3389TIP3    H231583   2.951   0.301   6.237 -2.3569  0.1519  1.6188
 3390TIP3   OH231584   0.716   3.538  15.155 -0.5858  0.0497  0.2316
 3390TIP3    H131585   0.764   3.568  15.077 -0.8679 -2.8696 -1.1667
 3390TIP3    H231586   0.648   3.605  15.167 -1.0201  0.2464 -2.5077
 3391TIP3   OH231587   5.864   0.757  12.763 -0.1218 -0.1047 -0.3914
 3391TIP3    H131588   5.790   0.764  12.703 -0.4599  0.5939  0.0982
 3391TIP3    H231589   5.935   0.802  12.718 -0.3227  0.2559 -0.3549
 3392TIP3   OH231590   1.938   3.369   4.697 -0.2304  0.6752 -0.0876
 3392TIP3    H131591   2.015   3.403   4.651  0.0311  0.7877  0.4275
 3392TIP3    H231592   1.974   3.312   4.765 -0.6724 -1.8072 -1.7992
 3393TIP3   OH231593   5.861   2.206  16.761  0.5284  0.2485  0.0009
 3393TIP3    H131594   5.913   2.284  16.779  1.6250 -0.0701 -1.5399
 3393TIP3    H231595   5.881   2.184  16.670 -0.6618 -1.1551  0.0292
 3394TIP3   OH231596   2.913   0.046  13.574  0.1949 -0.4318  0.3701
 3394TIP3    H131597   2.870   0.120  13.616 -0.5116 -1.0430  0.7477
 3394TIP3    H231598   2.996   0.036  13.621  0.4766  0.3574  0.0551
 3395TIP3   OH231599   1.787   5.723  12.854  0.3660 -0.0461  0.0965
 3395TIP3    H131600   1.720   5.774  12.901  0.2812 -0.3722  0.3301
 3395TIP3    H231601   1.869   5.744  12.900  0.5811  1.0651 -0.7529
 3396TIP3   OH231602   0.114   2.121  15.957 -0.5654  0.8362 -0.2019
 3396TIP3    H131603   0.203   2.119  15.922 -0.0747 -1.3805  0.9615
 3396TIP3    H231604   0.125   2.109  16.052 -2.0591  1.4118  0.0686
 3397TIP3   OH231605   2.967   0.871   3.699 -0.1673 -0.2240  0.0109
 3397TIP3    H131606   2.951   0.789   3.745  2.8483 -0.0964  1.5375
 3397TIP3    H231607   3.053   0.899   3.730 -0.4058  2.7244 -1.6612
 3398TIP3   OH231608   6.653   1.591  17.303 -0.3318 -0.3748  0.2017
 3398TIP3    H131609   6.641   1.676  17.261 -1.9429 -0.8265 -0.3051
 3398TIP3    H231610   6.703   1.540  17.240  0.1000 -0.0189  0.2454
 3399TIP3   OH231611   4.887   0.040  11.882 -0.3322 -0.1036 -0.1715
 3399TIP3    H131612   4.812   0.004  11.930 -1.2846 -0.7938 -2.0881
 3399TIP3    H231613   4.850   0.072  11.800  0.8728  3.1684  0.4030
 3400TIP3   OH231614   2.777   5.733   2.724 -0.0270  0.2701 -0.0366
 3400TIP3    H131615   2.748   5.662   2.666 -0.5601  2.1269 -2.2129
 3400TIP3    H231616   2.873   5.725   2.725 -0.0078  0.1280 -1.1517
 3401TIP3   OH231617   0.118   0.956  13.216  0.4726  0.7568  0.2657
 3401TIP3    H131618   0.043   0.992  13.168 -0.4411 -1.1505  0.1267
 3401TIP3    H231619   0.185   0.943  13.149 -0.0589  0.0217 -0.1428
 3402TIP3   OH231620   1.186   3.807  17.440  0.6081 -0.0917 -0.0337
 3402TIP3    H131621   1.150   3.828  17.526  0.4644  0.7260 -0.2792
 3402TIP3    H231622   1.120   3.839  17.378  1.2437  0.4052 -0.4660
 3403TIP3   OH231623   0.491   6.539   3.920 -0.0237 -0.2822 -0.2022
 3403TIP3    H131624   0.413   6.530   3.974 -0.9135  0.7476 -1.2851
 3403TIP3    H231625   0.525   6.627   3.941  1.2798 -0.9883  0.7968
 3404TIP3   OH231626   5.967   6.132  13.885 -0.1048  0.0532 -0.2825
 3404TIP3    H131627   5.963   6.056  13.827 -0.7726 -1.5876  1.8162
 3404TIP3    H231628   5.877   6.146  13.913 -0.5338  3.4415 -2.7239
 3405TIP3   OH231629   1.891   2.483   1.579 -0.2835  0.3477  0.4986
 3405TIP3    H131630   1.971   2.536   1.584 -1.8204  2.7338  1.8681
 3405TIP3    H231631   1.916   2.397   1.612  2.2936  0.1450 -1.6496
 3406TIP3   OH231632   2.292   5.767  16.984  0.1911 -0.4166 -0.0443
 3406TIP3    H131633   2.312   5.804  16.899 -2.8557  1.6670  0.0072
 3406TIP3    H231634   2.242   5.688  16.965  0.0325 -0.2799 -0.1935
 3407TIP3   OH231635   6.497   4.286  13.148  0.6909  0.1346  0.2405
 3407TIP3    H131636   6.439   4.342  13.095  1.1806  0.4046 -0.0148
 3407TIP3    H231637   6.441   4.257  13.220 -0.2377 -0.9608 -0.8841
 3408TIP3   OH231638   6.039   1.504  14.295 -0.5789  0.2343  0.1254
 3408TIP3    H131639   6.075   1.585  14.261 -0.6502  0.1936 -0.0463
 3408TIP3    H231640   5.950   1.500  14.260 -1.1790  0.9172  1.4946
 3409TIP3   OH231641   1.112   6.569  17.316  0.5845 -0.2238 -0.0791
 3409TIP3    H131642   1.180   6.624  17.277  0.1630  0.2190 -0.2099
 3409TIP3    H231643   1.074   6.522  17.241  0.2506  0.0935 -0.1140
 3410TIP3   OH231644   1.153   1.387   1.586 -0.5703 -0.1926  0.2409
 3410TIP3    H131645   1.068   1.348   1.610 -0.6756 -0.7612 -0.9639
 3410TIP3    H231646   1.214   1.313   1.589 -0.6142 -0.3317 -1.2744
 3411TIP3   OH231647   1.271   4.698  11.315  0.2770 -0.1316 -0.7101
 3411TIP3    H131648   1.234   4.774  11.271 -2.9788 -0.2350  1.4860
 3411TIP3    H231649   1.200   4.666  11.371  2.9130 -2.1383  1.7949
 3412TIP3   OH231650   4.827   5.488  17.403 -0.1021 -0.0812 -0.1798
 3412TIP3    H131651   4.790   5.575  17.417 -0.2797  0.1267 -1.6980
 3412TIP3    H231652   4.768   5.448  17.339 -0.7433 -1.8090  1.4081
 3413TIP3   OH231653   4.771   3.989   1.667  0.6383  0.2591 -0.1373
 3413TIP3    H131654   4.794   3.957   1.580  0.7662 -0.6579  0.2221
 3413TIP3    H231655   4.698   4.049   1.652  0.3834 -0.2144 -0.8392
 3414TIP3   OH231656   1.464   6.497  12.371  0.4516 -0.2304 -0.1864
 3414TIP3    H131657   1.467   6.592  12.367  0.6981 -0.2492 -0.4300
 3414TIP3    H231658   1.532   6.473  12.434  1.0154 -0.2955 -0.8170
 3415TIP3   OH231659   0.800   4.487   0.383 -0.0507  0.0033  0.3972
 3415TIP3    H131660   0.820   4.578   0.361 -0.8288  0.2275  0.5739
 3415TIP3    H231661   0.866   4.463   0.448  0.6515  0.1754 -0.2367
 3416TIP3   OH231662   6.712   1.079   3.275  0.2395 -0.6558 -0.7356
 3416TIP3    H131663   6.719   1.016   3.203  2.3270  0.1928 -1.3439
 3416TIP3    H231664   6.782   1.054   3.336  0.7058  0.7072 -0.6922
 3417TIP3   OH231665   5.705   1.589   3.083  0.1634 -0.4098  0.0643
 3417TIP3    H131666   5.721   1.552   3.170 -1.5683 -1.9585 -0.2092
 3417TIP3    H231667   5.638   1.656   3.097  0.6479  0.0827  0.0544
 3418TIP3   OH231668   0.043   2.551   6.795 -0.1152 -0.8092  0.2593
 3418TIP3    H131669   0.114   2.613   6.809 -1.1383  0.2742  0.8035
 3418TIP3    H231670   0.018   2.563   6.704  0.2406 -1.0261  0.1318
 3419TIP3   OH231671   5.343   2.588  10.795 -0.3952 -0.3316 -0.0932
 3419TIP3    H131672   5.376   2.675  10.770 -0.1360 -0.6045 -0.7193
 3419TIP3    H231673   5.253   2.586  10.761 -0.5436 -0.1512  0.2894
 3420TIP3   OH231674   6.104   0.871  15.084 -0.1068 -0.2090  0.4037
 3420TIP3    H131675   6.099   0.967  15.079 -0.3177 -0.2080  0.6081
 3420TIP3    H231676   6.166   0.846  15.015 -0.4047  0.0405  0.0413
 3421TIP3   OH231677   4.286   0.289  11.101  0.1319 -0.7588  0.0914
 3421TIP3    H131678   4.361   0.302  11.042 -1.9454  0.8438 -2.4194
 3421TIP3    H231679   4.226   0.234  11.050 -1.2946 -0.2292  1.1547
 3422TIP3   OH231680   1.452   0.041   4.110  0.0368 -0.2395  0.3352
 3422TIP3    H131681   1.502   0.082   4.181  1.1984 -2.6487  1.0290
 3422TIP3    H231682   1.465   0.099   4.035 -0.1280  1.6793  1.7192
 3423TIP3   OH231683   6.629   2.518  13.820 -0.7195 -0.1491  0.3120
 3423TIP3    H131684   6.570   2.588  13.847 -0.4656 -0.3684  1.4970
 3423TIP3    H231685   6.577   2.438  13.830 -0.4449 -0.2820  0.7049
 3424TIP3   OH231686   0.595   1.116  13.012 -0.3469  0.0479 -0.3316
 3424TIP3    H131687   0.609   1.179  12.941  3.4408  1.9999  1.8506
 3424TIP3    H231688   0.565   1.170  13.086 -1.0619 -1.4140  0.4843
 3425TIP3   OH231689   6.193   4.825  15.586 -0.0249 -0.0060  0.3385
 3425TIP3    H131690   6.258   4.807  15.519  1.7754 -0.9283  2.2407
 3425TIP3    H231691   6.109   4.807  15.543  1.0259 -0.2809 -1.7199
 3426TIP3   OH231692   2.318   2.618  13.854 -0.1867  0.3714 -0.3150
 3426TIP3    H131693   2.274   2.703  13.844 -2.5015 -0.7438 -0.2373
 3426TIP3    H231694   2.323   2.604  13.948 -1.4404 -0.3426 -0.3385
 3427TIP3   OH231695   1.852   6.244  12.631 -0.6122 -0.4103  0.5260
 3427TIP3    H131696   1.823   6.160  12.595 -3.4350  0.8634 -0.4266
 3427TIP3    H231697   1.947   6.242  12.622 -0.6511 -3.0803 -0.3435
 3428TIP3   OH231698   5.401   2.089  15.196 -0.8573  0.1947 -0.0254
 3428TIP3    H131699   5.369   2.014  15.246  2.5167 -0.6450  1.1718
 3428TIP3    H231700   5.473   2.124  15.248 -0.4995  2.5762 -1.8990
 3429TIP3   OH231701   4.255   0.048   3.276  0.6123  0.1622 -0.3858
 3429TIP3    H131702   4.169   0.018   3.246  0.4088 -2.8139  2.5488
 3429TIP3    H231703   4.317   0.014   3.211 -0.1612 -1.4032 -0.3539
 3430TIP3   OH231704   5.283   3.016  11.481  0.3977 -0.3351 -0.1431
 3430TIP3    H131705   5.328   2.983  11.403 -2.6274 -1.2555 -1.7051
 3430TIP3    H231706   5.209   2.956  11.492 -1.3049  1.8828  1.2683
 3431TIP3   OH231707   0.762   1.682  11.662  0.0366  0.3168 -0.1126
 3431TIP3    H131708   0.713   1.674  11.580  1.9572  0.2282 -1.3118
 3431TIP3    H231709   0.849   1.649  11.641  2.5033  5.5866  0.2066
 3432TIP3   OH231710   0.581   0.543  11.903 -0.4412  0.0347  0.1101
 3432TIP3    H131711   0.493   0.539  11.940 -0.2478  0.5337  0.6353
 3432TIP3    H231712   0.567   0.566  11.811 -0.8642  0.0891  0.1848
 3433TIP3   OH231713   5.842   5.388  11.651  0.0362 -0.4341 -0.8023
 3433TIP3    H131714   5.767   5.336  11.623 -0.3587  0.7086 -1.9111
 3433TIP3    H231715   5.916   5.351  11.603 -0.2346  0.0008 -1.5547
 3434TIP3   OH231716   5.407   4.158   5.327 -0.0450  0.2337  0.0104
 3434TIP3    H131717   5.383   4.150   5.235 -2.3001  1.9543  0.3623
 3434TIP3    H231718   5.405   4.069   5.361 -0.4750 -0.2746 -1.2965
 3435TIP3   OH231719   4.816   5.301   4.068  0.3241  0.2518  0.5434
 3435TIP3    H131720   4.901   5.271   4.100  0.5457  0.3405  0.0416
 3435TIP3    H231721   4.835   5.381   4.019  0.1749 -0.5980 -0.9505
 3436TIP3   OH231722   2.484   0.431  17.128  0.1824  0.9282  0.1118
 3436TIP3    H131723   2.488   0.433  17.032  1.7788 -0.2520  0.1022
 3436TIP3    H231724   2.394   0.405  17.148 -0.4827  2.2544 -1.0166
 3437TIP3   OH231725   2.354   1.076  17.148 -0.1363  0.2673 -0.1970
 3437TIP3    H131726   2.339   0.986  17.116 -0.2836 -0.4430  1.7394
 3437TIP3    H231727   2.303   1.131  17.088 -0.4007 -0.9734 -1.1647
 3438TIP3   OH231728   3.062   2.062  13.276 -0.0723 -0.5073  0.3560
 3438TIP3    H131729   3.075   2.028  13.364 -0.6902  0.1455  0.7125
 3438TIP3    H231730   2.969   2.047  13.258 -0.1724  0.2339  0.2092
 3439TIP3   OH231731   5.400   0.129  11.688  0.4851  0.4285 -1.0216
 3439TIP3    H131732   5.340   0.069  11.643  0.7508 -2.0869  1.7115
 3439TIP3    H231733   5.487   0.102  11.658  0.6406 -1.0427  0.5835
 3440TIP3   OH231734   3.715   3.193  16.752 -0.2341  0.0551 -0.3165
 3440TIP3    H131735   3.635   3.234  16.785 -0.0799 -0.2470  0.4642
 3440TIP3    H231736   3.785   3.228  16.808  0.2607  0.7336 -1.3396
 3441TIP3   OH231737   1.132   2.632  12.246 -0.2765 -0.3010 -0.4331
 3441TIP3    H131738   1.049   2.605  12.285 -0.4523 -0.3360 -0.8216
 3441TIP3    H231739   1.111   2.648  12.154  0.2762 -0.8866 -0.6699
 3442TIP3   OH231740   1.529   5.802  15.546  0.0009 -0.1505  0.2630
 3442TIP3    H131741   1.515   5.829  15.455  0.2108 -2.1987 -0.4402
 3442TIP3    H231742   1.590   5.865  15.581 -1.7321  1.9735 -0.3257
 3443TIP3   OH231743   4.524   6.108  17.235 -0.3050  0.4298  0.0682
 3443TIP3    H131744   4.596   6.046  17.236  0.8452  1.6917 -0.7014
 3443TIP3    H231745   4.484   6.100  17.322  0.2627 -0.8452  0.2246
 3444TIP3   OH231746   5.032   4.197  14.030 -0.5448  0.0417 -0.4420
 3444TIP3    H131747   5.077   4.280  14.016 -0.5705  0.1365  0.0120
 3444TIP3    H231748   5.097   4.140  14.071 -0.7131  0.0511 -0.1526
 3445TIP3   OH231749   1.604   2.214   5.707  0.1068  0.4176  0.4820
 3445TIP3    H131750   1.691   2.241   5.738 -0.3598  2.1439  0.3740
 3445TIP3    H231751   1.557   2.189   5.786  0.7838 -0.8771  0.5089
 3446TIP3   OH231752   4.334   0.576  16.695  0.4136 -0.4580  0.1251
 3446TIP3    H131753   4.340   0.609  16.605 -1.3053 -0.0881  0.1117
 3446TIP3    H231754   4.385   0.495  16.694 -0.2489 -0.8980 -1.4175
 3447TIP3   OH231755   4.826   0.026   2.072 -0.7115  0.3727 -0.1328
 3447TIP3    H131756   4.856   0.053   2.159  2.4564 -0.7732 -0.7321
 3447TIP3    H231757   4.857   0.095   2.014 -0.5158 -0.1312 -0.6338
 3448TIP3   OH231758   5.777   4.488   5.886  0.3807 -0.4321  0.1616
 3448TIP3    H131759   5.727   4.567   5.866  1.2550  0.2954  0.7310
 3448TIP3    H231760   5.778   4.484   5.981  1.4974 -0.3398  0.1691
 3449TIP3   OH231761   4.244   1.381   3.159  0.2979  0.4476 -0.0363
 3449TIP3    H131762   4.265   1.397   3.067 -2.4500  2.4902 -0.4648
 3449TIP3    H231763   4.187   1.303   3.157  0.1484  0.5571 -0.0991
 3450TIP3   OH231764   0.700   3.235   0.976 -0.1843  0.4303  0.6010
 3450TIP3    H131765   0.743   3.320   0.963  0.8213 -0.2236 -0.5364
 3450TIP3    H231766   0.752   3.192   1.043  0.2399  0.1072  0.0696
 3451TIP3   OH231767   4.919   3.617  10.658  0.2547  0.4373 -0.0939
 3451TIP3    H131768   4.882   3.528  10.653 -0.4105  0.7374 -0.6058
 3451TIP3    H231769   4.845   3.675  10.640  1.1164  1.0289 -1.9825
 3452TIP3   OH231770   4.798   3.474   5.063  0.0682 -0.2042 -0.0042
 3452TIP3    H131771   4.827   3.556   5.023 -2.0787  0.6109  0.0018
 3452TIP3    H231772   4.852   3.407   5.021  1.7053  1.1512 -0.1839
 3453TIP3   OH231773   4.259   1.148  13.515 -0.2727  0.1920 -0.2156
 3453TIP3    H131774   4.169   1.161  13.544  0.3817  1.5947  1.3765
 3453TIP3    H231775   4.291   1.236  13.494  0.6959 -0.2944 -0.8653
 3454TIP3   OH231776   4.970   4.555  12.981 -0.2126 -0.2577 -0.1695
 3454TIP3    H131777   4.889   4.563  13.032  0.2070  1.4940  0.3145
 3454TIP3    H231778   4.948   4.589  12.895 -0.3665 -1.2149 -0.5187
 3455TIP3   OH231779   2.168   3.638   4.336 -0.3678 -0.1053 -0.2631
 3455TIP3    H131780   2.200   3.686   4.260  1.0438 -1.6917 -0.7281
 3455TIP3    H231781   2.236   3.650   4.402 -0.6640 -0.3127  0.0823
 3456TIP3   OH231782   5.093   3.182   4.396 -0.3548 -0.0305 -0.4145
 3456TIP3    H131783   5.160   3.156   4.332  0.4253  0.8825  0.0115
 3456TIP3    H231784   5.142   3.226   4.465 -1.4337  0.9122 -0.2318
 3457TIP3   OH231785   5.976   2.955   2.728  0.7856 -0.6324  0.0630
 3457TIP3    H131786   5.917   2.977   2.656 -0.0409 -2.2579  0.1853
 3457TIP3    H231787   6.003   3.039   2.764  0.1928  0.1869 -1.3204
 3458TIP3   OH231788   6.031   3.084  15.759  0.0373  0.2339  0.2142
 3458TIP3    H131789   5.984   3.012  15.801  0.0103  0.5133  0.6758
 3458TIP3    H231790   6.123   3.062  15.771  0.0772  1.1983  2.0657
 3459TIP3   OH231791   3.239   3.670  12.528  0.8646  0.6920 -0.4273
 3459TIP3    H131792   3.208   3.728  12.598  0.8025 -0.1475  0.2676
 3459TIP3    H231793   3.300   3.724  12.478 -1.9849  2.5851 -2.1561
 3460TIP3   OH231794   0.367   4.198  16.215  0.6956  0.8920  0.3568
 3460TIP3    H131795   0.398   4.107  16.218  0.0468  0.6753  0.7287
 3460TIP3    H231796   0.325   4.206  16.129 -1.4903  0.0609  1.2823
 3461TIP3   OH231797   3.031   0.721  17.018  0.4013 -0.0025  0.5212
 3461TIP3    H131798   2.975   0.798  17.028 -0.9371 -1.1292  2.4489
 3461TIP3    H231799   3.082   0.738  16.939 -0.0529  2.7073  0.7333
 3462TIP3   OH231800   1.345   5.650  17.220  1.2216  0.3045 -0.5117
 3462TIP3    H131801   1.341   5.573  17.276 -0.1586  0.6825 -0.0725
 3462TIP3    H231802   1.367   5.614  17.133 -1.6606 -0.9073 -0.8456
 3463TIP3   OH231803   2.905   5.226   5.680  0.4618  0.4298 -0.1723
 3463TIP3    H131804   2.901   5.164   5.608  0.6605  0.4088 -0.1647
 3463TIP3    H231805   2.934   5.308   5.640  1.9463  0.0720  0.1060
 3464TIP3   OH231806   6.072   5.180  17.484  0.2346  0.0979  0.4478
 3464TIP3    H131807   6.161   5.153  17.508  0.3440 -0.5410 -0.6183
 3464TIP3    H231808   6.066   5.271  17.514  2.1225  1.0079 -1.5963
 3465TIP3   OH231809   1.034   0.967  17.323  0.1589  0.1062 -0.0030
 3465TIP3    H131810   0.973   0.917  17.378  0.8482 -1.8687 -0.9172
 3465TIP3    H231811   0.983   1.040  17.290 -1.6062 -1.2531 -0.4137
 3466TIP3   OH231812   1.338   0.290  17.214  0.1640 -0.3255 -0.2798
 3466TIP3    H131813   1.427   0.283  17.249  0.0368 -0.8053 -0.0484
 3466TIP3    H231814   1.338   0.374  17.167  0.5645 -0.0432  0.2066
 3467TIP3   OH231815   6.606   6.465   2.729  0.4771  0.2713  0.7845
 3467TIP3    H131816   6.543   6.513   2.675  2.8872  2.8387  0.0008
 3467TIP3    H231817   6.595   6.374   2.703 -3.2576  0.4712  1.1668
 3468TIP3   OH231818   1.793   4.042  11.626  0.0879 -0.0532  0.4049
 3468TIP3    H131819   1.854   4.085  11.686  0.4474  1.1215 -0.7629
 3468TIP3    H231820   1.779   3.955  11.664  0.4798  0.5658  2.0573
 3469TIP3   OH231821   3.605   2.815  16.090  0.0868 -0.4301  0.2289
 3469TIP3    H131822   3.631   2.906  16.100 -0.2858 -0.2492 -0.3946
 3469TIP3    H231823   3.645   2.770  16.165  2.5209 -0.2739 -0.9025
 3470TIP3   OH231824   2.905   2.025  15.181 -0.4352 -0.1248 -0.3182
 3470TIP3    H131825   2.898   2.092  15.249  0.3748 -0.7226  0.3855
 3470TIP3    H231826   2.866   1.947  15.220  0.0311 -0.4728 -0.5292
 3471TIP3   OH231827   2.772   1.206  13.548  0.2174  0.5327  0.0893
 3471TIP3    H131828   2.793   1.195  13.456  0.4794  0.0012  0.2103
 3471TIP3    H231829   2.845   1.257  13.584  0.2905  0.4373  0.0771
 3472TIP3   OH231830   3.026   2.639   3.264 -0.5287 -0.5714 -0.0536
 3472TIP3    H131831   3.035   2.702   3.192 -2.0058 -1.1629 -0.8199
 3472TIP3    H231832   3.050   2.688   3.342 -1.5315  0.9481 -0.6383
 3473TIP3   OH231833   1.749   1.177   5.850  0.2766  0.0172  0.9833
 3473TIP3    H131834   1.843   1.179   5.834 -0.0009 -2.0432 -1.7344
 3473TIP3    H231835   1.737   1.112   5.919  0.8116 -1.3033 -0.1009
 3474TIP3   OH231836   4.731   5.914   2.568 -0.4522 -0.2844  0.3633
 3474TIP3    H131837   4.735   5.854   2.643  1.6548 -1.2676 -0.4496
 3474TIP3    H231838   4.764   5.997   2.603  1.5678 -1.0169  0.3798
 3475TIP3   OH231839   2.379   5.565   5.455 -0.0299  0.8910  0.1702
 3475TIP3    H131840   2.460   5.578   5.405  0.3086  0.0282  0.4709
 3475TIP3    H231841   2.317   5.626   5.416 -0.0944 -0.4694 -2.0387
 3476TIP3   OH231842   4.684   5.887   1.823 -0.0893 -0.2387 -0.1205
 3476TIP3    H131843   4.758   5.843   1.782  0.1068 -0.3324  0.3365
 3476TIP3    H231844   4.609   5.867   1.766  0.2551 -0.0471 -0.6444
 3477TIP3   OH231845   6.165   4.138  12.558  0.0615  0.3666  0.3567
 3477TIP3    H131846   6.193   4.053  12.593 -0.9306  0.7304  2.1422
 3477TIP3    H231847   6.244   4.173  12.515  0.4614 -1.4630 -0.5027
 3478TIP3   OH231848   3.091   6.222   6.021  0.1229  0.4187 -0.3191
 3478TIP3    H131849   3.045   6.306   6.017  1.1726  0.9604 -2.1807
 3478TIP3    H231850   3.059   6.181   6.101 -3.2101  0.9799 -1.1911
 3479TIP3   OH231851   3.039   4.618  17.260 -0.1960  0.1386  0.2543
 3479TIP3    H131852   3.020   4.680  17.189  2.5537  1.7826  0.7910
 3479TIP3    H231853   3.025   4.668  17.340  0.4213 -0.4696  0.7516
 3480TIP3   OH231854   0.845   3.898  17.039 -0.4393  0.1188 -0.2780
 3480TIP3    H131855   0.794   3.974  17.012 -0.5100  0.7969  1.5876
 3480TIP3    H231856   0.783   3.825  17.037 -1.1358  0.6646  0.5771
 3481TIP3   OH231857   1.542   5.707   5.352 -0.6829 -1.2224  0.1580
 3481TIP3    H131858   1.563   5.648   5.425 -1.0906 -0.5681  0.8111
 3481TIP3    H231859   1.623   5.754   5.335 -0.6870 -1.1170  0.4288
 3482TIP3   OH231860   5.295   3.555  12.279  0.5285 -0.2817 -0.0196
 3482TIP3    H131861   5.363   3.492  12.300  0.0487 -0.9846 -0.5388
 3482TIP3    H231862   5.280   3.545  12.185 -1.0311 -0.8960  0.2697
 3483TIP3   OH231863   2.089   2.128  12.283 -0.2452  0.1933 -0.0502
 3483TIP3    H131864   2.015   2.067  12.285  0.8191 -1.1470 -0.3291
 3483TIP3    H231865   2.095   2.161  12.372 -0.1307 -1.0158  0.4102
 3484TIP3   OH231866   1.881   0.140  16.846  0.1660  0.0845  0.1663
 3484TIP3    H131867   1.806   0.107  16.797 -1.2178 -0.2234  2.3274
 3484TIP3    H231868   1.843   0.181  16.924  2.2554 -1.6864  2.3029
 3485TIP3   OH231869   3.767   6.174  10.804 -0.4988 -0.4433  0.5321
 3485TIP3    H131870   3.731   6.132  10.726  1.0452 -0.1975 -0.3449
 3485TIP3    H231871   3.796   6.100  10.859  0.8087 -0.6001 -0.3245
 3486TIP3   OH231872   5.008   0.466  13.904 -0.2006 -0.2834 -0.4467
 3486TIP3    H131873   4.956   0.501  13.832  1.3525  1.2707 -0.8793
 3486TIP3    H231874   4.968   0.503  13.983 -0.3759  0.0558 -0.6924
 3487TIP3   OH231875   4.355   5.193   4.235  0.4137 -0.4351 -0.4372
 3487TIP3    H131876   4.359   5.156   4.147  1.1988 -3.5028  0.7487
 3487TIP3    H231877   4.444   5.225   4.252  0.1156  0.6987 -0.9188
 3488TIP3   OH231878   1.693   3.161  16.572  0.3742  0.1756 -0.3898
 3488TIP3    H131879   1.755   3.204  16.630  1.7047  0.4035 -1.9065
 3488TIP3    H231880   1.735   3.078  16.549  0.4267  0.5856 -1.8842
 3489TIP3   OH231881   4.921   1.631   2.639 -0.3516 -0.1675 -0.1319
 3489TIP3    H131882   4.853   1.699   2.638 -0.3088 -0.1072 -1.9713
 3489TIP3    H231883   4.925   1.603   2.731 -3.6022 -0.9248 -0.0913
 3490TIP3   OH231884   3.901   4.287   0.374  0.3772 -0.0899 -0.8447
 3490TIP3    H131885   3.930   4.375   0.351  0.1453 -0.3937 -2.4857
 3490TIP3    H231886   3.845   4.261   0.300 -1.7325 -0.6078  0.8566
 3491TIP3   OH231887   4.048   1.870  12.744 -0.2270  0.1682  0.6441
 3491TIP3    H131888   4.058   1.794  12.801 -1.0458 -0.5179 -0.0945
 3491TIP3    H231889   3.971   1.916  12.780 -1.1980 -0.6649 -0.3151
 3492TIP3   OH231890   1.823   4.928  16.849 -0.4058  0.0953  0.1017
 3492TIP3    H131891   1.791   5.016  16.869  0.3607  0.3413  0.2654
 3492TIP3    H231892   1.745   4.873  16.857 -0.8574  0.7235  0.1885
 3493TIP3   OH231893   4.501   0.564   0.491 -0.6051  0.0042  0.1067
 3493TIP3    H131894   4.594   0.577   0.473 -0.8374  0.7609 -0.6138
 3493TIP3    H231895   4.493   0.470   0.507 -0.1977 -0.6665 -2.9517
 3494TIP3   OH231896   3.274   6.068  12.810 -0.2145 -0.1964  0.6968
 3494TIP3    H131897   3.228   6.007  12.751 -0.3408 -0.4970  1.0981
 3494TIP3    H231898   3.260   6.154  12.771 -1.0594 -0.2925  0.7623
 3495TIP3   OH231899   5.627   3.483  14.758  0.0630 -0.1622 -0.3754
 3495TIP3    H131900   5.636   3.474  14.853 -2.0949  2.9234  0.3112
 3495TIP3    H231901   5.702   3.536  14.732  0.4819 -0.7331 -0.3355
 3496TIP3   OH231902   5.260   1.733  15.768 -0.2710 -0.1086 -0.4657
 3496TIP3    H131903   5.335   1.684  15.733 -2.4979 -4.6803  0.3395
 3496TIP3    H231904   5.291   1.768  15.852  1.2061 -1.3200 -0.4570
 3497TIP3   OH231905   3.388   4.342  12.475 -0.2368  0.4538  0.1955
 3497TIP3    H131906   3.421   4.375  12.559 -1.2563 -1.1607  1.3045
 3497TIP3    H231907   3.295   4.364  12.477 -0.2712  0.3659 -0.4993
 3498TIP3   OH231908   0.321   6.465  17.204  0.3525  0.6482  0.5794
 3498TIP3    H131909   0.260   6.518  17.254 -0.2186  0.5917 -0.0430
 3498TIP3    H231910   0.268   6.424  17.136  0.9538  0.0339  0.4619
 3499TIP3   OH231911   2.610   1.429   6.399  0.0928 -0.1172  0.2034
 3499TIP3    H131912   2.609   1.334   6.393 -0.0529 -0.2142  1.5495
 3499TIP3    H231913   2.518   1.455   6.386 -0.3382 -0.3716  2.3546
 3500TIP3   OH231914   4.654   3.589  10.852  0.5261 -0.0271  0.5517
 3500TIP3    H131915   4.664   3.508  10.803 -1.8832  0.5297 -1.0258
 3500TIP3    H231916   4.560   3.608  10.850  0.5336  1.1214  3.7002
 3501TIP3   OH231917   0.217   1.221   2.901 -0.2739  0.1775 -0.1968
 3501TIP3    H131918   0.190   1.312   2.914  0.6925  0.5539 -0.6595
 3501TIP3    H231919   0.303   1.228   2.859  0.4444 -0.9447  1.0140
 3502TIP3   OH231920   6.623   5.286  14.658 -0.7052  0.6320  0.9327
 3502TIP3    H131921   6.667   5.363  14.693  3.0130 -1.5156  1.5357
 3502TIP3    H231922   6.651   5.281  14.567  0.2153 -0.6545  1.2567
 3503TIP3   OH231923   5.952   5.719   2.365 -0.2934 -0.1401  0.3310
 3503TIP3    H131924   5.926   5.792   2.309  0.6396 -0.9887 -1.2768
 3503TIP3    H231925   5.921   5.641   2.319  2.3587 -0.9869 -0.1877
 3504TIP3   OH231926   6.582   4.132   5.452 -0.0570 -0.2080 -0.3791
 3504TIP3    H131927   6.612   4.208   5.501  1.3317 -1.1389  0.3083
 3504TIP3    H231928   6.491   4.152   5.429  0.4665  1.9039 -0.7877
 3505TIP3   OH231929   2.895   1.303   5.787  0.2268  0.4133 -0.8004
 3505TIP3    H131930   2.892   1.389   5.828  0.0161 -0.6482  1.5473
 3505TIP3    H231931   2.985   1.273   5.800 -0.1372 -0.3984 -0.0968
 3506TIP3   OH231932   5.508   3.456  10.997  0.0979 -0.2808 -0.1988
 3506TIP3    H131933   5.498   3.384  11.059  1.1924 -1.7402 -1.6398
 3506TIP3    H231934   5.445   3.437  10.928  2.2008 -1.4158 -1.9272
 3507TIP3   OH231935   1.869   0.986  11.567 -0.1275 -1.1496 -0.0193
 3507TIP3    H131936   1.798   0.972  11.630  0.5472  0.5687  1.1720
 3507TIP3    H231937   1.946   1.003  11.621  0.3300  1.1049 -1.2641
 3508TIP3   OH231938   0.740   0.297  10.919  0.1350  0.3852  0.1716
 3508TIP3    H131939   0.707   0.336  11.000 -0.1587 -2.6358  1.6404
 3508TIP3    H231940   0.680   0.225  10.900  1.6755 -0.6055 -1.2657
 3509TIP3   OH231941   1.152   4.314   2.461 -0.1850  0.0338 -0.6400
 3509TIP3    H131942   1.100   4.356   2.529  0.3847  0.4124 -0.4238
 3509TIP3    H231943   1.203   4.385   2.423  2.2996 -0.6671  1.0639
 3510TIP3   OH231944   3.935   1.583   3.009  0.3823 -0.6493  0.0276
 3510TIP3    H131945   3.969   1.504   3.051  1.2244  0.8134  2.2937
 3510TIP3    H231946   4.001   1.607   2.945  0.5714 -1.2632 -0.0091
 3511TIP3   OH231947   0.744   2.906  11.948  0.0282 -0.7909  0.1929
 3511TIP3    H131948   0.664   2.884  11.997 -1.2273 -2.0948 -2.2369
 3511TIP3    H231949   0.750   2.838  11.881  3.3799 -0.8792  0.4283
 3512TIP3   OH231950   2.759   2.314   2.595  0.4145  0.3972 -0.2172
 3512TIP3    H131951   2.768   2.392   2.541  0.4421 -0.0219 -0.8289
 3512TIP3    H231952   2.688   2.335   2.656  0.7925  1.0964 -0.0172
 3513TIP3   OH231953   5.394   4.246   0.943 -0.0988 -0.0559 -0.3248
 3513TIP3    H131954   5.350   4.178   0.994  2.6523 -1.6039  0.2252
 3513TIP3    H231955   5.344   4.252   0.862 -1.5399 -1.3620  0.4206
 3514TIP3   OH231956   2.148   3.306  13.439  0.2649  0.3262 -0.3893
 3514TIP3    H131957   2.181   3.389  13.405  1.5404 -0.2434 -0.6000
 3514TIP3    H231958   2.181   3.302  13.528  1.9886 -0.8504 -1.0214
 3515TIP3   OH231959   3.256   4.164  13.683  0.3314  0.3448  0.4019
 3515TIP3    H131960   3.175   4.114  13.694  0.8801 -0.4091  1.1845
 3515TIP3    H231961   3.230   4.255  13.696 -0.0196 -0.0524  3.1551
 3516TIP3   OH231962   3.668   2.940  14.518 -0.4568 -0.3532  0.6294
 3516TIP3    H131963   3.738   2.884  14.484 -0.7530  0.2716 -1.1296
 3516TIP3    H231964   3.707   3.028  14.519 -0.5499 -0.3137  1.7142
 3517TIP3   OH231965   0.035   5.344  16.394  0.6433  0.3690 -0.5512
 3517TIP3    H131966  -0.008   5.355  16.310  0.7727  0.1763 -0.6417
 3517TIP3    H231967   0.054   5.251  16.400 -0.5896  0.1433  0.2883
 3518TIP3   OH231968   1.293   1.909   1.361  0.6242  0.3319  0.2203
 3518TIP3    H131969   1.234   1.920   1.286  1.1850  0.7732 -0.1661
 3518TIP3    H231970   1.254   1.962   1.430 -0.3834 -0.7778  0.5489
 3519TIP3   OH231971   1.221   1.865   2.838 -0.8316  0.6729  0.2356
 3519TIP3    H131972   1.219   1.772   2.815  2.5850  0.2459  1.0628
 3519TIP3    H231973   1.250   1.908   2.757  0.4093  0.5847  0.6068
 3520TIP3   OH231974   3.727   6.730   6.100  0.7305 -0.6104  0.2371
 3520TIP3    H131975   3.765   6.742   6.187 -0.4848 -3.0968  1.2149
 3520TIP3    H231976   3.678   6.647   6.106 -1.5253  0.3997 -2.0597
 3521TIP3   OH231977   0.842   0.588  12.557 -0.4873 -0.6025  0.5176
 3521TIP3    H131978   0.815   0.640  12.481  1.1884 -0.2999  0.0846
 3521TIP3    H231979   0.787   0.621  12.629 -1.5439 -0.3410 -0.3702
 3522TIP3   OH231980   6.183   4.977  17.172  0.1719 -0.1194  0.6506
 3522TIP3    H131981   6.217   4.913  17.110 -1.6095 -1.5995  1.1204
 3522TIP3    H231982   6.257   5.000  17.227  1.3138 -0.2324 -0.7975
 3523TIP3   OH231983   3.395   1.816   2.159 -0.0280 -0.5380 -0.5000
 3523TIP3    H131984   3.305   1.802   2.189  0.4347 -2.7593  0.0648
 3523TIP3    H231985   3.449   1.797   2.235  0.9425  1.4142 -0.6476
 3524TIP3   OH231986   3.933   1.891   5.471  0.1762  0.3966 -0.0812
 3524TIP3    H131987   3.846   1.860   5.494  0.4999 -0.4406  0.0426
 3524TIP3    H231988   3.993   1.839   5.524  0.8397 -0.3217 -1.4576
 3525TIP3   OH231989   3.242   3.959  14.390  0.2444 -0.1107  0.3421
 3525TIP3    H131990   3.213   4.021  14.323  1.7927 -0.6896 -0.9349
 3525TIP3    H231991   3.338   3.961  14.385  0.3989 -0.4271  2.3428
 3526TIP3   OH231992   1.483   2.561  12.848 -0.4916 -0.2525 -0.2609
 3526TIP3    H131993   1.404   2.600  12.885  0.1571  1.2402 -0.3906
 3526TIP3    H231994   1.554   2.595  12.903  0.0793 -1.6138 -0.1090
 3527TIP3   OH231995   2.042   3.017  15.850  0.2464 -0.0215 -0.2013
 3527TIP3    H131996   1.968   3.021  15.789  0.9747  1.8641 -1.0357
 3527TIP3    H231997   2.002   2.993  15.934 -1.7279  2.8931 -0.1405
 3528TIP3   OH231998   0.538   2.546  12.827 -0.1293 -0.0350 -0.2369
 3528TIP3    H131999   0.459   2.568  12.875  0.0290  2.2584 -0.9164
 3528TIP3    H232000   0.507   2.518  12.741 -0.2272  0.2905 -0.3079
 3529TIP3   OH232001   0.892   3.836  11.898 -0.0902 -0.2565 -0.2149
 3529TIP3    H132002   0.853   3.923  11.904  0.5051 -0.0131  0.2606
 3529TIP3    H232003   0.818   3.776  11.903 -0.6240  0.2324 -1.7328
 3530TIP3   OH232004   1.566   0.295  14.246 -0.2595  0.2235 -0.6090
 3530TIP3    H132005   1.628   0.361  14.278 -0.4071 -1.1957  3.1119
 3530TIP3    H232006   1.480   0.334  14.263 -0.3389 -0.3674  0.4334
 3531TIP3   OH232007   4.830   5.734   3.730  0.4447 -0.2822  0.0367
 3531TIP3    H132008   4.889   5.754   3.803 -0.3260  0.5366  0.4426
 3531TIP3    H232009   4.868   5.655   3.691  1.5566 -0.0332  0.5610
 3532TIP3   OH232010   4.309   5.006  14.181  0.2593  0.1116  0.7085
 3532TIP3    H132011   4.392   5.031  14.221  0.2511  0.9176  0.2636
 3532TIP3    H232012   4.248   4.999  14.255  0.3768  1.0169  0.9115
 3533TIP3   OH232013   4.201   0.121   1.009 -0.1660  0.1747  0.8222
 3533TIP3    H132014   4.164   0.153   1.091 -1.6791 -1.5306  0.8835
 3533TIP3    H232015   4.253   0.045   1.033  2.5118  1.7951  0.5671
 3534TIP3   OH232016   5.457   3.252  12.906 -0.6013 -0.4382  0.6533
 3534TIP3    H132017   5.387   3.314  12.925 -1.6357 -0.8591 -1.5480
 3534TIP3    H232018   5.523   3.304  12.859 -0.1012 -0.3911  1.3806
 3535TIP3   OH232019   0.916   1.266  15.799 -0.1856 -0.4813  0.3168
 3535TIP3    H132020   0.826   1.283  15.828  0.3466  2.6143  0.4714
 3535TIP3    H232021   0.969   1.274  15.879  0.6934  2.9526 -0.4199
 3536TIP3   OH232022   2.461   6.702  12.933 -0.0447 -0.2187 -0.2627
 3536TIP3    H132023   2.493   6.615  12.957 -1.7575 -0.6285  0.7377
 3536TIP3    H232024   2.503   6.760  12.996  1.7777 -0.1375 -1.4617
 3537TIP3   OH232025   2.436   3.311  17.337  0.0483 -0.3406  0.1668
 3537TIP3    H132026   2.469   3.395  17.370  0.4621 -0.5956  0.4106
 3537TIP3    H232027   2.469   3.305  17.248  1.1373 -0.8435  0.5884
 3538TIP3   OH232028   1.769   1.222   5.015 -0.3083 -0.1995  0.8716
 3538TIP3    H132029   1.841   1.275   4.979  0.6331 -1.7904  0.3283
 3538TIP3    H232030   1.807   1.135   5.028 -2.1893 -1.1336  0.4134
 3539TIP3   OH232031   1.460   3.741  12.579  0.1264  0.5199  0.3741
 3539TIP3    H132032   1.438   3.818  12.631 -2.7969  0.4128 -0.5300
 3539TIP3    H232033   1.447   3.667  12.639 -1.1169  0.5279  0.1424
 3540TIP3   OH232034   1.256   4.281  14.894 -0.3396  0.2635 -0.0778
 3540TIP3    H132035   1.199   4.358  14.897 -0.5030  0.1304  0.2360
 3540TIP3    H232036   1.314   4.297  14.819  0.0550  0.9978  0.3754
 3541TIP3   OH232037   6.213   1.254  16.179  0.2437  0.4621 -0.3372
 3541TIP3    H132038   6.212   1.349  16.191 -0.3744  0.6038 -1.4243
 3541TIP3    H232039   6.290   1.238  16.124  0.2736  0.3376 -0.2594
 3542TIP3   OH232040   2.685   2.048   0.475 -0.1543  0.3227 -0.5117
 3542TIP3    H132041   2.592   2.069   0.487 -1.0232 -1.8594 -2.5644
 3542TIP3    H232042   2.692   1.957   0.503  1.2632  0.2959 -0.9000
 3543TIP3   OH232043   3.286   0.343   4.704 -0.6754  0.2045  0.2107
 3543TIP3    H132044   3.267   0.432   4.732 -0.6891  0.4075 -0.4339
 3543TIP3    H232045   3.378   0.329   4.727 -0.5647  0.5187 -0.0351
 3544TIP3   OH232046   4.680   3.880   4.746 -0.2765 -0.2423  0.6992
 3544TIP3    H132047   4.757   3.857   4.694  0.2860  0.3867  1.2332
 3544TIP3    H232048   4.614   3.904   4.682  0.2001 -0.1007  0.2510
 3545TIP3   OH232049   3.169   4.033  16.251  0.0624  0.2992 -0.2845
 3545TIP3    H132050   3.256   4.015  16.215  0.3266 -0.3489  0.6356
 3545TIP3    H232051   3.110   4.023  16.177  0.5622 -1.2614 -0.5133
 3546TIP3   OH232052   1.241   6.012   1.560  0.4206  0.0996 -0.7802
 3546TIP3    H132053   1.194   6.027   1.478  0.0157  0.0080 -0.5667
 3546TIP3    H232054   1.213   6.083   1.618 -1.2988 -1.2421  0.1440
 3547TIP3   OH232055   6.680   4.514  15.782  0.2176 -0.7655 -0.1990
 3547TIP3    H132056   6.770   4.484  15.766  0.3807 -0.6255  0.4141
 3547TIP3    H232057   6.651   4.462  15.857 -1.2884 -2.9601 -2.1683
 3548TIP3   OH232058   5.385   5.397  12.315  0.7378 -0.0505  0.2027
 3548TIP3    H132059   5.461   5.432  12.267 -1.0635  0.4734 -2.4738
 3548TIP3    H232060   5.403   5.303  12.323  1.4866 -0.0143 -0.8044
 3549TIP3   OH232061   6.169   2.596   5.137 -0.6437  0.1592  0.3238
 3549TIP3    H132062   6.234   2.665   5.129  0.4247 -0.9605 -1.4155
 3549TIP3    H232063   6.106   2.629   5.200  1.3176  1.5227  1.6784
 3550TIP3   OH232064   2.897   4.122  17.004 -0.1247 -0.1971 -0.7018
 3550TIP3    H132065   2.908   4.207  17.047  0.9830 -0.4180 -0.5136
 3550TIP3    H232066   2.803   4.105  17.008 -0.1332  0.0746  1.1187
 3551TIP3   OH232067   5.999   3.570   5.921  0.2019 -0.6722 -0.7479
 3551TIP3    H132068   5.985   3.478   5.900  1.4519 -0.9839 -0.2796
 3551TIP3    H232069   6.081   3.572   5.969 -1.2877  0.2801  2.0092
 3552TIP3   OH232070   2.690   6.211  12.355 -0.7497 -0.2819  0.0471
 3552TIP3    H132071   2.712   6.188  12.265 -1.4434  0.3805 -0.3009
 3552TIP3    H232072   2.603   6.175  12.369 -1.1016  0.5453  0.0751
 3553TIP3   OH232073   6.255   4.165   5.522  0.3562  0.0387  0.3061
 3553TIP3    H132074   6.205   4.085   5.507  0.2375  0.2617 -0.5614
 3553TIP3    H232075   6.223   4.226   5.455  0.4997  0.7867  0.9073
 3554TIP3   OH232076   5.399   1.351  15.822 -0.1946  0.0847 -0.7540
 3554TIP3    H132077   5.482   1.383  15.787 -0.5591  1.4348 -0.4306
 3554TIP3    H232078   5.379   1.409  15.895 -1.6585  0.0863 -1.1289
 3555TIP3   OH232079   1.566   4.052   2.750  0.2172  0.3270 -0.0772
 3555TIP3    H132080   1.629   4.124   2.753  1.8408 -1.0487 -0.1399
 3555TIP3    H232081   1.582   4.008   2.667 -0.3561 -0.4525  0.2094
 3556TIP3   OH232082   6.643   1.347   4.754 -0.4919  0.0457  0.1291
 3556TIP3    H132083   6.606   1.296   4.682 -2.6552 -1.5033  2.1602
 3556TIP3    H232084   6.737   1.333   4.749 -0.5897 -0.0673 -2.2958
 3557TIP3   OH232085   3.598   4.723  13.728 -0.2225  0.9340 -0.2807
 3557TIP3    H132086   3.644   4.796  13.770  0.7384 -0.1378  0.5971
 3557TIP3    H232087   3.652   4.646  13.748 -0.2396  0.2200 -2.7009
 3558TIP3   OH232088   2.059   0.327   1.467  0.4649 -0.4371 -0.2017
 3558TIP3    H132089   2.072   0.407   1.517 -0.7406 -0.3371 -0.0065
 3558TIP3    H232090   2.021   0.266   1.530  1.4697 -1.2138 -0.3211
 3559TIP3   OH232091   6.242   2.885  11.837 -0.2489 -0.3489  0.5332
 3559TIP3    H132092   6.295   2.944  11.783  0.0405  1.7926  2.9268
 3559TIP3    H232093   6.152   2.910  11.818 -0.2323 -0.8660 -0.2524
 3560TIP3   OH232094   3.460   1.250  14.255  0.5853  0.1201 -0.2079
 3560TIP3    H132095   3.472   1.309  14.181 -1.1325 -0.3744 -0.9273
 3560TIP3    H232096   3.387   1.194  14.230 -1.3824  1.1951  2.6060
 3561TIP3   OH232097   2.666   3.113   5.648 -0.0115  0.2674 -0.6775
 3561TIP3    H132098   2.751   3.132   5.608  1.6218 -0.7889  2.0445
 3561TIP3    H232099   2.630   3.042   5.595  1.9892 -0.9908 -0.4356
 3562TIP3   OH232100   3.793   0.312   4.164 -0.5683 -0.0982 -1.1914
 3562TIP3    H132101   3.775   0.239   4.104  0.8339 -2.1628  0.7234
 3562TIP3    H232102   3.876   0.349   4.132 -0.7964  0.0545 -1.6163
 3563TIP3   OH232103   4.525   2.303  10.709  0.2657  0.2502  0.2143
 3563TIP3    H132104   4.496   2.220  10.671  2.6120  0.2257 -1.7841
 3563TIP3    H232105   4.446   2.357  10.713 -0.9016 -1.3412 -0.4806
 3564TIP3   OH232106   5.801   3.180   3.130 -0.1618 -0.1801  0.0346
 3564TIP3    H132107   5.731   3.116   3.119  0.1333 -0.8098  1.6200
 3564TIP3    H232108   5.861   3.141   3.193  0.6499  1.1628  0.1494
 3565TIP3   OH232109   2.150   3.140  14.645  0.3338 -0.4434  0.1403
 3565TIP3    H132110   2.196   3.106  14.568 -0.7786 -1.4114 -0.1236
 3565TIP3    H232111   2.084   3.074  14.665  0.4452 -0.0876  1.7938
 3566TIP3   OH232112   6.187   2.040  10.635 -0.0555 -0.2087 -0.4472
 3566TIP3    H132113   6.096   2.052  10.609 -0.5928 -0.3688  1.2072
 3566TIP3    H232114   6.190   2.071  10.725  1.8443  1.0298 -0.8856
 3567TIP3   OH232115   4.793   2.104  16.946  0.0155 -0.3724 -0.1549
 3567TIP3    H132116   4.711   2.146  16.921  0.3987  0.5781  0.1115
 3567TIP3    H232117   4.813   2.045  16.874 -1.5062 -1.5472  0.3202
 3568TIP3   OH232118   6.547   2.073   6.430 -0.2756  0.4365 -0.4249
 3568TIP3    H132119   6.574   2.083   6.521 -1.5804 -0.3498  0.0689
 3568TIP3    H232120   6.453   2.055   6.435 -0.6098  1.5377 -1.9880
 3569TIP3   OH232121   1.198   4.742   5.291  0.6505  0.1761  0.0113
 3569TIP3    H132122   1.103   4.731   5.296  0.8107 -1.7854 -0.3436
 3569TIP3    H232123   1.231   4.707   5.373  1.1830 -1.4620 -0.8526
 3570TIP3   OH232124   4.344   3.715   3.004 -0.1056 -0.3221  0.4507
 3570TIP3    H132125   4.262   3.715   2.954  0.1185 -0.1818  0.0733
 3570TIP3    H232126   4.333   3.646   3.069  0.0107 -1.2739 -0.5086
 3571TIP3   OH232127   0.086   2.247  11.475 -0.5707 -0.1886  0.1331
 3571TIP3    H132128   0.151   2.229  11.543 -3.0163 -3.2869  1.9919
 3571TIP3    H232129   0.120   2.205  11.397  0.1696 -0.8361  0.7834
 3572TIP3   OH232130   4.057   0.179  15.025  0.3545 -0.4588 -0.2183
 3572TIP3    H132131   4.081   0.259  14.979 -0.6143 -0.7805 -1.3209
 3572TIP3    H232132   4.104   0.184  15.108 -1.1412  2.1341  0.5630
 3573TIP3   OH232133   1.742   4.628  12.169  0.1685  0.5386 -0.0412
 3573TIP3    H132134   1.764   4.535  12.160  1.0841  0.4856  2.1798
 3573TIP3    H232135   1.767   4.667  12.085  1.8555 -0.8671 -0.2462
 3574TIP3   OH232136   5.835   1.780   2.899 -0.7172 -0.1448 -0.1123
 3574TIP3    H132137   5.769   1.765   2.966 -1.8477 -0.1131 -1.1882
 3574TIP3    H232138   5.911   1.815   2.947 -0.5193 -2.5309  1.5047
 3575TIP3   OH232139   5.876   0.253  12.420  0.4259  0.2961 -0.2878
 3575TIP3    H132140   5.933   0.287  12.351  1.0451  1.0172  0.5512
 3575TIP3    H232141   5.839   0.331  12.461 -0.4214 -0.1416 -0.2076
 3576TIP3   OH232142   1.880   0.893  11.827 -0.0735  0.3546  1.0226
 3576TIP3    H132143   1.903   0.834  11.756 -1.4971  0.5587  0.3644
 3576TIP3    H232144   1.946   0.876  11.895  3.6737  2.7506 -1.6574
 3577TIP3   OH232145   5.856   6.359  17.324  0.2134 -0.5931 -0.0518
 3577TIP3    H132146   5.807   6.442  17.325 -0.8569 -1.2107 -0.0879
 3577TIP3    H232147   5.788   6.291  17.325  0.9979 -1.4989 -2.1815
 3578TIP3   OH232148   3.007   2.048   0.489 -0.0800 -0.2114 -0.0554
 3578TIP3    H132149   2.923   2.050   0.443 -1.0338 -3.5014  1.2640
 3578TIP3    H232150   2.992   1.991   0.565  3.9132 -3.4220 -1.2618
 3579TIP3   OH232151   1.327   1.459  16.126  0.0547  0.0468  0.2703
 3579TIP3    H132152   1.383   1.532  16.152 -0.0859  0.1501  0.2834
 3579TIP3    H232153   1.360   1.384  16.177  0.6048 -0.0487 -0.2120
 3580TIP3   OH232154   0.888   3.261  15.582 -0.0681 -0.1492  0.3308
 3580TIP3    H132155   0.876   3.318  15.506  1.5067  1.8535  1.4762
 3580TIP3    H232156   0.825   3.189  15.569 -1.8490  1.6079 -1.4110
 3581TIP3   OH232157   5.731   2.781   0.625 -0.0775 -0.5902  0.1094
 3581TIP3    H132158   5.770   2.838   0.559  2.1328 -1.2040  0.8174
 3581TIP3    H232159   5.639   2.807   0.628  0.9591  3.5826  1.0281
 3582TIP3   OH232160   1.489   2.223   0.215 -0.5142  0.4088 -0.5775
 3582TIP3    H132161   1.523   2.310   0.234 -0.0654 -0.1106  1.1720
 3582TIP3    H232162   1.420   2.209   0.281 -0.4165 -0.6342 -0.6746
 3583TIP3   OH232163   5.380   3.874  13.334  0.1067 -0.1028 -0.0518
 3583TIP3    H132164   5.423   3.796  13.300  0.6953  0.2093 -0.0349
 3583TIP3    H232165   5.446   3.917  13.389 -0.5725 -0.1799  0.8561
 3584TIP3   OH232166   6.451   1.830  14.005  0.0946 -0.4700 -0.4756
 3584TIP3    H132167   6.453   1.869  14.092 -0.7950 -3.0236  0.8036
 3584TIP3    H232168   6.537   1.788  13.996  0.5184  0.5181 -1.2442
 3585TIP3   OH232169   1.609   4.309  13.056 -0.5201 -0.3796  0.3237
 3585TIP3    H132170   1.622   4.362  13.135  1.0590 -1.3427  0.7441
 3585TIP3    H232171   1.574   4.371  12.992 -2.2452  0.3393  1.8705
 3586TIP3   OH232172   6.221   4.211   3.651 -0.0392 -0.7584 -0.6947
 3586TIP3    H132173   6.249   4.298   3.623  0.2748 -0.9593 -1.0220
 3586TIP3    H232174   6.218   4.215   3.746  0.9430 -0.6736 -0.6568
 3587TIP3   OH232175   4.801   3.566  13.521  0.3222 -0.0942 -0.1114
 3587TIP3    H132176   4.831   3.570  13.430  1.0430 -2.7952 -0.0700
 3587TIP3    H232177   4.707   3.546  13.514  0.6474 -1.6233 -0.2913
 3588TIP3   OH232178   5.586   4.042   2.508 -0.3207  0.4109 -0.4644
 3588TIP3    H132179   5.504   4.089   2.524 -1.6860 -2.5839  2.7124
 3588TIP3    H232180   5.558   3.957   2.472  1.5494 -0.0707 -0.8857
 3589TIP3   OH232181   4.169   3.833   3.359  0.2471  0.3372 -0.1102
 3589TIP3    H132182   4.252   3.856   3.317  0.3904  0.9835  0.5013
 3589TIP3    H232183   4.141   3.753   3.314  1.1143  0.2024 -0.4401
 3590TIP3   OH232184   5.603   2.514  12.394  0.6664 -0.0102 -0.2030
 3590TIP3    H132185   5.645   2.431  12.374 -2.1181 -1.7521  0.5349
 3590TIP3    H232186   5.601   2.561  12.311 -1.7965 -2.7765 -1.9216
 3591TIP3   OH232187   2.241   0.893  14.077  0.1214 -0.1363 -0.0489
 3591TIP3    H132188   2.322   0.873  14.030  0.1716 -1.5599  0.5928
 3591TIP3    H232189   2.171   0.856  14.023 -0.0509  0.5023 -0.2718
 3592TIP3   OH232190   4.822   5.120  10.796 -0.4906  0.1425 -0.2800
 3592TIP3    H132191   4.877   5.139  10.720  0.1636  1.1007  0.4129
 3592TIP3    H232192   4.871   5.054  10.844 -1.0995 -0.7736 -0.8735
 3593TIP3   OH232193   5.822   3.896  16.440 -0.3594  0.3923 -0.1193
 3593TIP3    H132194   5.862   3.891  16.353 -1.7456 -1.0669 -0.7186
 3593TIP3    H232195   5.728   3.889  16.424 -1.0133  4.1030  1.2377
 3594TIP3   OH232196   0.459   6.644   2.191  0.3526 -0.0756  0.1399
 3594TIP3    H132197   0.491   6.633   2.102 -0.0398 -0.5485  0.0551
 3594TIP3    H232198   0.455   6.739   2.203  1.3737 -0.0085  0.0117
 3595TIP3   OH232199   0.475   6.055   4.117  0.1049 -0.8547  0.1238
 3595TIP3    H132200   0.470   5.977   4.172  1.4286 -0.7466  0.4283
 3595TIP3    H232201   0.551   6.040   4.060  0.5449  0.3194  0.3754
 3596TIP3   OH232202   6.229   6.000   1.249 -0.0053  0.6632 -0.3453
 3596TIP3    H132203   6.143   6.037   1.229 -0.2904  1.4068  1.9934
 3596TIP3    H232204   6.220   5.965   1.338  2.2834  1.4125  0.2550
 3597TIP3   OH232205   2.574   5.857  14.300  0.0549 -0.2104  0.5050
 3597TIP3    H132206   2.484   5.882  14.322  0.1416 -0.5208  1.2573
 3597TIP3    H232207   2.629   5.919  14.348  0.2523  0.6510 -0.7913
 3598TIP3   OH232208   0.859   1.329  13.711  0.2533 -0.0875 -0.3028
 3598TIP3    H132209   0.886   1.322  13.803 -1.0702  0.3646  0.1395
 3598TIP3    H232210   0.784   1.269  13.704  0.8902 -0.7922 -1.3224
 3599TIP3   OH232211   1.724   3.424   0.532  0.2973 -0.2317 -0.2993
 3599TIP3    H132212   1.717   3.371   0.453  3.2550  3.4959 -3.5291
 3599TIP3    H232213   1.648   3.482   0.529  0.1887 -0.3721 -0.2148
 3600TIP3   OH232214   4.497   4.632  15.233 -0.5166  0.3199  0.3641
 3600TIP3    H132215   4.556   4.557  15.239 -3.3651 -2.0298  1.6874
 3600TIP3    H232216   4.515   4.683  15.312  2.8222  2.3950 -1.4737
 3601TIP3   OH232217   0.888   6.185   2.030 -0.8902  0.4295 -1.0184
 3601TIP3    H132218   0.842   6.154   2.108  1.6022 -0.6201  0.1330
 3601TIP3    H232219   0.864   6.122   1.962  0.6395 -1.6000  0.1921
 3602TIP3   OH232220   4.512   5.550  15.849  0.6391 -0.0539  0.3541
 3602TIP3    H132221   4.457   5.501  15.911 -0.3645  2.0955  1.2452
 3602TIP3    H232222   4.476   5.528  15.763  1.0123 -1.8010  0.5956
 3603TIP3   OH232223   2.768   2.178  16.952  0.3096 -0.3591  0.0713
 3603TIP3    H132224   2.802   2.258  16.993  2.6361 -1.0195 -0.4243
 3603TIP3    H232225   2.779   2.110  17.020 -1.1878 -0.3847  0.3170
 3604TIP3   OH232226   2.626   3.169   6.306 -0.1634 -0.4253  0.2481
 3604TIP3    H132227   2.656   3.158   6.215  1.5222 -0.0496  0.7138
 3604TIP3    H232228   2.707   3.164   6.358 -1.2290 -1.8882  1.8590
 3605TIP3   OH232229   2.535   1.372  15.584  0.6433 -0.3374 -0.0042
 3605TIP3    H132230   2.461   1.349  15.640 -0.4252  0.3433 -1.0880
 3605TIP3    H232231   2.607   1.318  15.616 -0.8742 -2.7053 -0.3427
 3606TIP3   OH232232   3.160   4.868  17.196 -0.0099 -0.1860 -0.1842
 3606TIP3    H132233   3.132   4.871  17.104  0.1340  0.1808 -0.2168
 3606TIP3    H232234   3.255   4.876  17.193 -0.1858  3.4506  0.1408
 3607TIP3   OH232235   2.935   3.843  15.711 -0.0260 -0.2567  0.6267
 3607TIP3    H132236   2.847   3.881  15.702  0.3909  0.1651 -3.3562
 3607TIP3    H232237   2.994   3.916  15.693  1.0477 -1.1284  0.5884
 3608TIP3   OH232238   3.431   4.769   5.735 -0.5872 -0.1481  0.3432
 3608TIP3    H132239   3.521   4.741   5.721 -0.2526  0.6567  0.8353
 3608TIP3    H232240   3.405   4.810   5.653  0.0581  1.0818  0.7313
 3609TIP3   OH232241   3.872   6.590   0.141  0.2576 -0.0416 -0.2248
 3609TIP3    H132242   3.787   6.552   0.161  0.4285 -0.5978 -0.5380
 3609TIP3    H232243   3.865   6.682   0.169 -0.0664 -0.3642  0.7964
 3610TIP3   OH232244   3.479   5.245   6.398  0.4147 -0.1581 -0.5042
 3610TIP3    H132245   3.528   5.199   6.331 -2.1264 -1.7909 -1.3753
 3610TIP3    H232246   3.448   5.325   6.355  0.9868  0.1222 -0.4112
 3611TIP3   OH232247   2.635   1.240  11.599 -0.2592  0.0416  0.5548
 3611TIP3    H132248   2.551   1.198  11.622 -0.4424  0.7551  1.2487
 3611TIP3    H232249   2.656   1.294  11.676 -0.1271  1.3646 -0.3726
 3612TIP3   OH232250   4.363   6.664   3.523 -0.2261  0.0770  0.5230
 3612TIP3    H132251   4.449   6.636   3.555  0.0825  0.7733  0.3203
 3612TIP3    H232252   4.333   6.592   3.468  0.5300  0.1115  0.0563
 3613TIP3   OH232253   4.690   1.500   0.284 -0.6057 -0.3630  0.3045
 3613TIP3    H132254   4.719   1.571   0.227 -3.0122 -0.0079 -0.6253
 3613TIP3    H232255   4.618   1.538   0.335 -2.2467 -2.1868 -0.5285
 3614TIP3   OH232256   4.174   0.247  13.564 -0.3785  0.1077 -0.3411
 3614TIP3    H132257   4.108   0.190  13.524  0.9020 -0.2862 -2.0463
 3614TIP3    H232258   4.225   0.188  13.619 -0.5395  0.1012 -0.1990
 3615TIP3   OH232259   0.409   0.015   1.742  0.0128  0.4260 -0.2230
 3615TIP3    H132260   0.388   0.052   1.656  0.2918  1.1182 -0.0039
 3615TIP3    H232261   0.338  -0.046   1.760  0.4135 -0.3966 -1.3376
 3616TIP3   OH232262   5.435   1.036  15.189 -0.1173 -0.4203 -0.0282
 3616TIP3    H132263   5.404   1.017  15.278 -0.4720 -0.5737 -0.1832
 3616TIP3    H232264   5.357   1.067  15.143  0.1858  0.2355 -0.1239
 3617TIP3   OH232265   1.144   6.424   0.912  0.1676  0.3390  0.5670
 3617TIP3    H132266   1.087   6.381   0.976  1.3178 -2.1312  0.0828
 3617TIP3    H232267   1.160   6.511   0.948 -2.8301  0.6736  1.3188
 3618TIP3   OH232268   3.163   6.271   4.727  0.0933 -0.3109 -0.2539
 3618TIP3    H132269   3.159   6.179   4.701 -1.3062 -0.6969  1.2095
 3618TIP3    H232270   3.136   6.272   4.818  1.6283  1.3894  0.2535
 3619TIP3   OH232271   2.844   2.568   5.666 -0.1016  0.1863  0.1135
 3619TIP3    H132272   2.910   2.637   5.669 -0.8333  0.8979  0.3939
 3619TIP3    H232273   2.890   2.489   5.695  0.3313  0.9171  1.5178
 3620TIP3   OH232274   5.233   1.037  12.373  0.3420 -0.1539 -0.2556
 3620TIP3    H132275   5.152   1.086  12.365  1.5240  1.7134 -1.9280
 3620TIP3    H232276   5.220   0.959  12.319 -0.6618 -0.3951  0.3203
 3621TIP3   OH232277   0.473   0.600  14.626  0.1559  0.1737 -0.6282
 3621TIP3    H132278   0.498   0.668  14.689 -0.6431 -1.8581  2.1141
 3621TIP3    H232279   0.556   0.561  14.598  0.5259  1.0814 -0.8417
 3622TIP3   OH232280   2.661   1.237   6.141  0.3264 -0.1941 -0.0944
 3622TIP3    H132281   2.744   1.202   6.172  0.1479  0.1743  0.8560
 3622TIP3    H232282   2.595   1.184   6.186  0.0578  0.8885  0.8213
 3623TIP3   OH232283   4.752   5.523   0.262  0.5908 -0.0860 -0.3392
 3623TIP3    H132284   4.764   5.546   0.170 -2.5354 -1.3048 -1.1935
 3623TIP3    H232285   4.841   5.513   0.297  1.9143  3.0767 -2.4390
 3624TIP3   OH232286   4.880   1.580   3.619  0.0182 -0.0604 -0.3878
 3624TIP3    H132287   4.790   1.609   3.605 -0.0825 -0.2526 -0.1367
 3624TIP3    H232288   4.933   1.659   3.608 -0.1869  0.0637 -0.4746
 3625TIP3   OH232289   1.124   3.651  13.527 -0.1575  0.5740 -0.0469
 3625TIP3    H132290   1.135   3.576  13.585  1.2941  1.0785  0.3747
 3625TIP3    H232291   1.030   3.669  13.529 -0.5686 -1.2716 -0.2424
 3626TIP3   OH232292   0.142   3.289  11.460  0.0266  0.1304 -0.5876
 3626TIP3    H132293   0.126   3.269  11.368  0.0978  0.4500 -0.6708
 3626TIP3    H232294   0.165   3.205  11.499  4.4592  0.5576 -1.7734
 3627TIP3   OH232295   5.924   2.604  13.680 -0.2827 -0.2842 -0.3882
 3627TIP3    H132296   5.988   2.560  13.737 -0.1443  1.1414  0.6223
 3627TIP3    H232297   5.974   2.673  13.637 -0.8430 -0.0236 -0.6277
 3628TIP3   OH232298   0.106   5.387   0.809  0.2664 -0.0917 -0.1159
 3628TIP3    H132299   0.013   5.369   0.826  0.2022  1.2776  1.1981
 3628TIP3    H232300   0.153   5.312   0.845 -0.2604 -0.2000  0.3553
 3629TIP3   OH232301   6.633   6.122   3.604  0.8507 -0.3133  0.3187
 3629TIP3    H132302   6.657   6.073   3.683 -1.7427 -2.1760  0.0750
 3629TIP3    H232303   6.612   6.210   3.635  3.1083 -0.0020  1.1480
 3630TIP3   OH232304   3.345   5.684   3.644 -0.1495  0.2391  0.5314
 3630TIP3    H132305   3.290   5.682   3.565  0.4402 -0.1914  0.1206
 3630TIP3    H232306   3.417   5.744   3.620  1.5303 -1.9453 -0.3077
 3631TIP3   OH232307   5.548   3.638  12.961 -0.6478 -0.7193 -1.1043
 3631TIP3    H132308   5.465   3.610  12.924 -0.9861  0.3816 -1.2012
 3631TIP3    H232309   5.590   3.688  12.891 -1.1230  1.0621 -0.1582
 3632TIP3   OH232310   3.928   4.038   2.949  0.3671 -0.1952 -0.2360
 3632TIP3    H132311   3.982   3.960   2.958 -0.3697 -0.6474  0.3865
 3632TIP3    H232312   3.851   4.009   2.902  0.5903  0.4220 -1.0106
 3633TIP3   OH232313   6.369   3.233   3.611 -1.1749 -0.0132  0.5663
 3633TIP3    H132314   6.404   3.155   3.653  1.1719  0.8962  0.4232
 3633TIP3    H232315   6.341   3.288   3.684 -0.8901 -0.1237  0.7599
 3634TIP3   OH232316   5.550   6.566  12.848 -0.4397 -0.0491 -0.3393
 3634TIP3    H132317   5.547   6.569  12.944 -2.7548  2.6738 -0.3616
 3634TIP3    H232318   5.641   6.582  12.826 -0.0085  0.0614  1.3924
 3635TIP3   OH232319   3.368   6.489   3.834 -0.5554 -0.4116 -0.0685
 3635TIP3    H132320   3.368   6.557   3.901 -1.1543 -2.1918  1.8297
 3635TIP3    H232321   3.443   6.434   3.855 -0.7804 -1.0358 -0.8302
 3636TIP3   OH232322   4.951   3.317   5.843 -0.0044 -0.1827  0.3340
 3636TIP3    H132323   4.946   3.365   5.760 -0.2304  1.0054  1.0009
 3636TIP3    H232324   4.984   3.231   5.819 -0.3672  0.0297 -1.0278
 3637TIP3   OH232325   1.727   0.105  10.365  0.1914 -0.2142  0.1126
 3637TIP3    H132326   1.760   0.114  10.276 -0.2323 -0.8815 -0.1123
 3637TIP3    H232327   1.756   0.186  10.409  0.1824  0.2383 -0.6922
 3638TIP3   OH232328   1.618   1.638  14.343 -0.3772 -0.4443  0.1965
 3638TIP3    H132329   1.600   1.721  14.299 -0.3258 -0.7584 -0.4218
 3638TIP3    H232330   1.691   1.657  14.402  0.5682 -0.3715 -0.9630
 3639TIP3   OH232331   5.669   1.500  15.024  0.1598  0.0192  0.1273
 3639TIP3    H132332   5.738   1.512  14.958  1.5605 -0.5131  1.4263
 3639TIP3    H232333   5.658   1.586  15.064 -0.7135  0.3500 -0.7880
 3640TIP3   OH232334   4.495   0.718  15.223 -0.1285 -0.0740  0.3660
 3640TIP3    H132335   4.589   0.701  15.233  0.1709  1.3289  0.2096
 3640TIP3    H232336   4.491   0.792  15.161 -1.3268 -0.0222  0.4834
 3641TIP3   OH232337   3.954   4.969   4.515 -0.0283 -0.4086  0.2926
 3641TIP3    H132338   3.991   5.001   4.597  2.9777 -1.4822 -0.5260
 3641TIP3    H232339   3.883   4.911   4.542  0.3795 -0.1329  2.0935
 3642TIP3   OH232340   2.382   1.302  12.308  0.3453 -0.7298  0.2847
 3642TIP3    H132341   2.437   1.272  12.235 -0.3202 -2.0535  0.3004
 3642TIP3    H232342   2.404   1.244  12.380  0.2659 -0.0689  0.8453
 3643TIP3   OH232343   6.296   0.896   2.875 -0.1531  0.2770 -0.1854
 3643TIP3    H132344   6.391   0.882   2.875 -0.3686 -1.8257 -1.9987
 3643TIP3    H232345   6.279   0.947   2.954  2.5485  1.2986 -0.1510
 3644TIP3   OH232346   5.030   2.018   2.007 -0.1128 -0.2235  0.1890
 3644TIP3    H132347   5.078   1.999   2.088  1.4078  2.1647 -0.0840
 3644TIP3    H232348   5.048   1.942   1.951  0.5591 -0.9353  1.3168
 3645TIP3   OH232349   2.551   6.254  11.454 -0.1869 -0.1595  0.6449
 3645TIP3    H132350   2.522   6.319  11.518 -0.6262  0.3269 -0.0397
 3645TIP3    H232351   2.644   6.271  11.443  0.0550 -0.7096  1.6729
 3646TIP3   OH232352   5.541   1.226  15.512 -0.2210 -0.3751  0.0380
 3646TIP3    H132353   5.602   1.165  15.469 -1.3904 -0.4812 -1.5382
 3646TIP3    H232354   5.591   1.261  15.586  1.3112 -1.4127 -0.4546
 3647TIP3   OH232355   4.681   3.544   3.367  0.7771 -0.4393 -0.3210
 3647TIP3    H132356   4.731   3.465   3.386 -1.9559 -1.6467  2.8391
 3647TIP3    H232357   4.723   3.613   3.418  0.8210 -0.8058  0.1393
 3648TIP3   OH232358   4.228   6.733  12.451  0.1076  0.0973  0.1828
 3648TIP3    H132359   4.266   6.821  12.453  1.3287 -0.4169  0.1744
 3648TIP3    H232360   4.276   6.687  12.382 -0.7245 -0.5012 -0.0204
 3649TIP3   OH232361   1.111   2.847   5.214  0.1623  0.2582  0.5283
 3649TIP3    H132362   1.096   2.939   5.192 -0.2875 -0.0206 -0.4106
 3649TIP3    H232363   1.132   2.806   5.130 -0.0290 -0.5695  0.8773
 3650TIP3   OH232364   1.808   1.772  11.752  0.3937  0.3225 -0.0977
 3650TIP3    H132365   1.843   1.842  11.808 -0.4853  1.1622 -0.5656
 3650TIP3    H232366   1.879   1.708  11.748 -0.0300 -0.5073  3.1447
 3651TIP3   OH232367   6.356   3.800   0.837 -0.4778 -0.0071 -0.0990
 3651TIP3    H132368   6.392   3.851   0.910 -2.4754 -0.3055  1.1948
 3651TIP3    H232369   6.299   3.861   0.791  0.6648  0.1355 -1.3654
 3652TIP3   OH232370   5.002   2.785   4.987  0.3852  0.0549  0.1897
 3652TIP3    H132371   4.925   2.778   4.930 -0.1795 -1.3828  1.0660
 3652TIP3    H232372   5.063   2.840   4.938 -1.3992  1.7066 -0.2911
 3653TIP3   OH232373   0.396   2.767   0.589  0.3859  0.6662  0.2864
 3653TIP3    H132374   0.413   2.836   0.526 -1.0285 -0.6726 -1.6703
 3653TIP3    H232375   0.309   2.787   0.624  0.9391  1.1062  1.4901
 3654TIP3   OH232376   0.942   1.750   1.735  0.2854  0.5136  0.5240
 3654TIP3    H132377   0.885   1.756   1.658 -1.5714 -0.9326  1.6848
 3654TIP3    H232378   1.026   1.721   1.700 -0.5638 -0.2989 -0.9642
 3655TIP3   OH232379   3.221   0.036  12.140  0.2287  0.2350  0.2441
 3655TIP3    H132380   3.256   0.100  12.203  1.2840  0.9401 -1.0148
 3655TIP3    H232381   3.147   0.080  12.099 -1.8975 -1.0292  2.4601
 3656TIP3   OH232382   3.667   3.269   6.434 -0.1373 -0.1298  0.1775
 3656TIP3    H132383   3.744   3.322   6.452  0.0057 -0.5858  0.9916
 3656TIP3    H232384   3.615   3.274   6.515 -0.4700 -0.6213  0.0004
 3657TIP3   OH232385   5.589   5.197  14.835  0.1209 -0.5596  0.1008
 3657TIP3    H132386   5.555   5.107  14.839 -1.3973 -0.1399 -1.8610
 3657TIP3    H232387   5.681   5.186  14.809  0.1818 -1.5527  0.6692
 3658TIP3   OH232388   0.457   3.790   3.125 -0.5713 -0.6848 -0.8269
 3658TIP3    H132389   0.533   3.804   3.068 -0.2607  3.4127  0.2554
 3658TIP3    H232390   0.389   3.846   3.089 -1.7642 -1.2492  0.4563
 3659TIP3   OH232391   2.827   3.142   0.851 -0.3352 -0.4111 -0.3483
 3659TIP3    H132392   2.831   3.221   0.904  2.2969 -0.4595 -0.3494
 3659TIP3    H232393   2.765   3.085   0.897 -1.3770  1.1786  0.2775
 3660TIP3   OH232394   1.619   0.767   6.006  0.2663 -0.2444  0.0360
 3660TIP3    H132395   1.573   0.848   6.028  0.9413  0.1337  0.0956
 3660TIP3    H232396   1.617   0.716   6.087 -2.3728 -1.4277 -0.6628
 3661TIP3   OH232397   4.832   4.367   0.674 -0.2686  0.4956  0.6889
 3661TIP3    H132398   4.821   4.357   0.580 -1.1177 -1.5158  0.9582
 3661TIP3    H232399   4.833   4.462   0.688 -0.1832  0.8330 -1.3177
 3662TIP3   OH232400   0.315   6.000  17.236  0.0283  0.1144 -0.5995
 3662TIP3    H132401   0.291   5.984  17.145  0.1237 -1.6656 -0.3373
 3662TIP3    H232402   0.346   5.916  17.269 -0.9812  0.4434  1.3728
 3663TIP3   OH232403   0.367   2.758   2.935 -0.0630 -0.5379 -0.0027
 3663TIP3    H132404   0.315   2.797   3.005  2.4732  0.4517  1.4835
 3663TIP3    H232405   0.339   2.804   2.856 -0.5676  0.8842  0.9486
 3664TIP3   OH232406   2.669   5.741  12.767  0.1725  0.2631  0.0108
 3664TIP3    H132407   2.730   5.667  12.773  0.7046  0.7009  0.0918
 3664TIP3    H232408   2.687   5.780  12.681  0.3752  0.7087  0.2543
 3665TIP3   OH232409   2.111   3.119   3.148  0.3361  0.0696  0.2496
 3665TIP3    H132410   2.082   3.062   3.076  1.8311  1.7208 -1.7941
 3665TIP3    H232411   2.109   3.207   3.111  1.9996  0.9002  1.9820
 3666TIP3   OH232412   3.726   2.747   1.066  0.1793 -0.5153 -0.1712
 3666TIP3    H132413   3.640   2.707   1.078 -0.7762  1.5221  0.0635
 3666TIP3    H232414   3.751   2.777   1.153  0.9104 -0.6375 -0.3318
 3667TIP3   OH232415   0.082   6.203   4.309 -0.1235 -0.4073  0.2543
 3667TIP3    H132416   0.011   6.238   4.255 -0.7571 -1.2894  0.4977
 3667TIP3    H232417   0.037   6.154   4.378  0.7329 -1.3988  0.1175
 3668TIP3   OH232418   2.133   3.472   2.757 -0.0533 -0.2163  0.1988
 3668TIP3    H132419   2.121   3.534   2.686 -2.5453  0.3458  1.0205
 3668TIP3    H232420   2.191   3.517   2.819  0.8555 -0.0921 -0.7168
 3669TIP3   OH232421   4.431   1.287   3.825  0.0026  0.1382  0.4119
 3669TIP3    H132422   4.509   1.234   3.809  0.9527  1.2704  1.1647
 3669TIP3    H232423   4.384   1.239   3.894  0.4682 -0.1222  0.5543
 3670TIP3   OH232424   3.399   4.817   0.550 -0.8746 -0.0479 -0.2198
 3670TIP3    H132425   3.407   4.734   0.504  1.3329  0.9495 -1.8149
 3670TIP3    H232426   3.305   4.834   0.554 -1.4141 -2.8554  0.7061
 3671TIP3   OH232427   2.404   3.517   0.516  0.1637 -0.2581 -0.2604
 3671TIP3    H132428   2.473   3.534   0.581  0.5296 -0.1086 -0.6828
 3671TIP3    H232429   2.333   3.479   0.567 -0.3115  1.6114  0.5705
 3672TIP3   OH232430   2.085   4.474  14.824 -0.2422  0.1133 -0.5560
 3672TIP3    H132431   2.162   4.452  14.772 -0.7903  0.3925 -1.5162
 3672TIP3    H232432   2.073   4.568  14.811  0.4091  0.4712  1.2049
 3673TIP3   OH232433   1.691   5.738  17.071  0.9143 -0.2824  0.2693
 3673TIP3    H132434   1.672   5.705  17.159 -0.9729 -1.2088 -0.4181
 3673TIP3    H232435   1.697   5.833  17.082 -1.0792 -0.1958  1.1741
 3674TIP3   OH232436   1.642   1.832  15.392 -0.2575  0.3474  0.4820
 3674TIP3    H132437   1.683   1.890  15.328  0.2864 -2.3172 -1.7833
 3674TIP3    H232438   1.711   1.815  15.456  0.0639  0.9650  0.3073
 3675TIP3   OH232439   5.857   6.189  16.613  0.1042 -0.3185  0.4858
 3675TIP3    H132440   5.945   6.190  16.650  0.9685  0.0672 -1.4366
 3675TIP3    H232441   5.854   6.108  16.561  0.3345  0.9168 -1.5860
 3676TIP3   OH232442   4.741   2.134   1.246 -0.1519  0.1041  0.4795
 3676TIP3    H132443   4.795   2.184   1.307 -0.7491  1.2204  0.1163
 3676TIP3    H232444   4.651   2.151   1.274 -0.3795 -0.6879  0.2708
 3677TIP3   OH232445   4.896   4.703  10.619 -0.1119 -0.2657 -0.0407
 3677TIP3    H132446   4.851   4.657  10.548  0.3900 -1.0213  0.1111
 3677TIP3    H232447   4.965   4.753  10.576 -0.4225  0.0423 -0.1759
 3678TIP3   OH232448   4.881   5.247  13.756  0.2644  0.2138 -0.1885
 3678TIP3    H132449   4.971   5.214  13.750 -0.0615 -0.6424 -0.4793
 3678TIP3    H232450   4.839   5.218  13.676 -0.4601  0.0318  0.2451
 3679TIP3   OH232451   1.950   5.757   3.294 -0.3996 -0.1383  0.3168
 3679TIP3    H132452   1.911   5.804   3.368  0.0764  2.9293 -1.2194
 3679TIP3    H232453   1.876   5.730   3.240 -0.7428 -2.2911  1.7427
 3680TIP3   OH232454   2.655   2.033   4.010 -0.4195  0.4939 -0.6393
 3680TIP3    H132455   2.588   1.988   4.062 -1.6915  0.7588 -1.9997
 3680TIP3    H232456   2.690   2.099   4.070  0.5630 -1.3516  0.9657
 3681TIP3   OH232457   4.625   5.771   6.057  0.3920  0.2045  0.1551
 3681TIP3    H132458   4.657   5.731   6.138  0.8066  0.8381  0.3149
 3681TIP3    H232459   4.533   5.791   6.075  0.3432 -0.1249  0.2820
 3682TIP3   OH232460   0.559   3.347   5.531  0.1241 -0.1442  0.3538
 3682TIP3    H132461   0.503   3.333   5.456  1.2410 -0.9673 -0.3474
 3682TIP3    H232462   0.601   3.432   5.514  1.1939 -0.8203 -0.5161
 3683TIP3   OH232463   0.485   6.061  15.761  0.0182 -0.9425 -0.2099
 3683TIP3    H132464   0.398   6.038  15.728  1.1340 -0.7526 -3.6609
 3683TIP3    H232465   0.533   5.978  15.760  1.0453 -0.3864 -2.5440
 3684TIP3   OH232466   3.041   0.785  13.368 -0.4178  0.3531 -0.3399
 3684TIP3    H132467   3.071   0.852  13.430  1.5505 -1.4483  0.7996
 3684TIP3    H232468   2.948   0.805  13.354 -0.9070  1.0018  3.0261
 3685TIP3   OH232469   0.859   0.993  13.589 -0.0997 -0.0772  0.0179
 3685TIP3    H132470   0.793   0.933  13.623  0.3790 -0.5570  0.1111
 3685TIP3    H232471   0.832   1.009  13.498 -0.9289  0.5786  0.3607
 3686TIP3   OH232472   6.634   1.069  15.125 -0.0974  0.4995  0.0531
 3686TIP3    H132473   6.655   0.998  15.186  0.5740  0.4773 -0.2002
 3686TIP3    H232474   6.546   1.098  15.151  0.3175  0.7268  1.2495
 3687TIP3   OH232475   4.744   3.422  14.008 -0.0899 -0.0196 -0.7295
 3687TIP3    H132476   4.824   3.370  14.014 -1.8316 -3.0244 -1.5656
 3687TIP3    H232477   4.692   3.395  14.085 -0.6368  1.3111 -0.6038
 3688TIP3   OH232478   1.514   4.616   0.953 -0.1858  0.5331 -0.2415
 3688TIP3    H132479   1.590   4.661   0.916  0.0135 -1.3570 -2.3929
 3688TIP3    H232480   1.446   4.683   0.957  1.0287  1.8022 -0.1285
 3689TIP3   OH232481   1.172   5.739  13.256 -0.0421 -0.2265 -0.1266
 3689TIP3    H132482   1.188   5.834  13.258 -1.3574  0.0400 -0.7484
 3689TIP3    H232483   1.197   5.712  13.169  1.8151 -0.7712  0.5440
 3690TIP3   OH232484   6.156   4.794  11.661 -0.4812  0.4700  0.3930
 3690TIP3    H132485   6.185   4.830  11.577 -0.7377  1.0211  0.5356
 3690TIP3    H232486   6.237   4.767  11.705 -0.3279  0.3904  0.0659
 3691TIP3   OH232487   2.992   0.330   3.471 -0.1135  0.4554 -0.1310
 3691TIP3    H132488   2.912   0.288   3.504  0.0428 -0.8819 -1.3700
 3691TIP3    H232489   3.002   0.297   3.382  2.6241 -0.6465  0.4674
 3692TIP3   OH232490   0.265   4.639  17.371 -0.0876 -0.0118  0.2369
 3692TIP3    H132491   0.313   4.722  17.370  0.0630 -0.0706  1.3025
 3692TIP3    H232492   0.222   4.635  17.286 -0.2297  1.2369  0.2267
 3693TIP3   OH232493   5.928   2.838   0.414  0.2675  0.2453  0.1579
 3693TIP3    H132494   5.970   2.908   0.463  0.3761  0.2618  0.0398
 3693TIP3    H232495   5.997   2.774   0.398  0.7454  1.1852 -1.7910
 3694TIP3   OH232496   0.495   5.498   0.838  1.0039  0.0266  0.6002
 3694TIP3    H132497   0.484   5.412   0.798  1.5088 -0.6107  1.7985
 3694TIP3    H232498   0.409   5.540   0.829  0.5833 -0.8353  0.5551
 3695TIP3   OH232499   2.333   4.190  12.886  0.3258  0.5630  0.0881
 3695TIP3    H132500   2.393   4.135  12.937  2.3498  0.8063 -1.9177
 3695TIP3    H232501   2.367   4.279  12.896  1.3292  0.5242 -2.2901
 3696TIP3   OH232502   1.689   6.444  11.728  1.0182 -0.1625  0.3440
 3696TIP3    H132503   1.623   6.473  11.791 -0.4726 -0.9566 -0.8041
 3696TIP3    H232504   1.677   6.501  11.652  1.8528 -0.1450  0.2088
 3697TIP3   OH232505   4.497   0.233   0.337  0.1093  0.1727 -1.0062
 3697TIP3    H132506   4.524   0.244   0.429  0.6385  0.1225 -1.1507
 3697TIP3    H232507   4.455   0.316   0.315  0.6823  0.4921 -0.9469
 3698TIP3   OH232508   2.563   5.691   3.438  0.1117  0.2312 -0.4800
 3698TIP3    H132509   2.494   5.728   3.383  0.9781  1.5059 -0.7633
 3698TIP3    H232510   2.639   5.685   3.380  0.8801  1.0470  0.3947
 3699TIP3   OH232511   1.804   1.569   0.205  0.2995  0.0808  0.3383
 3699TIP3    H132512   1.781   1.628   0.133  3.3888  0.8974 -0.1501
 3699TIP3    H232513   1.800   1.624   0.283 -0.4107 -0.0676  0.4071
 3700TIP3   OH232514   3.323   3.791  12.980  0.0454 -0.7276  0.4248
 3700TIP3    H132515   3.275   3.743  12.912  0.3853 -1.3691  0.6271
 3700TIP3    H232516   3.401   3.822  12.936 -0.1833 -0.3418  0.2884
 3701TIP3   OH232517   1.882   1.396  12.555  0.8774  0.2015  0.2340
 3701TIP3    H132518   1.847   1.442  12.479 -2.6163 -0.9338  0.9760
 3701TIP3    H232519   1.876   1.459  12.627 -3.9885 -1.0438  1.2709
 3702TIP3   OH232520   1.825   4.720  17.381  0.6163 -0.1108  0.1751
 3702TIP3    H132521   1.830   4.761  17.467 -0.2336 -1.3857  0.8536
 3702TIP3    H232522   1.899   4.659  17.379  1.4413  0.8745 -0.5477
 3703TIP3   OH232523   4.225   0.280  16.737  0.3012 -0.2658 -0.1332
 3703TIP3    H132524   4.206   0.205  16.682 -1.7873 -0.3925  0.6794
 3703TIP3    H232525   4.201   0.356  16.684 -1.0425 -0.3603  0.2996
 3704TIP3   OH232526   1.631   0.189   0.195 -0.4102  0.0805  0.7838
 3704TIP3    H132527   1.636   0.094   0.200 -0.9438  0.0065  0.0148
 3704TIP3    H232528   1.550   0.207   0.148 -0.7650  0.9409  1.6759
 3705TIP3   OH232529   2.088   4.183  16.496  0.0010  1.3685 -0.4216
 3705TIP3    H132530   2.049   4.267  16.520 -0.7847  1.0852 -0.7010
 3705TIP3    H232531   2.091   4.134  16.579  0.4507  1.6603 -0.2611
 3706TIP3   OH232532   2.795   0.418  15.626 -0.1975  0.0627  0.2599
 3706TIP3    H132533   2.860   0.360  15.586  0.5291 -0.1720  1.7139
 3706TIP3    H232534   2.806   0.502  15.580  0.5546 -0.2072 -0.0726
 3707TIP3   OH232535   1.474   3.411  15.001  0.4833  1.0470  0.1132
 3707TIP3    H132536   1.496   3.392  14.909  0.5280 -1.2118  0.5129
 3707TIP3    H232537   1.518   3.494  15.020  0.2064  1.7269 -1.9788
 3708TIP3   OH232538   3.841   3.853  13.693 -0.3014  1.0745  0.0567
 3708TIP3    H132539   3.787   3.816  13.763  0.9632 -0.7501  0.1613
 3708TIP3    H232540   3.835   3.788  13.622  0.8068  1.4051 -0.3615
 3709TIP3   OH232541   5.239   4.892   0.447  0.4927 -0.0218 -0.2440
 3709TIP3    H132542   5.245   4.942   0.366  0.8571  0.8976  0.3391
 3709TIP3    H232543   5.162   4.927   0.492  1.4710  0.9615  0.7580
 3710TIP3   OH232544   4.632   3.780   0.537 -0.1461 -0.2736  0.2498
 3710TIP3    H132545   4.574   3.830   0.478  0.8417  0.8219  0.1654
 3710TIP3    H232546   4.693   3.736   0.478  0.8933  0.8846  0.4298
 3711TIP3   OH232547   2.643   5.305   4.139  0.0079  0.0771 -0.0785
 3711TIP3    H132548   2.643   5.219   4.180  1.6403  0.6290  1.2283
 3711TIP3    H232549   2.551   5.328   4.129 -0.4739 -1.9768 -0.8883
 3712TIP3   OH232550   1.093   2.534   3.710  0.1581 -0.3996 -0.0005
 3712TIP3    H132551   1.140   2.613   3.684 -0.3715 -0.4118 -1.0104
 3712TIP3    H232552   1.056   2.500   3.629  1.1554 -2.2146  0.2518
 3713TIP3   OH232553   1.811   2.438  17.240 -0.1184 -0.3507 -0.3881
 3713TIP3    H132554   1.716   2.436  17.255 -0.2280 -0.0998 -0.9836
 3713TIP3    H232555   1.848   2.382  17.308 -0.6980 -0.4536 -0.1536
 3714TIP3   OH232556   5.010   2.976  11.691  0.5291  0.2085 -0.1314
 3714TIP3    H132557   5.100   3.007  11.693  0.3948  0.8401 -1.9303
 3714TIP3    H232558   4.957   3.056  11.684 -0.0489 -0.2169 -0.7931
 3715TIP3   OH232559   3.328   0.694   5.984  0.3186  0.4527 -0.1050
 3715TIP3    H132560   3.248   0.732   6.021  0.0291 -0.9757  0.8292
 3715TIP3    H232561   3.352   0.625   6.046  1.1596 -0.4575 -1.4094
 3716TIP3   OH232562   4.685   4.520   2.068  0.0520 -0.1778  0.2496
 3716TIP3    H132563   4.741   4.486   2.138  0.4732  0.1676  0.0816
 3716TIP3    H232564   4.654   4.604   2.100 -0.3708 -0.3634  0.3378
 3717TIP3   OH232565   5.284   1.702  11.625 -0.5092 -0.2117 -0.4594
 3717TIP3    H132566   5.301   1.720  11.532  1.7687 -0.2206 -0.0995
 3717TIP3    H232567   5.306   1.784  11.669 -2.2074  0.0020  0.0462
 3718TIP3   OH232568   2.367   1.713   6.376  0.1319  0.2654 -0.1979
 3718TIP3    H132569   2.337   1.727   6.286 -0.0095  0.8231 -0.0661
 3718TIP3    H232570   2.342   1.623   6.396  0.6351 -0.0370 -0.8980
 3719TIP3   OH232571   1.998   3.539  12.319  0.3071  0.3387  0.3589
 3719TIP3    H132572   1.986   3.628  12.288  0.2948  0.6699  1.2809
 3719TIP3    H232573   1.951   3.536  12.402  0.4207 -0.4855  0.4011
 3720TIP3   OH232574   3.815   2.168  16.737 -0.2106 -0.9030 -0.1447
 3720TIP3    H132575   3.869   2.153  16.659  1.1344 -0.7698  0.7171
 3720TIP3    H232576   3.740   2.218  16.705  0.9199  0.2274 -1.1619
 3721TIP3   OH232577   5.292   2.120   6.795 -0.6605  0.0385  0.0344
 3721TIP3    H132578   5.313   2.206   6.760 -0.1074  0.6874  1.8627
 3721TIP3    H232579   5.327   2.058   6.731 -0.3612  1.1645 -0.9085
 3722TIP3   OH232580   5.203   6.392   4.541  0.3496 -0.0283  0.1725
 3722TIP3    H132581   5.143   6.319   4.522 -0.6206  0.4872  1.1471
 3722TIP3    H232582   5.204   6.444   4.460 -0.8788  0.1854  0.2711
 3723TIP3   OH232583   1.751   1.097  16.487  0.2774 -0.0739 -0.5579
 3723TIP3    H132584   1.765   1.033  16.417  1.6329  0.2578 -0.6036
 3723TIP3    H232585   1.757   1.046  16.568  0.0001 -0.2327 -0.6355
 3724TIP3   OH232586   1.762   2.275  16.175  0.0188  0.2328  0.0359
 3724TIP3    H132587   1.776   2.204  16.113 -2.8942 -1.0520  0.6821
 3724TIP3    H232588   1.764   2.234  16.261  0.3947  1.3574  0.5965
 3725TIP3   OH232589   0.759   3.968   0.799  0.4619  0.1753  0.4697
 3725TIP3    H132590   0.697   3.964   0.872 -2.3378 -0.9786 -1.7810
 3725TIP3    H232591   0.768   3.877   0.770 -0.7446  0.7995 -2.2429
 3726TIP3   OH232592   2.875   1.843  12.953 -0.8629 -0.6251 -0.0221
 3726TIP3    H132593   2.901   1.930  12.920 -1.7366 -0.3352  0.0174
 3726TIP3    H232594   2.952   1.789  12.941 -0.3689  0.1117 -0.2482
 3727TIP3   OH232595   3.581   0.456   5.775  0.1157  0.3142 -0.0856
 3727TIP3    H132596   3.498   0.461   5.728 -0.4855 -0.8295  0.7846
 3727TIP3    H232597   3.593   0.543   5.811 -2.6363 -0.3095  2.8286
 3728TIP3   OH232598   0.751   3.666   0.146 -0.0775 -0.1902  0.6356
 3728TIP3    H132599   0.709   3.601   0.202 -0.0551 -2.1996 -1.5674
 3728TIP3    H232600   0.780   3.617   0.069 -0.7335  2.5356 -1.5051
 3729TIP3   OH232601   1.262   0.281  15.454  0.2768  0.0544  0.2315
 3729TIP3    H132602   1.181   0.234  15.475  0.9810 -1.0567  0.5690
 3729TIP3    H232603   1.326   0.212  15.435  0.8767  0.9363 -1.0910
 3730TIP3   OH232604   1.011   3.316  15.868  0.1957  0.2501  0.0241
 3730TIP3    H132605   0.950   3.259  15.820 -0.5286  1.8938 -1.1353
 3730TIP3    H232606   1.014   3.279  15.956 -1.2744 -0.7871 -0.3149
 3731TIP3   OH232607   2.996   0.958  15.626 -0.3432 -0.6915 -0.0563
 3731TIP3    H132608   3.029   1.017  15.694 -1.0338 -0.0781 -0.2411
 3731TIP3    H232609   3.065   0.959  15.559  0.3075 -1.2451  0.5887
 3732TIP3   OH232610   1.689   4.983   2.155  0.4551  0.8643 -0.1763
 3732TIP3    H132611   1.702   4.959   2.247 -1.1299 -0.0457 -0.1554
 3732TIP3    H232612   1.695   4.901   2.107  0.8765  1.2810 -0.8640
 3733TIP3   OH232613   3.812   0.094  12.397 -0.2347  0.1355 -0.5470
 3733TIP3    H132614   3.819   0.006  12.359 -0.0529  0.2967 -0.8809
 3733TIP3    H232615   3.740   0.086  12.460 -0.0051 -0.3401 -0.3341
 3734TIP3   OH232616   5.415   1.511  16.053 -0.0943 -0.5481  0.5180
 3734TIP3    H132617   5.503   1.487  16.081  0.2668  1.2555  1.0146
 3734TIP3    H232618   5.414   1.607  16.054 -2.1398 -0.5298  0.7521
 3735TIP3   OH232619   6.112   6.589   5.931 -0.4886 -0.3499 -0.3081
 3735TIP3    H132620   6.045   6.522   5.947 -0.3989 -0.2479  0.5579
 3735TIP3    H232621   6.108   6.605   5.837 -1.2068 -0.8487 -0.3729
 3736TIP3   OH232622   5.086   3.156  16.314 -0.6650  0.6016 -0.0667
 3736TIP3    H132623   4.997   3.162  16.349 -0.8787 -0.0138 -0.4964
 3736TIP3    H232624   5.096   3.064  16.288  1.2045 -0.1826  2.8837
 3737TIP3   OH232625   5.694   0.277   4.266  0.8818 -0.1066  0.2352
 3737TIP3    H132626   5.740   0.193   4.266  0.5652 -0.2948  1.2673
 3737TIP3    H232627   5.616   0.262   4.319 -0.1399  0.3421 -1.0802
 3738TIP3   OH232628   2.752   5.852   4.675  0.1479 -0.7037  0.2814
 3738TIP3    H132629   2.662   5.877   4.698 -0.5534 -2.1335 -0.8031
 3738TIP3    H232630   2.804   5.931   4.694 -1.7960  1.2769 -2.0532
 3739TIP3   OH232631   4.356   0.053   0.212  0.3582 -0.0182 -0.5431
 3739TIP3    H132632   4.416  -0.021   0.203  0.0214 -0.3394 -0.1938
 3739TIP3    H232633   4.410   0.124   0.248 -0.1013 -1.2734  3.0651
 3740TIP3   OH232634   5.369   1.958   6.071 -0.1351  0.5287  0.2167
 3740TIP3    H132635   5.299   1.900   6.043 -0.1882  0.1237  1.1624
 3740TIP3    H232636   5.446   1.902   6.077 -0.1538  0.5784  0.9945
 3741TIP3   OH232637   6.147   3.014  14.938  0.2217 -0.1866 -0.1187
 3741TIP3    H132638   6.054   3.030  14.929 -0.2212 -1.6738  1.3269
 3741TIP3    H232639   6.189   3.083  14.887 -1.5687  2.5361  1.8307
 3742TIP3   OH232640   4.929   2.813   5.659  0.2246  0.4402 -0.2266
 3742TIP3    H132641   4.843   2.773   5.675  0.1421  0.2609 -1.0796
 3742TIP3    H232642   4.981   2.743   5.620  0.5703  0.7277 -0.2898
 3743TIP3   OH232643   2.035   4.469   1.418 -0.3299  0.5356  0.4784
 3743TIP3    H132644   1.991   4.538   1.468 -0.7177 -0.8192  2.0717
 3743TIP3    H232645   1.965   4.408   1.395  0.0190  0.6141 -0.8850
 3744TIP3   OH232646   1.147   6.744   2.308 -0.1444  0.1578 -0.1875
 3744TIP3    H132647   1.111   6.658   2.331 -0.6737  0.1949 -0.8432
 3744TIP3    H232648   1.073   6.790   2.267 -0.1103  1.2360  0.9270
 3745TIP3   OH232649   0.389   3.495  12.834  0.1610  0.2042 -0.3230
 3745TIP3    H132650   0.354   3.482  12.922 -0.2996 -1.1374 -0.6700
 3745TIP3    H232651   0.483   3.506  12.846  0.0869  0.1168  0.3494
 3746TIP3   OH232652   6.591   0.649  13.850  0.8063  0.5433  0.3416
 3746TIP3    H132653   6.564   0.594  13.777  0.7678  1.9985 -0.7952
 3746TIP3    H232654   6.680   0.676  13.828  0.7515  1.0901  0.7598
 3747TIP3   OH232655   6.691   5.571   3.548 -0.1891  0.1896  0.0583
 3747TIP3    H132656   6.602   5.560   3.582 -0.1231  0.2755  0.2583
 3747TIP3    H232657   6.732   5.632   3.609 -0.2192  0.7165 -0.4516
 3748TIP3   OH232658   3.408   2.295   0.685 -1.0982  0.0015 -0.3896
 3748TIP3    H132659   3.438   2.346   0.610  1.6533 -1.1950 -0.2562
 3748TIP3    H232660   3.313   2.295   0.679 -1.1255  3.1842 -1.6373
 3749TIP3   OH232661   3.120   1.165  13.189 -0.8756  0.0503 -0.0358
 3749TIP3    H132662   3.131   1.195  13.099 -1.2304  0.4072  0.0384
 3749TIP3    H232663   3.176   1.223  13.240  1.2917 -1.6860 -0.2754
 3750TIP3   OH232664   4.303   2.789   1.905  0.0774  0.4255  0.2302
 3750TIP3    H132665   4.241   2.730   1.862  0.9307 -0.2539 -0.1242
 3750TIP3    H232666   4.338   2.842   1.833  0.4721  0.2617  0.2975
 3751TIP3   OH232667   2.369   1.441   5.464  0.3691  0.2252  0.0037
 3751TIP3    H132668   2.372   1.371   5.399  1.5013  0.7068 -0.4841
 3751TIP3    H232669   2.360   1.395   5.548  0.1428 -0.4546 -0.3824
 3752TIP3   OH232670   4.967   3.574  12.409 -0.6670 -0.3323 -0.4244
 3752TIP3    H132671   5.003   3.486  12.394  1.6862  0.7825 -1.9845
 3752TIP3    H232672   5.008   3.603  12.491 -0.2909 -0.1788 -0.6613
 3753TIP3   OH232673   3.135   0.793  17.477  0.1881  0.2465  0.2557
 3753TIP3    H132674   3.165   0.875  17.439  1.4840 -0.3872 -0.1470
 3753TIP3    H232675   3.131   0.732  17.403 -2.7181  0.4049  0.1491
 3754TIP3   OH232676   4.119   6.020   1.999 -0.5148 -0.1086 -0.9678
 3754TIP3    H132677   4.144   6.067   2.079 -0.7797 -1.3092 -0.1677
 3754TIP3    H232678   4.051   6.075   1.960  0.0128  0.7737 -0.6852
 3755TIP3   OH232679   2.793   1.754  14.041 -0.4250  0.2917 -0.1128
 3755TIP3    H132680   2.751   1.827  13.995  0.8009 -0.1228 -2.0083
 3755TIP3    H232681   2.724   1.687  14.046 -0.4217  0.0738 -2.0696
 3756TIP3   OH232682   1.220   5.943  14.668 -0.0925  0.1614 -0.2018
 3756TIP3    H132683   1.255   5.855  14.657  0.4557  0.3785 -0.2037
 3756TIP3    H232684   1.292   5.993  14.707  0.2229  1.0676 -1.8757
 3757TIP3   OH232685   4.747   3.812  15.684 -0.3133 -0.3922  0.3714
 3757TIP3    H132686   4.814   3.827  15.751  0.6012  0.7745 -0.7538
 3757TIP3    H232687   4.713   3.725  15.704  2.7571 -1.8212 -0.0052
 3758TIP3   OH232688   4.163   2.643   1.689 -0.1294 -0.6867 -0.3296
 3758TIP3    H132689   4.241   2.670   1.642 -0.3012  1.7644  0.6388
 3758TIP3    H232690   4.103   2.614   1.621  0.6776 -0.0178 -1.3593
 3759TIP3   OH232691   5.306   4.708  16.223 -0.2427  0.4839  0.2741
 3759TIP3    H132692   5.296   4.730  16.131 -2.4362  0.7329  0.5318
 3759TIP3    H232693   5.234   4.752  16.267  1.8059  1.9274  2.4289
 3760TIP3   OH232694   1.960   1.252  13.750 -0.8135  0.4067  0.1327
 3760TIP3    H132695   2.017   1.204  13.689 -0.9161 -0.0990  0.4279
 3760TIP3    H232696   1.897   1.186  13.780 -0.8581  0.6915  0.6648
 3761TIP3   OH232697   2.580   5.840  14.890 -0.4470 -0.2063 -0.1332
 3761TIP3    H132698   2.629   5.815  14.811  1.0151  0.9823  0.3428
 3761TIP3    H232699   2.620   5.787  14.960  0.4166  0.9610  0.3040
 3762TIP3   OH232700   0.762   6.386  15.582 -0.1601 -0.0207  0.2785
 3762TIP3    H132701   0.850   6.408  15.553 -1.2210  1.7615 -1.8458
 3762TIP3    H232702   0.757   6.291  15.572  1.0584  0.0073 -0.9158
 3763TIP3   OH232703   0.788   1.570   4.718 -0.3856  0.1004 -0.0186
 3763TIP3    H132704   0.850   1.499   4.703 -1.6465 -1.2254  0.8574
 3763TIP3    H232705   0.789   1.585   4.812 -1.0793  0.3665 -0.0430
 3764TIP3   OH232706   0.320   4.541   3.246 -0.4182 -0.0175 -0.3115
 3764TIP3    H132707   0.391   4.574   3.191 -0.9344 -0.0538 -1.0184
 3764TIP3    H232708   0.363   4.487   3.312  0.2980  0.8191 -0.0822
 3765TIP3   OH232709   1.797   3.739  13.162 -0.0924 -0.0939 -0.1483
 3765TIP3    H132710   1.887   3.707  13.160  0.1874  0.6691 -0.9370
 3765TIP3    H232711   1.806   3.834  13.153 -0.9626  0.0298  0.2070
 3766TIP3   OH232712   3.795   5.754   1.798 -0.0604  0.1451  0.0963
 3766TIP3    H132713   3.781   5.804   1.879 -0.8510 -0.0256  0.0638
 3766TIP3    H232714   3.875   5.704   1.815  0.2056  0.6905  0.4841
 3767TIP3   OH232715   6.536   3.351  16.854  0.0653  0.0094  0.3402
 3767TIP3    H132716   6.484   3.271  16.845 -2.0780  1.1539  1.5606
 3767TIP3    H232717   6.508   3.405  16.781  1.0806 -0.1114 -0.1514
 3768TIP3   OH232718   3.000   4.077  13.699 -0.0752 -0.0061  0.0362
 3768TIP3    H132719   2.969   4.145  13.639 -1.6367 -1.6883 -1.1490
 3768TIP3    H232720   2.923   4.050  13.748  0.9358  0.4754  2.0256
 3769TIP3   OH232721   1.619   2.285   5.370  0.2064 -0.0612 -0.0282
 3769TIP3    H132722   1.561   2.209   5.381  0.3698 -0.0734  0.8314
 3769TIP3    H232723   1.684   2.275   5.439  2.0449 -0.7303 -1.7527
 3770TIP3   OH232724   0.081   1.538   2.113 -0.3427 -0.2188  0.6669
 3770TIP3    H132725   0.048   1.622   2.083 -0.3588 -0.2298  0.6535
 3770TIP3    H232726   0.171   1.534   2.081 -0.3641 -0.2366  0.6088
 3771TIP3   OH232727   1.826   2.220  13.755 -0.0544  0.1179 -0.0915
 3771TIP3    H132728   1.840   2.186  13.843 -1.1042 -1.8589 -0.6340
 3771TIP3    H232729   1.744   2.180  13.726 -0.7538  2.2078 -1.2809
 3772TIP3   OH232730   1.538   6.629   4.521 -0.2236  0.6224  0.3437
 3772TIP3    H132731   1.458   6.595   4.562 -0.1577  0.6149  0.4669
 3772TIP3    H232732   1.529   6.607   4.429 -0.4666  0.8187  0.3195
 3773TIP3   OH232733   4.647   3.585  15.771 -0.6361 -0.7257  0.0949
 3773TIP3    H132734   4.574   3.573  15.711  0.7597  0.5636 -2.0216
 3773TIP3    H232735   4.694   3.501  15.769 -0.2754 -0.5208 -1.1745
 3774TIP3   OH232736   3.668   5.918   2.021  0.5131 -0.3046 -0.1781
 3774TIP3    H132737   3.654   5.999   1.973  0.2299 -0.3359 -0.1510
 3774TIP3    H232738   3.586   5.869   2.009 -0.2977  0.4446  1.8121
 3775TIP3   OH232739   6.531   0.786  17.442  0.1622 -0.7078 -0.5694
 3775TIP3    H132740   6.562   0.771  17.352 -0.8949 -1.7959 -0.7714
 3775TIP3    H232741   6.565   0.712  17.491  1.2423  0.1912  0.0913
 3776TIP3   OH232742   3.881   3.829   0.309  0.6809  0.6013  0.3387
 3776TIP3    H132743   3.863   3.784   0.226 -0.4142  0.4141  0.6754
 3776TIP3    H232744   3.968   3.798   0.334  0.4535 -0.3908 -0.0510
 3777TIP3   OH232745   3.119   1.051   1.635  0.0408 -0.2853  0.4026
 3777TIP3    H132746   3.078   1.107   1.569  1.6828 -0.3773 -0.7576
 3777TIP3    H232747   3.211   1.046   1.608  0.8127 -0.1988  2.8089
 3778TIP3   OH232748   2.308   6.344   6.059  0.4175 -0.2691  1.0222
 3778TIP3    H132749   2.316   6.437   6.040  0.1337 -0.6985 -1.4661
 3778TIP3    H232750   2.396   6.309   6.043  0.3022 -0.5808  1.0722
 3779TIP3   OH232751   0.485   6.394  14.937 -0.0309  0.3158  0.0632
 3779TIP3    H132752   0.444   6.426  15.018  0.9813  0.0340  0.7087
 3779TIP3    H232753   0.522   6.309  14.961 -0.2128 -0.0331 -0.8603
 3780TIP3   OH232754   0.766   1.886  11.842  0.3899  0.6427  0.3327
 3780TIP3    H132755   0.763   1.812  11.782  1.1826  1.8423 -1.2614
 3780TIP3    H232756   0.857   1.888  11.874  0.5477  1.2773 -0.1290
 3781TIP3   OH232757   4.481   2.829  11.886 -0.6748  0.0311  0.0502
 3781TIP3    H132758   4.556   2.789  11.929  0.0402 -0.0603 -1.2244
 3781TIP3    H232759   4.480   2.789  11.799 -0.3187  2.3060 -1.0479
 3782TIP3   OH232760   3.408   1.775  14.330 -0.0169  0.5639 -0.2571
 3782TIP3    H132761   3.331   1.826  14.353 -0.3004 -0.3830  1.0367
 3782TIP3    H232762   3.376   1.707  14.272 -0.9694 -2.0221  3.0085
 3783TIP3   OH232763   6.452   5.207  11.383  0.4461 -0.3388  0.3467
 3783TIP3    H132764   6.401   5.132  11.354  0.9763 -0.5382 -0.1106
 3783TIP3    H232765   6.512   5.171  11.448 -0.0092 -0.1036  0.8972
 3784TIP3   OH232766   3.058   0.669   2.595 -0.5395  0.2674  0.3659
 3784TIP3    H132767   3.123   0.710   2.653  0.0956  0.3689 -0.4029
 3784TIP3    H232768   3.005   0.614   2.653  0.4836 -0.1258  0.9497
 3785TIP3   OH232769   6.039   6.118   5.065 -0.3387 -0.4191 -0.0980
 3785TIP3    H132770   6.109   6.088   5.122  1.1241  2.0080 -0.5134
 3785TIP3    H232771   5.961   6.119   5.121 -0.2828 -3.6247  0.2370
 3786TIP3   OH232772   3.842   2.887  12.727 -0.4789 -0.0502  0.1637
 3786TIP3    H132773   3.783   2.890  12.803 -0.0669  0.2842  0.4737
 3786TIP3    H232774   3.919   2.938  12.754  0.9026 -2.2479  0.5605
 3787TIP3   OH232775   1.498   5.928  11.189  0.5222  0.3134  0.9178
 3787TIP3    H132776   1.463   6.013  11.164 -0.8769 -0.1453  1.2269
 3787TIP3    H232777   1.529   5.890  11.106 -0.8836  0.2327  0.3945
 3788TIP3   OH232778   6.574   4.968  15.877  0.1631 -0.0491 -0.2417
 3788TIP3    H132779   6.617   4.917  15.809  0.8648  0.9969 -0.6170
 3788TIP3    H232780   6.508   5.019  15.831 -0.5488 -0.6137  0.1333
 3789TIP3   OH232781   1.184   1.113  10.834 -0.2278  0.2921 -0.2262
 3789TIP3    H132782   1.150   1.055  10.901  1.1845 -0.5099 -0.1606
 3789TIP3    H232783   1.192   1.057  10.756 -0.2512  0.7702 -0.5754
 3790TIP3   OH232784   3.257   3.065   5.883  0.2831 -0.0460  0.6899
 3790TIP3    H132785   3.173   3.064   5.929 -0.3644 -0.1510 -0.4692
 3790TIP3    H232786   3.281   2.973   5.874  0.5884 -0.0116  1.1256
 3791TIP3   OH232787   0.557   1.717   3.379 -0.6315  0.3946  0.3724
 3791TIP3    H132788   0.640   1.752   3.410 -1.3899  1.7474  0.9658
 3791TIP3    H232789   0.539   1.643   3.437 -0.2786  0.6514  0.8166
 3792TIP3   OH232790   6.454   0.829  12.212  0.1371 -0.0378  0.1223
 3792TIP3    H132791   6.465   0.787  12.127  0.5272 -2.5314  1.3138
 3792TIP3    H232792   6.412   0.913  12.192 -1.6655 -1.3942 -2.3592
 3793TIP3   OH232793   3.193   1.141  14.406  0.0090  0.2242  0.3031
 3793TIP3    H132794   3.192   1.237  14.417  0.0234  0.7143 -2.8925
 3793TIP3    H232795   3.102   1.118  14.389  0.2334 -0.0481 -0.5787
 3794TIP3   OH232796   2.502   1.105   0.669 -0.2937  0.1504  0.1216
 3794TIP3    H132797   2.564   1.108   0.596  0.3336  1.8099  0.6840
 3794TIP3    H232798   2.437   1.172   0.649 -1.2129 -0.6985  0.1725
 3795TIP3   OH232799   0.223   5.771  16.731  0.3193 -0.1696 -0.3873
 3795TIP3    H132800   0.281   5.834  16.687  2.2949 -3.4689 -2.9735
 3795TIP3    H232801   0.146   5.765  16.674  1.0889 -1.5488 -1.3235
 3796TIP3   OH232802   5.588   5.175   5.755 -0.4999 -0.1837  0.1642
 3796TIP3    H132803   5.509   5.221   5.784 -0.1532  1.1661 -0.9268
 3796TIP3    H232804   5.620   5.227   5.682  1.0251 -1.1069  0.1412
 3797TIP3   OH232805   5.218   1.535   4.160  0.1937 -0.7713  0.0017
 3797TIP3    H132806   5.147   1.580   4.207 -0.7268 -1.5306 -0.6116
 3797TIP3    H232807   5.174   1.463   4.115  1.5122 -1.8274  0.3515
 3798TIP3   OH232808   4.632   5.916  10.998  0.0538 -0.0592  0.2512
 3798TIP3    H132809   4.656   5.825  10.977 -0.2699 -0.4564  1.5205
 3798TIP3    H232810   4.622   5.958  10.913 -0.0398 -1.2821 -0.3671
 3799TIP3   OH232811   1.839   3.771   0.353 -0.0845  0.1737 -0.4238
 3799TIP3    H132812   1.905   3.806   0.413 -0.1783 -1.6840  0.8315
 3799TIP3    H232813   1.853   3.676   0.354 -1.1153 -0.0435 -2.1553
 3800TIP3   OH232814   4.194   6.218   1.107  0.3179 -0.0356 -0.5841
 3800TIP3    H132815   4.278   6.251   1.073  1.5700 -2.5618 -0.1829
 3800TIP3    H232816   4.203   6.224   1.202  0.5652 -1.3849 -0.5007
 3801TIP3   OH232817   0.226   0.648   1.296  0.3117  0.6614 -0.4504
 3801TIP3    H132818   0.211   0.735   1.332 -1.5199  0.1161  0.2030
 3801TIP3    H232819   0.146   0.600   1.315  0.9620 -0.9332 -1.5244
 3802TIP3   OH232820   5.877   4.352  17.062  0.1399 -0.1955  0.0907
 3802TIP3    H132821   5.858   4.291  16.990 -0.1570 -0.3308  0.2805
 3802TIP3    H232822   5.918   4.427  17.020 -1.1681  0.2821 -0.4012
 3803TIP3   OH232823   0.979   6.040   4.384  0.4269  0.0350  0.0648
 3803TIP3    H132824   0.969   6.028   4.479 -0.1760  1.2039  0.1744
 3803TIP3    H232825   0.967   6.134   4.371  1.1058 -0.0286 -1.1103
 3804TIP3   OH232826   4.878   2.867  13.962  0.0614 -0.1061  0.0953
 3804TIP3    H132827   4.902   2.783  13.924 -0.8271 -1.2645  1.9365
 3804TIP3    H232828   4.939   2.930  13.924 -0.6499 -1.1250 -3.0706
 3805TIP3   OH232829   1.376   6.477  13.978 -0.4922 -0.0896 -0.0232
 3805TIP3    H132830   1.328   6.453  14.058 -1.0263 -2.4562 -0.9814
 3805TIP3    H232831   1.390   6.571  13.987 -3.4352  0.3459  1.3398
 3806TIP3   OH232832   4.334   3.151  12.682 -0.2492 -0.0820  1.2455
 3806TIP3    H132833   4.297   3.094  12.615 -0.1579  0.5697  0.6215
 3806TIP3    H232834   4.296   3.237  12.663  2.2187  0.8471 -0.0002
 3807TIP3   OH232835   2.904   4.825  10.624 -0.1735 -0.3115  0.6753
 3807TIP3    H132836   2.902   4.809  10.719  1.0269 -1.0308  0.5910
 3807TIP3    H232837   2.932   4.742  10.586 -0.8163 -0.0800 -0.3349
 3808TIP3   OH232838   4.124   2.210  15.413  0.4443  0.4773 -0.3242
 3808TIP3    H132839   4.160   2.254  15.490  1.4034 -0.4077 -0.2581
 3808TIP3    H232840   4.192   2.218  15.347  1.3805 -2.2700  0.1720
 3809TIP3   OH232841   5.053   4.709  16.467  0.9889  0.0519 -0.3018
 3809TIP3    H132842   5.036   4.706  16.372 -0.7048  1.1583 -0.0892
 3809TIP3    H232843   5.032   4.799  16.491 -0.7671 -0.7528  1.4614
 3810TIP3   OH232844   1.245   6.134   4.697 -0.1060  0.6885  0.0506
 3810TIP3    H132845   1.286   6.208   4.653 -1.3795  2.1556  1.2055
 3810TIP3    H232846   1.166   6.170   4.737 -1.5597 -1.5989 -0.5041
 3811TIP3   OH232847   4.688   3.050  17.213 -0.0471  0.2857 -0.3733
 3811TIP3    H132848   4.603   3.019  17.243  0.0684  0.0267 -0.3070
 3811TIP3    H232849   4.744   3.045  17.290  0.2579 -0.4060 -0.6213
 3812TIP3   OH232850   1.474   1.111   5.797 -0.0972  0.4498 -0.0149
 3812TIP3    H132851   1.473   1.024   5.756 -1.5769  0.3946  0.0906
 3812TIP3    H232852   1.561   1.117   5.837  0.2038 -0.7882 -0.4181
 3813TIP3   OH232853   0.692   1.744  15.410  0.2126 -0.0313 -0.2507
 3813TIP3    H132854   0.757   1.811  15.387  0.9846 -0.8555 -0.5037
 3813TIP3    H232855   0.635   1.788  15.473  0.8402  0.8032 -0.2436
 3814TIP3   OH232856   6.189   1.635   2.863 -0.4528 -0.3285  1.1818
 3814TIP3    H132857   6.252   1.582   2.813  0.0075  0.2192  1.1679
 3814TIP3    H232858   6.183   1.591   2.948  1.0493  0.3912  1.6981
 3815TIP3   OH232859   3.974   2.489   2.382  0.1826 -0.0656  0.3058
 3815TIP3    H132860   3.879   2.500   2.375  0.1100 -0.1390  1.1053
 3815TIP3    H232861   4.003   2.562   2.437  0.6048  0.0117 -0.0143
 3816TIP3   OH232862   3.373   5.877   6.666 -0.6107  0.2116  0.9202
 3816TIP3    H132863   3.381   5.796   6.614 -1.0342 -0.3548  1.7263
 3816TIP3    H232864   3.457   5.921   6.653 -0.8881  0.3527 -0.6770
 3817TIP3   OH232865   0.841   3.157  12.263  0.0161 -0.0856  0.2555
 3817TIP3    H132866   0.751   3.126  12.266 -0.0919  0.2210  0.1821
 3817TIP3    H232867   0.893   3.078  12.249 -0.1760 -0.3666  1.0871
 3818TIP3   OH232868   1.303   2.033  14.968 -0.0523  0.2540 -0.2690
 3818TIP3    H132869   1.371   2.062  15.029  0.4340  0.2410 -0.7941
 3818TIP3    H232870   1.281   1.945  14.997  1.4779 -0.4732 -1.1672
 3819TIP3   OH232871   6.153   1.502   1.720  0.7190 -0.6930  0.6694
 3819TIP3    H132872   6.059   1.519   1.711  0.8410 -0.1897  0.2849
 3819TIP3    H232873   6.194   1.586   1.699  1.3009 -1.1597 -0.1030
 3820TIP3   OH232874   5.105   3.447  15.307  0.4090 -0.2229  0.7740
 3820TIP3    H132875   5.061   3.371  15.269  0.8557 -0.0227 -0.1918
 3820TIP3    H232876   5.192   3.414  15.331  0.6322 -0.0190  0.2792
 3821TIP3   OH232877   4.495   5.126  15.570  0.1221 -0.3147 -0.0238
 3821TIP3    H132878   4.512   5.158  15.481  0.4832 -0.8462 -0.1517
 3821TIP3    H232879   4.414   5.077  15.564 -0.8084  1.1198  0.3153
 3822TIP3   OH232880   5.847   3.740  16.934  0.1478 -0.6141 -0.9668
 3822TIP3    H132881   5.872   3.818  16.983  1.7487 -1.1991 -0.8102
 3822TIP3    H232882   5.855   3.766  16.842 -2.4014  0.3340 -1.0231
 3823TIP3   OH232883   4.440   1.411  11.978  1.0595  0.3243  0.0450
 3823TIP3    H132884   4.378   1.382  12.044 -0.4349 -1.1161 -1.8786
 3823TIP3    H232885   4.389   1.466  11.919  1.5977 -0.7859 -1.5112
 3824TIP3   OH232886   6.701   3.728  13.599 -0.2232 -0.3938  0.0674
 3824TIP3    H132887   6.657   3.643  13.588 -0.5628 -0.2572  0.3665
 3824TIP3    H232888   6.635   3.793  13.574  0.4294 -0.2537 -1.3829
 3825TIP3   OH232889   4.023   3.053   0.992 -0.3309  0.2053 -0.2638
 3825TIP3    H132890   3.937   3.095   0.992 -0.8030 -0.7239 -0.0391
 3825TIP3    H232891   4.063   3.080   0.910 -1.1481  0.0477 -0.7302
 3826TIP3   OH232892   5.969   1.300  12.124  0.6121  0.0640 -0.0898
 3826TIP3    H132893   5.874   1.289  12.135  0.5676  1.2960  0.9963
 3826TIP3    H232894   5.984   1.278  12.032 -0.9920  1.3587 -0.7234
 3827TIP3   OH232895   5.688   0.527  16.295  0.4781  0.3815 -0.0389
 3827TIP3    H132896   5.604   0.487  16.274  0.9520 -0.3038 -0.7005
 3827TIP3    H232897   5.744   0.453  16.319  0.7908  0.8694  0.7409
 3828TIP3   OH232898   3.011   6.374  12.072 -0.6832 -0.3623 -0.1377
 3828TIP3    H132899   2.927   6.404  12.106 -0.4213 -0.7479  0.8906
 3828TIP3    H232900   3.050   6.451  12.031 -0.5159  0.4432  1.4448
 3829TIP3   OH232901   4.112   5.046  16.553 -0.6323  0.6770  0.1251
 3829TIP3    H132902   4.099   5.111  16.484 -0.3380  0.9783  0.3470
 3829TIP3    H232903   4.202   5.015  16.540 -0.3862  1.1220  0.6829
 3830TIP3   OH232904   5.831   5.985  12.423  0.2026 -0.6188  0.4665
 3830TIP3    H132905   5.923   5.980  12.398 -0.5955 -1.4148 -2.7711
 3830TIP3    H232906   5.821   6.070  12.466  2.1336  0.1869 -0.5890
 3831TIP3   OH232907   1.063   3.294  12.243  0.5403  1.0041 -0.1305
 3831TIP3    H132908   0.974   3.265  12.223  0.9718 -2.1052  1.7512
 3831TIP3    H232909   1.103   3.308  12.157 -0.7304 -1.1796 -1.1761
 3832TIP3   OH232910   5.774   1.095   5.787 -0.1641 -0.0772  0.6618
 3832TIP3    H132911   5.711   1.139   5.730 -1.7197  0.7061  2.8400
 3832TIP3    H232912   5.833   1.165   5.816  0.9883 -0.5787 -0.3743
 3833TIP3   OH232913   2.695   5.914   0.860 -0.0068 -0.0830  0.6121
 3833TIP3    H132914   2.608   5.939   0.891 -0.2570 -0.2541  0.0662
 3833TIP3    H232915   2.753   5.933   0.934 -0.6841 -1.2102  1.4774
 3834TIP3   OH232916   3.287   0.320   3.158 -0.7041  0.7132 -0.4342
 3834TIP3    H132917   3.216   0.370   3.118 -1.3684 -1.3706 -2.0620
 3834TIP3    H232918   3.245   0.239   3.187  0.7280  0.1046  0.0146
 3835TIP3   OH232919   4.473   1.729  17.271 -0.9792  0.6921  0.2518
 3835TIP3    H132920   4.421   1.667  17.219 -0.9293  0.3992  0.5480
 3835TIP3    H232921   4.552   1.680  17.294 -1.4661  0.4580  1.4871
 3836TIP3   OH232922   1.957   3.170   0.268  0.1948  0.3547 -0.1951
 3836TIP3    H132923   2.006   3.171   0.350  0.0467  0.9499 -0.1084
 3836TIP3    H232924   1.886   3.108   0.282  0.6126 -0.1208 -0.1410
 3837TIP3   OH232925   0.222   2.296  15.078 -0.2128  0.3784  0.2034
 3837TIP3    H132926   0.316   2.297  15.092 -0.0797  2.3668 -0.5949
 3837TIP3    H232927   0.199   2.203  15.077  2.1644 -0.2945 -2.2764
 3838TIP3   OH232928   2.211   3.667  12.480  0.0430  0.3781 -0.2119
 3838TIP3    H132929   2.205   3.742  12.421  0.6138 -0.0108 -0.7829
 3838TIP3    H232930   2.156   3.601  12.440 -0.5727  0.5365  0.3670
 3839TIP3   OH232931   6.079   3.517   5.599  0.1769 -0.3268  0.6184
 3839TIP3    H132932   6.168   3.493   5.627  0.1737  0.2008  1.1139
 3839TIP3    H232933   6.021   3.462   5.651  0.2299 -1.6252 -0.6616
 3840TIP3   OH232934   3.501   5.417   0.219 -0.0565  0.0129 -0.1548
 3840TIP3    H132935   3.485   5.455   0.133  0.8403  0.1627 -0.2573
 3840TIP3    H232936   3.482   5.488   0.280  1.8226  0.7370 -0.3516
 3841TIP3   OH232937   1.264   0.249  14.141 -0.2423 -0.0692  0.0623
 3841TIP3    H132938   1.239   0.315  14.075 -1.1611 -0.1919  0.2660
 3841TIP3    H232939   1.208   0.174  14.121  0.8961 -0.8514 -0.2544
 3842TIP3   OH232940   3.905   2.629   3.332  0.1821  0.2114  0.2870
 3842TIP3    H132941   3.930   2.613   3.422  1.2833  0.1551 -0.0176
 3842TIP3    H232942   3.960   2.702   3.304  1.9320 -1.5717 -1.1905
 3843TIP3   OH232943   2.562   0.829   2.706 -0.5374 -0.5280  0.2647
 3843TIP3    H132944   2.600   0.860   2.788 -1.5632  1.2253  0.1222
 3843TIP3    H232945   2.634   0.837   2.643 -0.1570 -0.5238  0.6898
 3844TIP3   OH232946   0.622   6.070   5.265 -0.1554  0.0094 -0.1292
 3844TIP3    H132947   0.672   6.118   5.199  0.9101 -0.5820  0.2192
 3844TIP3    H232948   0.551   6.029   5.216  0.3034  0.0248 -0.8236
 3845TIP3   OH232949   4.552   3.622  16.017  0.1408  0.7100 -0.1005
 3845TIP3    H132950   4.588   3.624  15.928 -2.1070  1.5967 -1.0603
 3845TIP3    H232951   4.553   3.713  16.046  1.9479  0.2947  1.3098
 3846TIP3   OH232952   6.178   1.158  16.681 -0.3765  0.0914  0.0833
 3846TIP3    H132953   6.265   1.159  16.721 -0.0397  0.3639 -0.6382
 3846TIP3    H232954   6.137   1.240  16.711 -0.9641 -0.7021  1.6102
 3847TIP3   OH232955   5.882   4.471  14.502  0.2519  0.0976  0.0617
 3847TIP3    H132956   5.896   4.544  14.562  0.6203  0.2618 -0.2217
 3847TIP3    H232957   5.863   4.396  14.559  0.2896  0.3195  0.3693
 3848TIP3   OH232958   0.605   0.458  14.008 -0.9222 -0.2826 -0.1094
 3848TIP3    H132959   0.680   0.517  14.013 -0.6992 -0.4983 -0.7421
 3848TIP3    H232960   0.608   0.423  13.919 -0.2610 -2.2684  0.6203
 3849TIP3   OH232961   3.390   2.482   2.762  0.5330 -0.1261  0.0020
 3849TIP3    H132962   3.440   2.434   2.828  0.5170 -0.5682 -0.3033
 3849TIP3    H232963   3.300   2.479   2.793  0.6239  0.2365  0.2972
 3850TIP3   OH232964   3.147   2.924   0.217  0.0002  0.3454  0.0362
 3850TIP3    H132965   3.144   2.856   0.285  0.7086  1.1010  0.8606
 3850TIP3    H232966   3.086   2.894   0.150 -1.2446 -0.1088  1.3197
 3851TIP3   OH232967   5.183   3.567   2.006  0.0591 -0.6711  0.4553
 3851TIP3    H132968   5.121   3.626   1.962 -1.0902 -0.9538  1.6269
 3851TIP3    H232969   5.237   3.532   1.935 -1.5283 -0.8697 -0.7091
 3852TIP3   OH232970   4.584   6.010   3.018 -0.3121  0.4907 -0.5331
 3852TIP3    H132971   4.548   6.070   3.084  1.0637  1.3801 -0.5533
 3852TIP3    H232972   4.677   6.031   3.014 -0.0421 -0.7557 -1.5125
 3853TIP3   OH232973   1.218   0.761  16.149 -0.8766  0.6691 -0.4579
 3853TIP3    H132974   1.261   0.712  16.079 -0.6380 -1.2369  0.9379
 3853TIP3    H232975   1.129   0.727  16.151 -0.4865 -0.3655  1.0430
 3854TIP3   OH232976   5.012   6.240   4.435 -0.3455  0.1904 -0.1479
 3854TIP3    H132977   4.967   6.164   4.397 -1.8246  0.0464  1.7381
 3854TIP3    H232978   4.942   6.293   4.473  0.9013  1.1231  0.9360
 3855TIP3   OH232979   3.896   5.045  16.735  0.0141 -0.4552 -0.0837
 3855TIP3    H132980   3.987   5.052  16.706  0.0492 -1.4379 -0.2579
 3855TIP3    H232981   3.901   5.005  16.822 -0.2241 -0.0014  0.1406
 3856TIP3   OH232982   4.086   5.052  12.020 -0.0684 -0.2963 -0.5988
 3856TIP3    H132983   4.013   5.028  12.076 -0.7719  1.4751 -0.6795
 3856TIP3    H232984   4.107   4.972  11.972 -2.2979 -0.7565 -0.9307
 3857TIP3   OH232985   4.749   2.454  14.116 -0.0202 -0.9989 -0.0807
 3857TIP3    H132986   4.694   2.532  14.119  0.7096 -0.4892  1.8490
 3857TIP3    H232987   4.812   2.467  14.187  2.7671 -1.4238 -2.3126
 3858TIP3   OH232988   3.062   3.761  14.504 -0.1751 -0.1158  0.1314
 3858TIP3    H132989   2.996   3.816  14.546  0.0791 -0.4539  0.9924
 3858TIP3    H232990   3.127   3.823  14.470 -0.4522  0.1689  0.1196
 3859TIP3   OH232991   2.988   4.828  12.678 -0.4154  0.1770  0.2751
 3859TIP3    H132992   2.926   4.867  12.739 -2.8040 -2.0422 -0.5839
 3859TIP3    H232993   2.944   4.831  12.593  1.7343  0.7704 -0.9137
 3860TIP3   OH232994   3.952   2.149  14.768  0.0846  0.3713  0.2841
 3860TIP3    H132995   3.887   2.214  14.794  0.0881  0.2750  0.5386
 3860TIP3    H232996   3.909   2.065  14.782 -0.4493  0.3246 -1.4146
 3861TIP3   OH232997   2.855   3.793  16.259 -0.3097  0.1683 -0.0795
 3861TIP3    H132998   2.915   3.735  16.213 -0.1900  0.9106 -0.8684
 3861TIP3    H232999   2.768   3.756  16.241 -0.1659 -0.4273  0.3880
 3862TIP3   OH233000   5.631   3.449  13.413  0.4569  0.1402  0.0981
 3862TIP3    H133001   5.579   3.523  13.382 -0.2932 -0.0897  0.7633
 3862TIP3    H233002   5.597   3.374  13.365  2.1663  0.3983 -1.6242
 3863TIP3   OH233003   3.006   5.460   3.543  0.0477  0.0399 -0.2676
 3863TIP3    H133004   3.018   5.486   3.452  0.2891 -1.3428 -0.6460
 3863TIP3    H233005   3.044   5.372   3.549  1.0890  0.5459  1.4327
 3864TIP3   OH233006   4.358   1.842  12.905 -0.1137  0.3826  0.7016
 3864TIP3    H133007   4.436   1.895  12.888  0.0875  0.7403  2.5582
 3864TIP3    H233008   4.342   1.796  12.822  1.8524  0.5571  0.1684
 3865TIP3   OH233009   5.587   0.579  16.759 -0.2176  0.2548 -0.4083
 3865TIP3    H133010   5.493   0.557  16.761 -0.1914  0.1633  0.5553
 3865TIP3    H233011   5.606   0.608  16.848  0.2766  2.0240 -1.0574
 3866TIP3   OH233012   2.838   1.872   2.756 -0.2050 -0.1897 -0.1001
 3866TIP3    H133013   2.822   1.868   2.662 -1.4461 -0.5031  0.1126
 3866TIP3    H233014   2.751   1.871   2.796  0.2682  0.8400  1.0239
 3867TIP3   OH233015   4.601   3.231  15.539  0.7183  0.3299  0.3679
 3867TIP3    H133016   4.547   3.165  15.582  0.2045  0.1440 -0.5412
 3867TIP3    H233017   4.566   3.314  15.572 -1.2909  0.2882 -1.4611
 3868TIP3   OH233018   4.915   2.617   3.340 -0.4165  0.3272 -0.0282
 3868TIP3    H133019   4.902   2.694   3.285  0.1541 -0.2522 -1.0090
 3868TIP3    H233020   4.951   2.551   3.280  0.8062 -0.1266  1.1752
 3869TIP3   OH233021   4.373   1.607   3.497 -0.4400  0.1572  0.0565
 3869TIP3    H133022   4.385   1.686   3.550 -0.9980  1.1009 -1.1840
 3869TIP3    H233023   4.307   1.556   3.545 -0.2036  0.5196  0.7788
 3870TIP3   OH233024   3.752   6.507   5.865  0.0783  0.4909 -0.0403
 3870TIP3    H133025   3.760   6.504   5.769 -0.6201  0.8585 -0.1170
 3870TIP3    H233026   3.715   6.593   5.883 -1.0055 -0.0608  0.4624
 3871TIP3   OH233027   3.469   6.431  11.562 -0.0477  0.3710 -0.4724
 3871TIP3    H133028   3.413   6.358  11.536 -0.1176  1.3032 -3.2415
 3871TIP3    H233029   3.555   6.409  11.527  0.3035  0.9278  0.0243
 3872TIP3   OH233030   3.174   5.493  10.671 -0.5987  0.0409  0.1047
 3872TIP3    H133031   3.103   5.452  10.622 -0.7825  0.3051  0.1494
 3872TIP3    H233032   3.140   5.578  10.697  0.4828  1.0998 -1.7391
 3873TIP3   OH233033   1.260   3.325   5.092 -0.3013 -0.1170 -0.1221
 3873TIP3    H133034   1.271   3.241   5.136  2.5040 -0.1892 -0.7447
 3873TIP3    H233035   1.178   3.317   5.044 -1.1334 -1.6994  1.4579
 3874TIP3   OH233036   6.597   0.066   3.693  0.2821  0.2841  0.0503
 3874TIP3    H133037   6.618   0.154   3.725  2.3745 -0.1146 -0.0786
 3874TIP3    H233038   6.679   0.034   3.656 -0.1851 -2.0752  0.9068
 3875TIP3   OH233039   5.259   1.598   3.813 -0.5562  0.2870  0.7369
 3875TIP3    H133040   5.174   1.556   3.808  0.1977 -1.1644 -2.8718
 3875TIP3    H233041   5.243   1.679   3.863 -4.0202  0.0860  0.1795
 3876TIP3   OH233042   3.731   0.254   5.699  0.2814 -0.3266 -0.4286
 3876TIP3    H133043   3.674   0.330   5.715  1.7648  0.7972 -0.3162
 3876TIP3    H233044   3.817   0.281   5.731  1.3204 -1.3072 -2.2409
 3877TIP3   OH233045   0.681   1.005   0.249 -0.1701  0.1989 -0.1616
 3877TIP3    H133046   0.758   0.958   0.218  0.5446  1.2025  0.0255
 3877TIP3    H233047   0.656   1.061   0.175  0.7364  1.6210  0.5613
 3878TIP3   OH233048   6.506   5.687   4.478 -0.6541 -0.0285 -0.8470
 3878TIP3    H133049   6.492   5.745   4.403 -1.3185 -0.2642 -0.9134
 3878TIP3    H233050   6.542   5.606   4.440 -0.6473 -0.0151 -0.8689
 3879TIP3   OH233051   2.953   4.156   1.077 -0.2545 -0.9999 -0.4914
 3879TIP3    H133052   2.874   4.203   1.106 -0.4232 -1.1089 -0.7717
 3879TIP3    H233053   2.930   4.123   0.990  0.9577  1.0813 -1.6704
 3880TIP3   OH233054   3.210   2.690   1.965 -0.0920 -0.3946  0.4083
 3880TIP3    H133055   3.141   2.757   1.970  1.0905  1.0507 -1.3078
 3880TIP3    H233056   3.280   2.723   2.020 -0.3301 -1.3715  1.3406
 3881TIP3   OH233057   6.709   3.762   3.706  0.1449 -0.0796 -0.3296
 3881TIP3    H133058   6.631   3.729   3.752  0.9846 -3.0473 -0.8135
 3881TIP3    H233059   6.676   3.791   3.622 -0.6615  0.2028  0.0754
 3882TIP3   OH233060   5.673   6.609  11.806 -0.0761  0.4728 -0.3226
 3882TIP3    H133061   5.757   6.627  11.848 -1.3375  1.5253  1.9543
 3882TIP3    H233062   5.685   6.635  11.715  1.7235  1.6829  0.2087
 3883TIP3   OH233063   2.271   5.765  16.436 -0.4774  0.0924  0.4327
 3883TIP3    H133064   2.320   5.683  16.429  0.2955  0.4522  1.5282
 3883TIP3    H233065   2.190   5.740  16.480 -0.5285 -0.1869  0.1890
 3884TIP3   OH233066   4.280   6.476  17.368  0.5019 -0.0761 -0.8687
 3884TIP3    H133067   4.284   6.381  17.374  0.5882  0.0183  3.3367
 3884TIP3    H233068   4.187   6.497  17.377  0.6550  0.2389  0.1040
 3885TIP3   OH233069   0.357   3.995   5.238  0.1953 -0.2921 -0.2275
 3885TIP3    H133070   0.336   3.902   5.241 -0.3648 -0.2402 -1.7971
 3885TIP3    H233071   0.435   4.001   5.184  1.1042  0.0322  1.0880
 3886TIP3   OH233072   1.195   4.596   0.777 -0.8060 -0.0514 -0.1623
 3886TIP3    H133073   1.194   4.630   0.688 -1.9068 -0.1203 -0.1897
 3886TIP3    H233074   1.230   4.668   0.830  0.7538 -0.3414 -0.7580
 3887TIP3   OH233075   2.076   5.039   0.106  0.4941  0.2384 -0.8659
 3887TIP3    H133076   2.054   5.132   0.104  2.2365  0.6727 -2.0310
 3887TIP3    H233077   2.139   5.030   0.177 -0.4065 -0.2750 -0.0971
 3888TIP3   OH233078   6.126   1.783  14.935 -0.6806  0.5929 -0.3774
 3888TIP3    H133079   6.118   1.873  14.902 -0.2429  1.1209  0.8999
 3888TIP3    H233080   6.045   1.767  14.983 -1.6126 -0.4144 -2.1683
 3889TIP3   OH233081   6.403   4.155   1.424 -0.4296  0.5208 -0.4656
 3889TIP3    H133082   6.435   4.075   1.381 -2.1191  0.3667 -1.5299
 3889TIP3    H233083   6.309   4.140   1.434 -0.9651  2.7392 -1.5837
 3890TIP3   OH233084   3.880   3.366  12.121  0.1837 -0.2547  0.4723
 3890TIP3    H133085   3.901   3.274  12.129 -0.7504 -0.6054 -0.7850
 3890TIP3    H233086   3.784   3.369  12.118  0.1871  0.7823  0.7516
 3891TIP3   OH233087   6.303   1.951   0.298 -0.0092 -0.0933 -0.0719
 3891TIP3    H133088   6.336   1.861   0.301  1.4561  0.2704 -2.3963
 3891TIP3    H233089   6.219   1.945   0.251  0.8072 -0.1542 -1.6121
 3892TIP3   OH233090   3.278   1.874   0.091  0.5357 -0.4897 -0.4391
 3892TIP3    H133091   3.250   1.808   0.028 -2.0453  0.6140 -0.5518
 3892TIP3    H233092   3.230   1.852   0.171 -1.9960  2.2728 -1.0311
 3893TIP3   OH233093   3.517   3.367   6.670  0.2042  0.2207  0.7147
 3893TIP3    H133094   3.489   3.286   6.713 -0.1309  0.9014  1.8070
 3893TIP3    H233095   3.437   3.418   6.661  0.1188 -0.2211 -1.4753
 3894TIP3   OH233096   5.583   4.782   1.408  0.5188  0.1514  0.3237
 3894TIP3    H133097   5.632   4.826   1.478 -0.4440  0.7446  0.6442
 3894TIP3    H233098   5.581   4.846   1.337 -1.1044  0.7671  0.8821
 3895TIP3   OH233099   2.007   5.681   3.729 -0.3122  0.1997  0.3518
 3895TIP3    H133100   1.981   5.590   3.743 -0.9104  0.3016 -0.0657
 3895TIP3    H233101   1.929   5.723   3.691  0.3799  0.5590 -0.7266
 3896TIP3   OH233102   6.702   4.318   6.493 -0.4875  0.4579  0.4794
 3896TIP3    H133103   6.746   4.382   6.438 -0.8197 -0.2941 -0.6878
 3896TIP3    H233104   6.769   4.289   6.555  0.3988  0.0163 -0.6735
 3897TIP3   OH233105   0.266   2.541  15.403  0.5639 -0.2187  0.1531
 3897TIP3    H133106   0.350   2.584  15.386  0.9219 -0.9045  0.1821
 3897TIP3    H233107   0.218   2.603  15.459  1.6015 -0.4458  1.3190
 3898TIP3   OH233108   2.301   4.940   4.401 -0.2238  0.3080 -0.2387
 3898TIP3    H133109   2.219   4.928   4.449  0.9325 -1.1523  1.5136
 3898TIP3    H233110   2.284   5.015   4.344 -2.5634  0.4341  0.4903
 3899TIP3   OH233111   1.195   6.436   0.253 -0.0876  0.5820 -0.1484
 3899TIP3    H133112   1.289   6.443   0.236  0.4232 -2.2263  0.9619
 3899TIP3    H233113   1.157   6.411   0.169  0.3639  0.4358 -0.3127
 3900TIP3   OH233114   0.314   5.749   4.514 -0.4490 -0.2906  0.6477
 3900TIP3    H133115   0.236   5.720   4.468 -1.6951  0.6392  2.0531
 3900TIP3    H233116   0.312   5.702   4.598  0.7527 -0.5715  0.5500
 3901TIP3   OH233117   6.734   6.152   3.923 -0.0864 -0.5412 -0.2143
 3901TIP3    H133118   6.753   6.089   3.991  0.0479 -0.5978 -0.3044
 3901TIP3    H233119   6.732   6.237   3.968  1.5775 -0.3723 -0.3900
 3902TIP3   OH233120   2.201   1.693   2.820  0.3165 -0.4699  0.1831
 3902TIP3    H133121   2.195   1.759   2.889 -0.5835  0.8139 -1.0568
 3902TIP3    H233122   2.115   1.651   2.819 -0.3016  0.7093 -1.2188
 3903TIP3   OH233123   6.270   3.125  15.210  0.2581 -0.3871 -0.1290
 3903TIP3    H133124   6.181   3.097  15.232  0.9259 -0.5352  2.7356
 3903TIP3    H233125   6.263   3.219  15.196 -0.2595 -0.2882  0.7206
 3904TIP3   OH233126   0.171   6.192  14.176  0.1283  0.2027  0.9849
 3904TIP3    H133127   0.260   6.166  14.200 -0.7010 -1.3285  2.6570
 3904TIP3    H233128   0.165   6.175  14.082  2.3253  2.7455  0.2357
 3905TIP3   OH233129   6.088   4.770   0.561  0.0121  0.0728  0.0287
 3905TIP3    H133130   6.158   4.800   0.619 -0.1735 -0.1417  0.3705
 3905TIP3    H233131   6.107   4.677   0.547  1.1007  0.5212 -1.7604
 3906TIP3   OH233132   2.187   0.702  12.836 -0.2197 -0.1514 -0.0281
 3906TIP3    H133133   2.229   0.620  12.864 -1.7253 -1.0425 -0.2682
 3906TIP3    H233134   2.142   0.732  12.914 -1.3481 -0.6561 -0.4666
 3907TIP3   OH233135   1.347   5.187   0.064  0.3187 -0.3583 -0.6835
 3907TIP3    H133136   1.428   5.182   0.114  0.1748  2.3626 -0.0039
 3907TIP3    H233137   1.277   5.184   0.130  0.0266  0.6282 -0.9289
 3908TIP3   OH233138   3.262   3.318  17.257  0.5156 -0.0343 -0.2881
 3908TIP3    H133139   3.207   3.259  17.206  0.5437  0.0912 -0.4669
 3908TIP3    H233140   3.260   3.400  17.207  0.6936  0.0326 -0.1851
 3909TIP3   OH233141   5.855   3.802   5.960  0.1903  0.4250 -0.2386
 3909TIP3    H133142   5.900   3.728   5.920  1.1379  1.9648 -2.1852
 3909TIP3    H233143   5.871   3.793   6.054  3.2073 -0.0127 -0.6995
 3910TIP3   OH233144   0.566   2.289   4.855  0.1215 -0.0107 -0.0056
 3910TIP3    H133145   0.615   2.247   4.783  0.0994  0.2391 -0.1662
 3910TIP3    H233146   0.488   2.235   4.864 -0.4540  0.6250 -0.9621
 3911TIP3   OH233147   0.794   1.053  14.049 -0.4394 -0.5037 -0.1389
 3911TIP3    H133148   0.736   0.980  14.028 -0.5717 -0.4331 -0.0190
 3911TIP3    H233149   0.759   1.089  14.130  0.0277 -0.7240  0.1612
 3912TIP3   OH233150   3.743   1.511   5.552 -0.0560  0.5438  0.0103
 3912TIP3    H133151   3.746   1.439   5.616 -0.1889  0.6157  0.0999
 3912TIP3    H233152   3.721   1.588   5.605 -0.0799  0.6194 -0.1102
 3913TIP3   OH233153   2.352   1.409  13.672 -0.9029  0.7691  0.0165
 3913TIP3    H133154   2.363   1.335  13.731 -2.0435 -1.2259 -2.1122
 3913TIP3    H233155   2.288   1.466  13.715 -0.5964  0.1507  1.3365
 3914TIP3   OH233156   2.048   0.687   4.134  0.8104 -0.1728 -0.1150
 3914TIP3    H133157   2.051   0.627   4.209 -0.3503  0.9641  0.8977
 3914TIP3    H233158   2.137   0.722   4.127  0.4299  1.6710  2.4648
 3915TIP3   OH233159   2.398   2.382   1.612  0.1190  0.4718  1.0161
 3915TIP3    H133160   2.366   2.470   1.630  1.1977  0.6490  2.2465
 3915TIP3    H233161   2.367   2.330   1.686 -1.5934 -0.5146 -0.3166
 3916TIP3   OH233162   2.770   2.991   3.599  0.1385 -0.3405  0.1729
 3916TIP3    H133163   2.696   3.031   3.644 -2.1491 -0.4061 -3.1488
 3916TIP3    H233164   2.755   2.896   3.607  0.5026 -0.3824  0.4000
 3917TIP3   OH233165   4.605   1.867   0.991 -0.0495  0.5288 -0.3626
 3917TIP3    H133166   4.633   1.888   1.080  0.0339 -0.3693 -0.1617
 3917TIP3    H233167   4.569   1.778   0.999 -0.2556  0.5386 -1.1799
 3918TIP3   OH233168   3.406   3.936   2.937 -0.1736 -0.1493  0.7194
 3918TIP3    H133169   3.371   3.847   2.937  0.2807 -0.3323  0.0019
 3918TIP3    H233170   3.388   3.968   3.026  0.5390 -1.2980  1.3152
 3919TIP3   OH233171   0.859   4.570   1.573 -0.3116  0.2682 -0.3266
 3919TIP3    H133172   0.795   4.628   1.614  0.4741  1.3865 -0.6134
 3919TIP3    H233173   0.904   4.527   1.645 -2.4049 -1.7538 -0.1262
 3920TIP3   OH233174   5.717   0.952   6.310 -0.5784  0.2164 -0.3829
 3920TIP3    H133175   5.735   0.968   6.217 -2.3506  2.5675 -0.4289
 3920TIP3    H233176   5.624   0.973   6.319 -0.0768  1.7244  2.2334
 3921TIP3   OH233177   3.063   2.344  13.502 -0.0471 -0.5729 -0.3393
 3921TIP3    H133178   3.004   2.333  13.428 -0.3851  0.4523 -0.2373
 3921TIP3    H233179   3.006   2.364  13.576  0.4238  0.5443 -0.2620
 3922TIP3   OH233180   5.637   3.405  11.297 -0.0051 -0.0206 -0.0189
 3922TIP3    H133181   5.721   3.359  11.300 -0.8650 -1.7367 -0.7141
 3922TIP3    H233182   5.577   3.346  11.344 -0.7216  1.4510  0.9749
 3923TIP3   OH233183   1.047   6.039   5.176  0.1609 -0.4435  0.1004
 3923TIP3    H133184   1.132   6.079   5.191  0.6144 -1.2418 -0.2962
 3923TIP3    H233185   1.044   6.023   5.082 -1.3298  1.5488 -0.2708
 3924TIP3   OH233186   2.035   1.825  13.866 -0.2253  0.0968 -0.0989
 3924TIP3    H133187   2.026   1.872  13.783  0.0522 -1.4900 -1.0786
 3924TIP3    H233188   1.988   1.742  13.852 -0.2157 -0.1807  1.3451
 3925TIP3   OH233189   0.456   1.050   4.327  0.1598 -0.3946  0.1313
 3925TIP3    H133190   0.460   1.127   4.271  0.5475  0.6868  1.5662
 3925TIP3    H233191   0.431   1.085   4.413  1.6376 -1.6691  1.1385
 3926TIP3   OH233192   6.460   1.479  13.066  0.9005 -0.0759 -0.0045
 3926TIP3    H133193   6.502   1.564  13.057 -0.6424  0.6701 -0.5070
 3926TIP3    H233194   6.426   1.478  13.156 -1.2646  0.9454 -0.7395
 3927TIP3   OH233195   3.395   0.603  16.161 -0.3379 -0.0350  0.1731
 3927TIP3    H133196   3.435   0.636  16.240 -0.9377 -0.7419  0.7977
 3927TIP3    H233197   3.453   0.631  16.090  0.6118 -0.0410  0.9297
 3928TIP3   OH233198   5.269   5.481  16.318  0.4639  0.1067 -0.4079
 3928TIP3    H133199   5.338   5.516  16.262  0.7289  1.1817  0.5547
 3928TIP3    H233200   5.228   5.412  16.266  1.8250 -0.1023 -1.2557
 3929TIP3   OH233201   4.938   2.730   2.038 -0.0111 -0.0992 -0.1896
 3929TIP3    H133202   4.945   2.716   1.944 -2.2267  1.2905 -0.6427
 3929TIP3    H233203   4.949   2.643   2.077  0.6895 -0.7271 -1.7215
 3930TIP3   OH233204   5.731   4.906   4.199  0.0069  0.1372 -0.2367
 3930TIP3    H133205   5.684   4.853   4.134 -0.8438 -0.7614  1.0558
 3930TIP3    H233206   5.743   4.991   4.157 -0.4735 -0.4304 -1.5790
 3931TIP3   OH233207   4.515   4.345   0.580  0.2274 -0.4055 -0.5140
 3931TIP3    H133208   4.427   4.328   0.615 -0.3328  3.3038  0.2554
 3931TIP3    H233209   4.500   4.375   0.490  0.7059  0.0468 -0.4496
 3932TIP3   OH233210   3.627   2.381   0.873  0.8010  0.0627 -0.3792
 3932TIP3    H133211   3.531   2.374   0.874  0.8792 -1.1586  0.1603
 3932TIP3    H233212   3.644   2.470   0.842 -0.5169  0.4310 -0.1079
 3933TIP3   OH233213   3.067   1.601  17.481 -0.1655 -0.1042 -0.3007
 3933TIP3    H133214   2.972   1.597  17.473 -0.2724 -0.7517  0.8923
 3933TIP3    H233215   3.088   1.533  17.546  1.0871  0.1633 -0.3927
 3934TIP3   OH233216   6.587   1.498   2.623  0.2331  0.0194  0.1960
 3934TIP3    H133217   6.558   1.503   2.532 -1.1462  0.2463  0.6228
 3934TIP3    H233218   6.663   1.439   2.621 -0.3535 -0.7379 -0.9637
 3935TIP3   OH233219   2.052   3.475  16.422 -0.1805  0.0739 -0.1978
 3935TIP3    H133220   1.961   3.469  16.395 -0.1778  1.5094 -0.5797
 3935TIP3    H233221   2.053   3.443  16.512 -0.7266 -1.7176 -0.7866
 3936TIP3   OH233222   1.934   4.131   0.719  0.5592  0.3547 -0.4308
 3936TIP3    H133223   2.005   4.161   0.661  1.5832 -1.3453 -0.1300
 3936TIP3    H233224   1.855   4.142   0.667  1.0636  1.9410 -0.9275
 3937TIP3   OH233225   6.263   0.494   4.411  0.0948 -0.4572 -0.4826
 3937TIP3    H133226   6.213   0.565   4.371 -0.0144 -0.0130  0.4270
 3937TIP3    H233227   6.214   0.471   4.490  1.8763  0.7578  1.0562
 3938TIP3   OH233228   0.443   4.927  12.419 -0.5403 -0.4926 -0.3844
 3938TIP3    H133229   0.389   4.850  12.436  1.0570 -1.5024  0.3157
 3938TIP3    H233230   0.529   4.892  12.397  0.0743  1.0954 -0.6424
 3939TIP3   OH233231   5.239   4.793   3.220  0.1916 -0.6471  0.2731
 3939TIP3    H133232   5.199   4.735   3.285  0.5924 -2.4791 -1.0238
 3939TIP3    H233233   5.166   4.821   3.165 -0.0157  0.1969  0.9517
 3940TIP3   OH233234   0.400   1.330  16.021 -0.2664 -0.5392  0.1720
 3940TIP3    H133235   0.310   1.306  16.042 -0.7150 -0.3203 -1.3664
 3940TIP3    H233236   0.394   1.420  15.988  0.3613 -0.8524 -0.8524
 3941TIP3   OH233237   3.378   2.849  15.468 -0.2398 -0.0639  0.3269
 3941TIP3    H133238   3.303   2.872  15.414  0.4417  3.0536  0.5235
 3941TIP3    H233239   3.377   2.753  15.471 -1.6754 -0.2953 -3.1787
 3942TIP3   OH233240   0.121   3.391   4.819  0.2301 -0.1391 -0.5589
 3942TIP3    H133241   0.061   3.464   4.826  0.9470  0.3403  1.1819
 3942TIP3    H233242   0.204   3.425   4.852  0.3127 -1.9925  1.4053
 3943TIP3   OH233243   6.254   4.698  14.128 -0.2765  0.1638  0.1902
 3943TIP3    H133244   6.179   4.639  14.115 -1.4023  1.6615 -0.3699
 3943TIP3    H233245   6.324   4.659  14.076 -0.8388 -0.9265  0.2131
 3944TIP3   OH233246   2.209   5.489   4.991 -0.0118 -0.7196  0.4888
 3944TIP3    H133247   2.297   5.453   4.977 -0.0105 -0.6626  0.3509
 3944TIP3    H233248   2.191   5.472   5.083  0.3466 -0.2822  0.6407
 3945TIP3   OH233249   1.452   6.650  13.586  0.2905  0.5850  0.0293
 3945TIP3    H133250   1.472   6.743  13.576  3.4158  0.0312  0.0814
 3945TIP3    H233251   1.520   6.617  13.644 -1.3742 -1.5718  0.9097
 3946TIP3   OH233252   0.321   0.628  16.549  0.5197 -0.0783  0.0908
 3946TIP3    H133253   0.358   0.711  16.519 -0.8308  1.0784  1.5198
 3946TIP3    H233254   0.385   0.595  16.612  0.4910  0.4583  0.4004
 3947TIP3   OH233255   6.673   2.698  17.056  0.7025  0.0808 -0.0712
 3947TIP3    H133256   6.763   2.667  17.067  0.0230 -1.3764  1.9891
 3947TIP3    H233257   6.664   2.767  17.122 -0.1577 -0.9288  0.8898
 3948TIP3   OH233258   5.987   4.551   1.820  0.4079 -0.4468 -0.1405
 3948TIP3    H133259   6.002   4.644   1.837 -0.5586 -0.4208  0.6899
 3948TIP3    H233260   5.975   4.545   1.725  1.1171  0.1709 -0.2737
 3949TIP3   OH233261   2.120   1.523  15.611  0.4074  0.3044 -0.7788
 3949TIP3    H133262   2.195   1.526  15.551  0.6416 -1.0364 -0.5935
 3949TIP3    H233263   2.086   1.434  15.602 -0.4228  0.5290  0.0371
 3950TIP3   OH233264   0.111   4.198  16.015  0.1749  0.1945 -0.1245
 3950TIP3    H133265   0.045   4.157  16.071  0.5060 -0.2914 -0.0902
 3950TIP3    H233266   0.129   4.282  16.057  1.0228 -0.5060  0.9649
 3951TIP3   OH233267   5.718   5.817   4.253 -0.6019 -0.1937  0.3156
 3951TIP3    H133268   5.700   5.884   4.319 -1.5635  0.2406 -0.3510
 3951TIP3    H233269   5.657   5.838   4.182  1.8662  0.7312 -1.6897
 3952TIP3   OH233270   0.708   3.294   3.957 -0.0127  0.5933 -0.3583
 3952TIP3    H133271   0.644   3.264   4.021 -0.1750  0.0950 -0.7391
 3952TIP3    H233272   0.668   3.372   3.918  0.2004  1.0475  0.3110
 3953TIP3   OH233273   5.035   5.999   3.600  0.1288  1.1452 -0.6222
 3953TIP3    H133274   5.008   5.931   3.538 -2.6213  2.2023 -0.7040
 3953TIP3    H233275   5.129   6.010   3.583  0.3321 -1.4495 -1.7045
 3954TIP3   OH233276   6.429   3.759   0.503 -0.0085 -0.2017 -0.0708
 3954TIP3    H133277   6.351   3.711   0.530  0.4231 -0.2052  1.2296
 3954TIP3    H233278   6.491   3.748   0.576  1.5468 -0.9356 -1.4368
 3955TIP3   OH233279   0.660   3.481   0.335 -0.2531  0.1392  0.1926
 3955TIP3    H133280   0.569   3.469   0.307  0.2794 -1.0325 -1.1795
 3955TIP3    H233281   0.704   3.400   0.307  0.7855 -0.2681  2.7416
 3956TIP3   OH233282   3.872   6.602  14.721  0.7191  0.5295  0.4598
 3956TIP3    H133283   3.803   6.538  14.739 -0.0618  0.8666 -1.1657
 3956TIP3    H233284   3.875   6.657  14.798  0.9065 -0.9993  1.5934
 3957TIP3   OH233285   3.200   5.119  12.556 -0.3011 -1.0274  0.7829
 3957TIP3    H133286   3.264   5.081  12.616 -0.9144 -0.9702  1.4851
 3957TIP3    H233287   3.252   5.163  12.489  0.4983 -3.9604 -0.6937
 3958TIP3   OH233288   3.192   1.749   1.013 -0.5431 -0.6637  0.7210
 3958TIP3    H133289   3.158   1.681   0.955 -0.4627 -1.2016  1.2919
 3958TIP3    H233290   3.122   1.814   1.018 -0.1924 -0.1272 -0.7196
 3959TIP3   OH233291   1.098   1.557  17.411 -1.0474  0.0932  0.3828
 3959TIP3    H133292   1.127   1.487  17.470 -0.2266  1.7102  1.9879
 3959TIP3    H233293   1.025   1.518  17.362 -0.0465 -2.1552  0.5606
 3960TIP3   OH233294   2.084   0.347   2.992  0.1065 -0.1196  0.3114
 3960TIP3    H133295   2.105   0.319   3.081 -0.3414 -1.1352  0.1107
 3960TIP3    H233296   2.013   0.289   2.965 -0.0058  0.4197 -0.5807
 3961TIP3   OH233297   0.530   3.705  11.955  0.3188 -0.4068  0.6264
 3961TIP3    H133298   0.537   3.687  12.049  1.5842  1.4305  0.9531
 3961TIP3    H233299   0.607   3.665  11.917  0.6689  0.2274  0.6467
 3962TIP3   OH233300   2.214   0.651   0.551  0.5251  0.2895  0.6978
 3962TIP3    H133301   2.172   0.565   0.547  1.0114  0.0785 -2.1192
 3962TIP3    H233302   2.308   0.632   0.540  0.5626  1.1711 -0.7665
 3963TIP3   OH233303   6.152   5.208  14.303 -0.0186 -0.3334  0.1507
 3963TIP3    H133304   6.210   5.152  14.251  0.1203  0.4879 -0.6128
 3963TIP3    H233305   6.064   5.174  14.287  0.1151 -0.6644  0.1211
 3964TIP3   OH233306   6.648   6.518  11.614 -0.5780  0.1285  0.8023
 3964TIP3    H133307   6.727   6.519  11.668 -1.2191  1.1570  1.7771
 3964TIP3    H233308   6.680   6.504  11.525  0.9561  2.6800  0.8428
 3965TIP3   OH233309   3.612   4.518   5.906  1.0750 -0.0347 -0.3305
 3965TIP3    H133310   3.587   4.547   5.994 -2.0388 -0.5525 -0.9229
 3965TIP3    H233311   3.595   4.424   5.905  0.5296  0.0503 -1.6171
 3966TIP3   OH233312   2.216   3.441  14.814 -0.5469 -0.0340 -0.7869
 3966TIP3    H133313   2.158   3.508  14.777 -0.3891  1.2747  1.2160
 3966TIP3    H233314   2.303   3.480  14.809 -0.4040 -0.2340  0.0741
 3967TIP3   OH233315   3.763   5.609  16.732  0.0039  0.0627 -0.3401
 3967TIP3    H133316   3.765   5.674  16.662  1.8334 -0.9785 -1.3434
 3967TIP3    H233317   3.855   5.590  16.749 -0.4634 -1.4265  0.7334
 3968TIP3   OH233318   5.119   4.554  16.708  0.3964 -0.3176 -0.0211
 3968TIP3    H133319   5.039   4.570  16.658  0.7507  2.1668  0.0560
 3968TIP3    H233320   5.188   4.547  16.642  0.3718 -0.6294 -0.0146
 3969TIP3   OH233321   6.058   1.612   3.397 -0.1308 -0.2150 -0.5870
 3969TIP3    H133322   6.096   1.585   3.480 -2.2535  0.0897  0.5509
 3969TIP3    H233323   6.111   1.688   3.371  0.2607  0.0060  0.7496
 3970TIP3   OH233324   4.157   6.089  14.633  0.1758  0.2804  0.5205
 3970TIP3    H133325   4.098   6.056  14.701 -1.7854  1.5505 -0.4502
 3970TIP3    H233326   4.149   6.184  14.638  0.1654  0.4244 -1.2782
 3971TIP3   OH233327   5.386   4.927  15.504  0.1951  0.3161 -0.2424
 3971TIP3    H133328   5.331   4.864  15.457 -0.9414  0.5180  0.7510
 3971TIP3    H233329   5.461   4.875  15.534 -1.0329 -0.7685  1.1175
 3972TIP3   OH233330   2.453   0.293   1.871 -0.3514 -0.2708  0.5042
 3972TIP3    H133331   2.415   0.286   1.784 -0.0482 -0.9632  0.4185
 3972TIP3    H233332   2.451   0.386   1.892 -1.6963 -0.2371  0.3200
 3973TIP3   OH233333   3.365   1.415   2.254 -0.5171  0.5493  0.1302
 3973TIP3    H133334   3.345   1.322   2.243  0.7115  0.2525  0.3217
 3973TIP3    H233335   3.359   1.430   2.348  0.9450  0.2613  0.2817
 3974TIP3   OH233336   0.850   1.506  15.349  0.3077  0.1345 -0.4115
 3974TIP3    H133337   0.802   1.511  15.266  1.3362  1.0386 -0.9851
 3974TIP3    H233338   0.824   1.585  15.396 -0.4455 -0.4880  0.2505
 3975TIP3   OH233339   3.924   1.582  12.846  0.0502  0.0386  0.0849
 3975TIP3    H133340   4.016   1.578  12.872 -0.5981 -1.7838  2.4952
 3975TIP3    H233341   3.876   1.570  12.928 -2.3602  1.2024 -1.0694
 3976TIP3   OH233342   0.762   2.118   1.907 -0.2646 -0.4629  0.2441
 3976TIP3    H133343   0.845   2.071   1.891  0.8692  0.9165  1.7070
 3976TIP3    H233344   0.734   2.086   1.993 -0.4488  0.1666  0.4219
 3977TIP3   OH233345   0.804   4.607  11.781  0.0771  0.6575 -0.3250
 3977TIP3    H133346   0.880   4.664  11.793  0.1772  0.4455  0.0478
 3977TIP3    H233347   0.743   4.659  11.729  1.0482  0.3288 -1.8541
 3978TIP3   OH233348   2.158   6.681   6.446  0.2552 -0.5945 -0.2548
 3978TIP3    H133349   2.198   6.764   6.472 -0.4696 -0.2783 -0.1162
 3978TIP3    H233350   2.177   6.621   6.518  0.5826 -0.4896 -0.2505
 3979TIP3   OH233351   2.763   5.344   0.051 -0.2824  0.0721  0.2011
 3979TIP3    H133352   2.787   5.397  -0.025  1.6868 -0.6616  0.2465
 3979TIP3    H233353   2.754   5.406   0.123  1.4384  0.4515  0.1306
 3980TIP3   OH233354   0.745   5.817  11.889 -0.2099  0.8630 -0.0131
 3980TIP3    H133355   0.721   5.754  11.821  1.2985  1.3492 -1.0694
 3980TIP3    H233356   0.666   5.869  11.903 -1.1926 -0.6262  0.1950
 3981TIP3   OH233357   4.482   1.861  13.148 -0.2950 -0.5022  0.6811
 3981TIP3    H133358   4.417   1.843  13.216 -1.1006 -3.6030 -0.7334
 3981TIP3    H233359   4.432   1.860  13.067  0.8845  1.6549 -0.1416
 3982TIP3   OH233360   2.393   6.698  15.450  0.0090  0.1207  0.5316
 3982TIP3    H133361   2.346   6.616  15.465 -0.2439  0.4945  2.0138
 3982TIP3    H233362   2.327   6.758  15.415 -0.0871  0.0236  0.5487
 3983TIP3   OH233363   3.896   4.874   2.582 -0.4101 -0.1182 -0.4893
 3983TIP3    H133364   3.803   4.893   2.598 -0.0429  4.0026 -1.9496
 3983TIP3    H233365   3.906   4.886   2.488  1.3411 -2.4072 -0.6746
 3984TIP3   OH233366   4.122   3.010  12.073  0.4667 -0.0374 -0.2134
 3984TIP3    H133367   4.114   2.972  11.986  0.2794 -0.6599  0.0657
 3984TIP3    H233368   4.126   2.934  12.132  0.0975  0.3757  0.3563
 3985TIP3   OH233369   0.280   1.557  15.888 -0.1465 -1.1402 -0.5909
 3985TIP3    H133370   0.231   1.634  15.917 -0.7558 -2.0496  0.9181
 3985TIP3    H233371   0.332   1.588  15.814 -0.5955  0.6448 -0.2055
 3986TIP3   OH233372   6.697   1.770   0.884  0.4084 -0.2786  0.0560
 3986TIP3    H133373   6.728   1.681   0.869 -0.3100 -0.3568 -1.1413
 3986TIP3    H233374   6.634   1.786   0.813  0.8021  1.3031  0.0039
 3987TIP3   OH233375   1.167   2.399   1.573  0.1042  0.1202  0.4601
 3987TIP3    H133376   1.176   2.304   1.579  1.4691  0.3279  2.8618
 3987TIP3    H233377   1.168   2.429   1.663 -0.7394  2.4139 -0.2209
 3988TIP3   OH233378   3.512   4.897  15.728 -0.2173 -0.9345  0.2241
 3988TIP3    H133379   3.482   4.869  15.815 -1.6957 -2.1084 -0.6139
 3988TIP3    H233380   3.432   4.915  15.679  0.6107  1.6019 -0.3678
 3989TIP3   OH233381   4.441   0.134  11.440  0.2352  0.6639 -0.6269
 3989TIP3    H133382   4.362   0.088  11.414 -0.1400  2.0319 -2.0490
 3989TIP3    H233383   4.506   0.065  11.455 -1.2069 -0.4908  0.6697
 3990TIP3   OH233384   6.504   6.691  16.374  0.2738 -0.5755  0.5683
 3990TIP3    H133385   6.594   6.696  16.343 -0.1997 -0.4444 -0.8563
 3990TIP3    H233386   6.475   6.603  16.351 -0.7237  0.1762 -1.3121
 3991TIP3   OH233387   2.734   1.187   0.058 -0.3159 -0.0672  0.3647
 3991TIP3    H133388   2.794   1.121   0.095 -1.5254 -0.7850  1.1128
 3991TIP3    H233389   2.647   1.158   0.085 -1.2691 -0.3697 -2.6452
 3992TIP3   OH233390   6.596   4.201  10.841 -0.5186 -0.1036  0.2520
 3992TIP3    H133391   6.682   4.177  10.876  0.2054  0.1985 -1.2123
 3992TIP3    H233392   6.549   4.118  10.835 -0.0924 -0.3653  0.4711
 3993TIP3   OH233393   2.759   4.876  17.400 -1.3356  0.4154  0.3597
 3993TIP3    H133394   2.711   4.948  17.442  0.8022  1.3560  1.3613
 3993TIP3    H233395   2.814   4.919  17.335 -1.7815 -0.6227 -0.7256
 3994TIP3   OH233396   1.383   5.611   4.940  0.3478 -0.1850 -0.1819
 3994TIP3    H133397   1.419   5.523   4.932 -0.5631 -0.6798  0.8778
 3994TIP3    H233398   1.457   5.666   4.965  1.0692 -0.4984 -1.5378
 3995TIP3   OH233399   2.832   3.189  16.818 -0.6485 -1.3787 -0.4596
 3995TIP3    H133400   2.778   3.132  16.873 -1.0971  0.2501  0.8547
 3995TIP3    H233401   2.908   3.210  16.871 -2.2451  2.2420  0.7443
 3996TIP3   OH233402   5.650   4.552   3.827  0.6297 -0.2943 -0.0793
 3996TIP3    H133403   5.704   4.499   3.769  1.4193  1.2729 -0.8359
 3996TIP3    H233404   5.566   4.560   3.782  0.1012 -1.7687  0.5618
 3997TIP3   OH233405   4.806   4.769   3.448  0.2078  0.0073  0.1871
 3997TIP3    H133406   4.795   4.839   3.383  1.2555 -1.6286 -1.8827
 3997TIP3    H233407   4.716   4.744   3.472 -0.1780  1.7251  0.6474
 3998TIP3   OH233408   5.099   3.371   4.833  0.3591  0.0940  0.4648
 3998TIP3    H133409   5.102   3.421   4.915  0.8489 -1.1576  1.2457
 3998TIP3    H233410   5.187   3.379   4.797 -0.3711  2.2988 -1.0255
 3999TIP3   OH233411   2.200   1.381  14.204 -0.3955 -0.2266 -0.2687
 3999TIP3    H133412   2.241   1.423  14.279  0.2407 -0.7742 -0.2980
 3999TIP3    H233413   2.192   1.450  14.138  0.1613 -0.0386 -0.1367
 4000TIP3   OH233414   4.243   4.286   3.395 -0.4128 -0.5352 -0.2953
 4000TIP3    H133415   4.266   4.351   3.462  1.0137  0.9771 -2.1284
 4000TIP3    H233416   4.324   4.271   3.347 -1.3437 -1.6933 -1.5971
 4001TIP3   OH233417   0.897   0.597  13.350 -0.2899  0.1195  0.1454
 4001TIP3    H133418   0.953   0.657  13.301 -0.6538  1.0829  0.8809
 4001TIP3    H233419   0.809   0.613  13.316 -0.4800  0.4709  0.7874
 4002TIP3   OH233420   4.299   4.681   0.557  0.1579 -0.2257  0.1691
 4002TIP3    H133421   4.293   4.657   0.464 -1.7900  0.9810 -0.0583
 4002TIP3    H233422   4.393   4.673   0.577  0.5505 -1.0279 -1.7410
 4003TIP3   OH233423   6.517   3.668   4.256 -0.0471  0.0632 -0.7090
 4003TIP3    H133424   6.466   3.750   4.258 -0.9022 -0.4317 -1.2696
 4003TIP3    H233425   6.562   3.671   4.171  1.0737  0.6103 -0.1120
 4004TIP3   OH233426   4.802   4.622  16.805 -0.3917  0.0573  0.4673
 4004TIP3    H133427   4.719   4.585  16.836 -0.0203  1.0845  2.8406
 4004TIP3    H233428   4.810   4.706  16.850  1.2056  0.7298 -0.9378
 4005TIP3   OH233429   1.739   4.871  11.473 -0.0495 -0.4977  0.1249
 4005TIP3    H133430   1.645   4.879  11.490 -0.2508  1.2661 -1.5146
 4005TIP3    H233431   1.745   4.845  11.381  1.0532  0.8470 -0.2171
 4006TIP3   OH233432   1.379   5.569  12.364  0.2226 -0.6269 -0.2727
 4006TIP3    H133433   1.471   5.562  12.391  0.8391 -0.4527 -2.1559
 4006TIP3    H233434   1.343   5.481  12.376  0.5732 -0.6551  0.6434
 4007TIP3   OH233435   6.577   4.534   4.515  0.0196 -0.0648 -0.3937
 4007TIP3    H133436   6.627   4.564   4.438  0.5714 -0.7358 -0.3015
 4007TIP3    H233437   6.489   4.570   4.501 -0.1984 -1.0914 -1.9097
 4008TIP3   OH233438   6.155   3.178  11.970 -0.2759  0.3263 -0.6345
 4008TIP3    H133439   6.162   3.187  11.875 -0.5038 -1.4660 -0.8572
 4008TIP3    H233440   6.062   3.189  11.988 -0.3484 -0.1375 -0.7228
 4009TIP3   OH233441   0.658   1.059   0.611 -0.1369 -0.9416 -0.3849
 4009TIP3    H133442   0.600   1.135   0.619 -0.9475 -1.6773  1.3217
 4009TIP3    H233443   0.744   1.097   0.590 -0.8643  0.2983 -1.2474
 4010TIP3   OH233444   4.572   3.226   5.678 -0.3123  0.2575  0.5390
 4010TIP3    H133445   4.656   3.206   5.635 -0.2330 -0.6321  1.0814
 4010TIP3    H233446   4.586   3.310   5.721 -0.0505  0.6399 -0.2857
 4011TIP3   OH233447   1.129   1.797  14.099 -0.5300 -0.3951  0.1110
 4011TIP3    H133448   1.167   1.859  14.162 -0.5756 -0.7290  0.4731
 4011TIP3    H233449   1.149   1.834  14.014 -0.8254  0.2799  0.3285
 4012TIP3   OH233450   4.761   5.865  16.639 -0.0916 -0.5245 -0.0436
 4012TIP3    H133451   4.736   5.808  16.711  0.6063  1.0581  1.5377
 4012TIP3    H233452   4.762   5.953  16.677  3.1618  0.0668 -1.1624
 4013TIP3   OH233453   2.346   3.046   3.995  0.0448  0.0724 -0.5339
 4013TIP3    H133454   2.252   3.062   3.987  0.0464  0.1339 -0.4251
 4013TIP3    H233455   2.373   3.020   3.907  0.0271  0.6086 -0.7050
 4014TIP3   OH233456   0.870   4.498  17.320  0.1609 -0.1173  0.0639
 4014TIP3    H133457   0.904   4.571  17.372  0.7707  0.1571 -0.7041
 4014TIP3    H233458   0.883   4.525  17.229 -1.8228 -0.1413 -0.2796
 4015TIP3   OH233459   4.561   3.080   0.697 -0.0130 -0.3431 -0.4730
 4015TIP3    H133460   4.526   3.019   0.632  0.4311 -1.2375  0.0961
 4015TIP3    H233461   4.512   3.060   0.777 -2.1220  2.2491 -1.0017
 4016TIP3   OH233462   0.634   3.144   2.121  0.3142  0.3285 -0.6912
 4016TIP3    H133463   0.687   3.222   2.139  0.0175  0.0636  1.6992
 4016TIP3    H233464   0.689   3.090   2.065  0.9403  1.7922 -1.5397
 4017TIP3   OH233465   3.573   1.378  10.967  0.0070 -0.4340  0.4684
 4017TIP3    H133466   3.585   1.297  11.016 -1.1817 -0.7208  0.3049
 4017TIP3    H233467   3.631   1.441  11.011 -0.4831 -0.8752  1.7992
 4018TIP3   OH233468   3.489   4.317   2.156 -0.1073  0.7045 -0.6142
 4018TIP3    H133469   3.522   4.227   2.158  0.5575  0.9485 -0.3480
 4018TIP3    H233470   3.508   4.347   2.067 -1.4589  0.1757 -1.0972
 4019TIP3   OH233471   2.628   6.634  11.621 -0.8430  0.5179 -0.0956
 4019TIP3    H133472   2.689   6.596  11.558 -0.7035 -0.1249  0.4194
 4019TIP3    H233473   2.672   6.713  11.653 -0.8053  0.7073 -0.5987
 4020TIP3   OH233474   3.717   1.949  17.393  0.4235  0.3969 -0.1807
 4020TIP3    H133475   3.648   1.886  17.374 -0.7656  1.8362 -0.8002
 4020TIP3    H233476   3.748   1.978  17.307  2.1464 -0.5469  0.0720
 4021TIP3   OH233477   1.565   3.172   3.870 -0.5569 -0.8953 -0.0945
 4021TIP3    H133478   1.608   3.089   3.848 -0.0181 -0.4168 -0.9462
 4021TIP3    H233479   1.607   3.236   3.812 -0.7339  0.0307  0.7773
 4022TIP3   OH233480   3.273   0.927  15.564 -0.2662 -0.1028 -0.4614
 4022TIP3    H133481   3.299   0.835  15.559 -0.4374 -0.3126  1.5051
 4022TIP3    H233482   3.279   0.960  15.474 -0.9285 -2.2172 -1.3268
 4023TIP3   OH233483   1.096   2.311  16.339  0.4145 -0.4334  0.1582
 4023TIP3    H133484   1.055   2.381  16.287 -0.1252 -0.6592  0.2711
 4023TIP3    H233485   1.046   2.232  16.316  1.4687 -0.9358 -0.5151
 4024TIP3   OH233486   1.422   0.541  11.178 -0.2076  0.3497 -0.4322
 4024TIP3    H133487   1.341   0.585  11.205 -1.1107 -1.5775  0.1899
 4024TIP3    H233488   1.487   0.611  11.174 -1.4556  1.6676  0.9332
 4025TIP3   OH233489   4.128   4.586   4.549 -0.1662  0.3146 -0.3320
 4025TIP3    H133490   4.136   4.498   4.513  0.8776  0.1226  0.3135
 4025TIP3    H233491   4.137   4.644   4.473  0.9326 -0.1069 -0.5382
 4026TIP3   OH233492   5.957   4.203  14.716  0.1960  0.4672 -0.4222
 4026TIP3    H133493   5.973   4.242  14.802 -0.3671 -0.0136 -0.0875
 4026TIP3    H233494   6.001   4.118  14.720  0.2377  0.4755 -0.6480
 4027TIP3   OH233495   4.671   5.527  13.110  0.0385  0.6586 -0.4954
 4027TIP3    H133496   4.646   5.451  13.164 -1.2520  1.2837 -0.1608
 4027TIP3    H233497   4.733   5.492  13.047  0.2691 -0.4589  0.3200
 4028TIP3   OH233498   3.834   5.420   4.782 -0.2659 -0.2014  0.2895
 4028TIP3    H133499   3.926   5.394   4.792 -0.0658 -0.1324 -1.1171
 4028TIP3    H233500   3.823   5.432   4.688 -2.2980 -2.3599  0.1583
 4029TIP3   OH233501   0.620   4.789  12.079  0.0049  0.1814 -0.1778
 4029TIP3    H133502   0.633   4.875  12.041  1.0138 -0.5565 -1.6131
 4029TIP3    H233503   0.700   4.772  12.129  0.4951 -0.5280 -1.1765
 4030TIP3   OH233504   3.196   1.042  15.811  0.1145  0.3781  0.6000
 4030TIP3    H133505   3.213   0.985  15.736 -1.3643  0.1287  0.4205
 4030TIP3    H233506   3.273   1.098  15.817  1.0413 -0.7843 -0.0045
 4031TIP3   OH233507   5.823   6.402  15.234 -0.5976 -0.0338  0.0314
 4031TIP3    H133508   5.837   6.465  15.163  1.4863  1.4983  1.6695
 4031TIP3    H233509   5.736   6.424  15.269 -1.0013  0.1704 -1.0506
 4032TIP3   OH233510   4.550   2.150   4.791  0.1262 -0.3743  0.2489
 4032TIP3    H133511   4.507   2.140   4.876  1.5909 -1.0879  0.9419
 4032TIP3    H233512   4.619   2.215   4.807  0.2118 -0.2846 -0.4684
 4033TIP3   OH233513   2.788   3.431  17.466  0.0047 -0.4130  0.3397
 4033TIP3    H133514   2.799   3.354  17.410 -0.3524  0.1689 -0.5702
 4033TIP3    H233515   2.743   3.495  17.410  1.7793  1.0678  0.4802
 4034TIP3   OH233516   4.195   4.297  13.233  0.0997 -0.1524  0.3333
 4034TIP3    H133517   4.225   4.336  13.315 -0.0757  0.0658  0.2945
 4034TIP3    H233518   4.110   4.258  13.254 -1.0815  1.9407 -0.2792
 4035TIP3   OH233519   0.374   0.763   2.288  0.6696  0.3112 -0.6107
 4035TIP3    H133520   0.394   0.786   2.378 -0.7736  1.1871 -0.4818
 4035TIP3    H233521   0.357   0.669   2.289 -2.6313  0.8156  0.7289
 4036TIP3   OH233522   0.505   4.717   4.354  0.0386 -0.6018 -0.4051
 4036TIP3    H133523   0.475   4.648   4.295  1.9915 -0.9230 -1.1261
 4036TIP3    H233524   0.493   4.682   4.442 -0.3239 -1.2715 -0.7197
 4037TIP3   OH233525   0.279   2.229   2.103 -0.4004  0.2855  0.2665
 4037TIP3    H133526   0.308   2.220   2.012  1.6091  0.2529  0.8742
 4037TIP3    H233527   0.216   2.157   2.114  1.1282 -1.2301 -0.4407
 4038TIP3   OH233528   3.594   0.831   2.737  0.6792 -0.4423 -0.0885
 4038TIP3    H133529   3.549   0.773   2.675  0.3698  0.3042 -0.5764
 4038TIP3    H233530   3.527   0.895   2.763  0.4408 -1.4328  1.9640
 4039TIP3   OH233531   4.856   4.193   3.474 -0.4021  0.0717  0.8913
 4039TIP3    H133532   4.917   4.203   3.547  0.3812  1.3351  0.1020
 4039TIP3    H233533   4.827   4.282   3.454 -0.8833 -0.2851 -0.1073
 4040TIP3   OH233534   3.907   5.165   5.148 -0.3839  0.0529  0.4692
 4040TIP3    H133535   3.915   5.259   5.128  0.4495 -0.0626  0.2239
 4040TIP3    H233536   3.868   5.163   5.235  0.3660  0.6523  0.8331
 4041TIP3   OH233537   1.688   4.329   5.182  0.3391 -0.3689 -0.2301
 4041TIP3    H133538   1.720   4.253   5.230  0.6545  0.1722  0.4347
 4041TIP3    H233539   1.759   4.351   5.121  0.0200 -0.9337 -0.8202
 4042TIP3   OH233540   5.927   4.991  12.206 -0.0952 -0.2280 -0.5803
 4042TIP3    H133541   5.926   4.896  12.199  0.2259 -0.2702 -0.1452
 4042TIP3    H233542   5.995   5.020  12.145  0.7515 -0.3855  0.2491
 4043TIP3   OH233543   0.646   0.309   2.560  0.0272 -0.0152  0.3398
 4043TIP3    H133544   0.610   0.396   2.544  0.6690  0.3023  0.5981
 4043TIP3    H233545   0.713   0.299   2.492  0.2048 -0.1548  0.5342
 4044TIP3   OH233546   0.210   4.578  16.393 -0.4829  0.1117  0.5063
 4044TIP3    H133547   0.280   4.600  16.331 -0.7855 -2.1464 -0.7641
 4044TIP3    H233548   0.239   4.496  16.433 -0.8702  0.9039  2.5193
 4045TIP3   OH233549   2.411   4.768   0.318  0.0421 -0.0332 -0.2489
 4045TIP3    H133550   2.498   4.774   0.358 -0.0725  0.6250 -0.0968
 4045TIP3    H233551   2.409   4.839   0.254 -1.0816  1.2169  1.1052
 4046TIP3   OH233552   2.844   1.868   4.653  1.2644  0.3012  0.4084
 4046TIP3    H133553   2.855   1.950   4.701 -0.5549  0.4248  0.6609
 4046TIP3    H233554   2.789   1.890   4.578 -0.0767 -0.8419  1.0115
 4047TIP3   OH233555   5.062   4.169   4.416 -0.5019  0.4768  0.6042
 4047TIP3    H133556   5.031   4.139   4.330  1.0450  0.3040  0.0767
 4047TIP3    H233557   5.114   4.247   4.396  2.0221 -0.9945  1.0479
 4048TIP3   OH233558   3.621   2.374   5.652 -0.4406  0.7073  0.3761
 4048TIP3    H133559   3.651   2.464   5.669 -0.8516  1.0016 -0.3806
 4048TIP3    H233560   3.701   2.322   5.652  0.3256  1.6300 -2.6397
 4049TIP3   OH233561   4.413   0.695   6.098  0.5498  0.2450  0.5559
 4049TIP3    H133562   4.344   0.759   6.117 -1.0281 -0.9238 -0.8280
 4049TIP3    H233563   4.495   0.743   6.107 -0.2904  1.2923  3.9244
 4050TIP3   OH233564   0.169   3.664   1.405  0.1833  0.0670  0.3627
 4050TIP3    H133565   0.193   3.717   1.329 -3.3701  0.9837 -0.3254
 4050TIP3    H233566   0.186   3.721   1.480  1.1697  0.1932  0.0577
 4051TIP3   OH233567   4.359   1.461  15.000 -0.4199 -0.5402  0.3902
 4051TIP3    H133568   4.292   1.518  14.961 -0.4435 -0.9810 -0.2243
 4051TIP3    H233569   4.367   1.492  15.090  0.9592  1.7590 -0.4252
 4052TIP3   OH233570   6.261   6.432   2.810 -0.2009 -0.3686  0.1960
 4052TIP3    H133571   6.224   6.513   2.843  0.4393  0.0850 -0.1876
 4052TIP3    H233572   6.313   6.398   2.883 -0.9818 -0.7709  0.5766
 4053TIP3   OH233573   6.187   5.546   0.034 -0.0710 -0.2394 -0.0250
 4053TIP3    H133574   6.202   5.498   0.116 -1.1020  0.8485  0.8452
 4053TIP3    H233575   6.093   5.538   0.019  0.1956 -0.9284 -1.4527
 4054TIP3   OH233576   1.175   3.337  14.482  0.0206 -0.2814 -0.5965
 4054TIP3    H133577   1.096   3.357  14.533  0.8676 -0.5371  0.8794
 4054TIP3    H233578   1.142   3.295  14.403 -1.2467 -2.5903  1.0329
 4055TIP3   OH233579   4.468   1.958   0.398 -0.7620 -0.4225 -0.2800
 4055TIP3    H133580   4.435   1.909   0.473  2.1319 -0.4125  1.1710
 4055TIP3    H233581   4.505   2.037   0.436  0.2742 -0.1465 -1.7715
 4056TIP3   OH233582   5.637   3.039  15.906 -0.3057  0.3530  0.3187
 4056TIP3    H133583   5.697   2.989  15.960 -0.3493 -0.3968 -0.3185
 4056TIP3    H233584   5.683   3.121  15.887  0.7302 -0.4216 -0.5871
 4057TIP3   OH233585   5.747   5.396  16.110  0.8296  1.0923 -0.4485
 4057TIP3    H133586   5.832   5.401  16.154  0.8354  0.4586 -0.3813
 4057TIP3    H233587   5.751   5.316  16.059 -0.1613  0.4142  0.4819
 4058TIP3   OH233588   6.505   2.454  16.423 -0.1778 -0.7321 -0.4131
 4058TIP3    H133589   6.475   2.369  16.455 -1.3231 -0.1529  0.1277
 4058TIP3    H233590   6.590   2.466  16.463  0.0594 -1.6723 -0.5984
 4059TIP3   OH233591   3.792   2.676  14.093  0.3288  0.4384 -0.0598
 4059TIP3    H133592   3.757   2.594  14.058  0.1640  0.8891 -0.9894
 4059TIP3    H233593   3.842   2.714  14.020  0.3029  1.2166  0.3162
 4060TIP3   OH233594   3.797   5.023  12.808 -0.1361  0.0897 -0.9802
 4060TIP3    H133595   3.825   5.000  12.720  2.6761  0.9535 -0.4261
 4060TIP3    H233596   3.842   5.106  12.826 -1.5174  0.5010  0.8880
 4061TIP3   OH233597   2.920   3.848  14.192  0.3013 -0.1626  0.4345
 4061TIP3    H133598   2.896   3.915  14.256  1.5732  1.7828 -1.0060
 4061TIP3    H233599   2.997   3.805  14.229  0.3731  0.1929  0.6982
 4062TIP3   OH233600   2.662   5.326   2.120 -0.0343 -0.3050 -0.3647
 4062TIP3    H133601   2.664   5.239   2.159  0.2283 -0.0329  0.2325
 4062TIP3    H233602   2.749   5.362   2.137 -1.2652  1.5649  2.8057
 4063TIP3   OH233603   3.359   3.840   1.986  0.1111  0.1301  0.3204
 4063TIP3    H133604   3.422   3.838   1.914 -1.3917 -0.1753 -1.0292
 4063TIP3    H233605   3.325   3.750   1.990  1.1197 -0.2164  2.3153
 4064TIP3   OH233606   6.206   1.641  16.801 -0.3143 -0.1493 -0.7564
 4064TIP3    H133607   6.272   1.613  16.738  0.5751  0.1076  0.0525
 4064TIP3    H233608   6.152   1.563  16.815  1.7068 -1.3385  0.9358
 4065TIP3   OH233609   5.385   0.881  11.905 -0.1075 -0.0855  0.8368
 4065TIP3    H133610   5.411   0.952  11.846  1.7138 -1.4453 -0.0896
 4065TIP3    H233611   5.328   0.826  11.852  2.4053 -1.9099 -0.1640
 4066TIP3   OH233612   2.137   3.125   4.645  0.7033  0.0867  0.2993
 4066TIP3    H133613   2.143   3.030   4.644 -2.4730 -0.2331  1.5718
 4066TIP3    H233614   2.110   3.147   4.734  2.0513  2.2869  0.2514
 4067TIP3   OH233615   2.862   2.152  14.046  0.2322  0.5083 -0.1916
 4067TIP3    H133616   2.916   2.095  14.100  0.9082  1.7459  0.4624
 4067TIP3    H233617   2.806   2.199  14.107 -0.7164  0.1551 -0.7667
 4068TIP3   OH233618   1.468   1.365   4.222  0.0562 -0.1831  0.2704
 4068TIP3    H133619   1.406   1.432   4.192  0.6140  0.1657 -0.1445
 4068TIP3    H233620   1.479   1.383   4.315  0.8935  0.9180 -0.0065
 4069TIP3   OH233621   2.248   1.044  12.949 -0.1766  0.0921 -0.3923
 4069TIP3    H133622   2.242   1.133  12.984 -1.0157 -0.5237  1.1578
 4069TIP3    H233623   2.157   1.015  12.944  0.1708 -1.3302  0.9732
 4070TIP3   OH233624   2.041   6.209   2.847 -0.0044  0.0796  0.0262
 4070TIP3    H133625   2.096   6.261   2.789 -0.2472  0.3430  0.0354
 4070TIP3    H233626   2.094   6.198   2.927  0.4871 -0.6062 -0.3791
 4071TIP3   OH233627   2.432   0.184  14.789 -0.3451  0.1615 -0.1018
 4071TIP3    H133628   2.410   0.198  14.881  3.1639  1.0781  0.7463
 4071TIP3    H233629   2.482   0.102  14.788  0.2526  0.5155 -1.0578
 4072TIP3   OH233630   3.534   2.609   5.073 -0.0026  0.3563 -0.3290
 4072TIP3    H133631   3.592   2.595   5.148 -1.1870  1.1782  0.7738
 4072TIP3    H233632   3.581   2.670   5.017  0.0347  1.3510  0.7603
 4073TIP3   OH233633   2.586   2.654   4.814 -0.2186  0.5489  0.3840
 4073TIP3    H133634   2.600   2.724   4.878  0.9491  1.6200 -0.9642
 4073TIP3    H233635   2.561   2.700   4.733 -1.3764 -0.7440 -0.0171
 4074TIP3   OH233636   1.769   6.730  15.267 -0.6720 -0.1101  0.2453
 4074TIP3    H133637   1.757   6.646  15.223  0.3016 -0.8285  1.2629
 4074TIP3    H233638   1.698   6.785  15.236 -1.4854 -1.4047 -0.2490
 4075TIP3   OH233639   2.003   6.077   4.397  0.4534 -0.6070  0.0604
 4075TIP3    H133640   1.968   6.147   4.343  0.1628 -1.9045 -1.5129
 4075TIP3    H233641   1.958   6.086   4.481  0.2611  0.9227 -0.1888
 4076TIP3   OH233642   2.473   1.339  13.950 -0.3862  0.1214 -0.3584
 4076TIP3    H133643   2.528   1.285  13.893 -1.4057  1.1295 -2.3774
 4076TIP3    H233644   2.392   1.289  13.960 -0.1949 -0.0762  0.3168
 4077TIP3   OH233645   0.756   0.064   1.419  0.3546  0.4745  0.2515
 4077TIP3    H133646   0.820   0.012   1.468  0.0980  0.2740  0.3791
 4077TIP3    H233647   0.735   0.009   1.343  0.0913  0.3924  0.3806
 4078TIP3   OH233648   6.079   3.815   2.742 -0.4481  0.1985 -0.1602
 4078TIP3    H133649   6.086   3.908   2.720 -2.5877  0.1315 -1.5046
 4078TIP3    H233650   6.080   3.813   2.837  0.6514  1.4704 -0.1076
 4079TIP3   OH233651   0.538   4.626   3.109 -0.2899  0.2543 -0.3477
 4079TIP3    H133652   0.626   4.614   3.145  0.7463  0.0531 -2.7899
 4079TIP3    H233653   0.515   4.716   3.133  0.4313  0.2174  0.5691
 4080TIP3   OH233654   4.257   5.917  14.905  0.4570 -0.5722 -0.5109
 4080TIP3    H133655   4.318   5.956  14.844 -0.5930  0.5792 -0.8721
 4080TIP3    H233656   4.278   5.958  14.989 -0.5348  0.7416 -0.8577
 4081TIP3   OH233657   5.849   0.308  15.324  0.4404 -0.5480 -0.1116
 4081TIP3    H133658   5.775   0.342  15.274  0.4031  0.8395  0.8191
 4081TIP3    H233659   5.926   0.347  15.283  0.4204  0.4538  0.7512
 4082TIP3   OH233660   5.610   1.167   2.752 -0.1535  0.3628  0.3250
 4082TIP3    H133661   5.545   1.172   2.681 -0.0688 -2.0289 -0.0245
 4082TIP3    H233662   5.582   1.234   2.814 -3.0004 -0.5105  0.1664
 4083TIP3   OH233663   3.101   2.825   1.556 -0.5886 -0.0039  0.0548
 4083TIP3    H133664   3.139   2.755   1.609  1.7140  0.1425 -1.3052
 4083TIP3    H233665   3.077   2.783   1.474  0.8563  0.7370 -0.7894
 4084TIP3   OH233666   3.593   5.909  13.899  0.0959 -0.7746 -0.6035
 4084TIP3    H133667   3.534   5.856  13.845 -0.0952 -0.3302 -0.8390
 4084TIP3    H233668   3.646   5.846  13.946 -0.3306 -1.1802 -0.6611
 4085TIP3   OH233669   4.757   1.288   7.125 -0.1677 -0.3399  0.1836
 4085TIP3    H133670   4.790   1.268   7.038 -0.6857 -1.5949  0.2692
 4085TIP3    H233671   4.836   1.298   7.179  0.1565  0.5855 -0.4337
 4086TIP3   OH233672   3.806   0.310   0.162 -0.1179 -0.5225 -0.0344
 4086TIP3    H133673   3.864   0.238   0.186  0.4868  0.4073  1.4456
 4086TIP3    H233674   3.841   0.386   0.209 -2.4694  0.1012  0.8698
 4087TIP3   OH233675   0.454   4.628  16.648 -0.9616 -0.0010 -0.8434
 4087TIP3    H133676   0.522   4.622  16.582 -1.0843  0.3863 -1.0083
 4087TIP3    H233677   0.442   4.538  16.679 -1.5605 -0.3366 -1.9988
 4088TIP3   OH233678   6.079   2.098  15.025  0.1999  0.5079  0.1791
 4088TIP3    H133679   6.078   2.164  15.094 -0.6451  1.1869 -0.4613
 4088TIP3    H233680   6.165   2.107  14.984  0.2719  0.8878  0.4108
 4089TIP3   OH233681   6.591   6.053   4.760  0.0779  0.0802 -0.0122
 4089TIP3    H133682   6.572   6.146   4.773 -0.2710 -0.1687  1.4343
 4089TIP3    H233683   6.513   6.019   4.717  0.5968  0.6259 -1.4240
 4090TIP3   OH233684   2.428   3.495   5.183  0.1797 -0.3365 -0.5164
 4090TIP3    H133685   2.501   3.438   5.210  0.6159 -0.9337 -2.8032
 4090TIP3    H233686   2.442   3.575   5.233  0.6241 -1.5155  1.3883
 4091TIP3   OH233687   3.353   3.214  11.785 -0.1292 -0.3722  0.4068
 4091TIP3    H133688   3.365   3.139  11.843 -0.3234 -1.3589 -0.7811
 4091TIP3    H233689   3.298   3.180  11.714  1.4359  0.3268 -1.1983
 4092TIP3   OH233690   4.082   2.610   2.696  0.4177 -0.1869 -0.0156
 4092TIP3    H133691   4.034   2.528   2.680  2.1602 -1.3459  0.3901
 4092TIP3    H233692   4.078   2.657   2.613  1.0550 -1.6054 -0.8828
 4093TIP3   OH233693   2.091   1.168   1.351 -0.0188  0.4742  0.1232
 4093TIP3    H133694   2.020   1.179   1.414 -0.4248 -0.2538 -0.1925
 4093TIP3    H233695   2.050   1.183   1.266  0.7370  2.4476  0.0472
 4094TIP3   OH233696   2.029   2.652  14.061  0.2933  0.1410 -0.0146
 4094TIP3    H133697   2.069   2.578  14.014  1.1350 -0.8947  2.1487
 4094TIP3    H233698   1.981   2.701  13.994  0.5617 -1.7928 -1.7217
 4095TIP3   OH233699   4.980   3.293  17.299 -0.0655 -0.2536  0.1643
 4095TIP3    H133700   4.884   3.298  17.300 -0.1151  0.8958  3.5788
 4095TIP3    H233701   5.009   3.381  17.325  1.7312 -1.3362  2.1613
 4096TIP3   OH233702   3.238   5.396   5.030  0.4042  0.1132 -0.4968
 4096TIP3    H133703   3.272   5.339   4.961  1.0763  1.0149 -0.9297
 4096TIP3    H233704   3.256   5.485   4.999  3.1553  0.5947  1.9768
 4097TIP3   OH233705   6.092   1.812  16.526 -0.2265 -0.2838 -0.1990
 4097TIP3    H133706   6.186   1.813  16.543  0.5189 -1.4994 -3.5090
 4097TIP3    H233707   6.067   1.720  16.536 -1.4710  0.2208  2.0565
 4098TIP3   OH233708   0.131   6.219   6.679 -0.6595 -0.1781  0.3363
 4098TIP3    H133709   0.089   6.150   6.627 -1.7875  0.7005  0.0487
 4098TIP3    H233710   0.081   6.298   6.659  2.9019  1.6446 -2.3288
 4099TIP3   OH233711   0.438   5.245  14.037  0.3659 -0.3608 -0.3886
 4099TIP3    H133712   0.412   5.298  13.962  1.3356 -0.6621 -0.9669
 4099TIP3    H233713   0.372   5.175  14.041 -0.0187 -0.0130 -0.5988
 4100TIP3   OH233714   4.639   6.693  13.095  0.1859 -0.4146  0.3765
 4100TIP3    H133715   4.679   6.735  13.019 -0.7614  0.8358  0.5378
 4100TIP3    H233716   4.551   6.730  13.101 -0.4897 -1.9725  0.9211
 4101TIP3   OH233717   0.840   4.833   2.887 -0.8275 -0.0322  0.0499
 4101TIP3    H133718   0.915   4.880   2.852 -1.3601  0.2632 -0.7417
 4101TIP3    H233719   0.767   4.895   2.878 -1.4462 -0.8331 -0.5709
 4102TIP3   OH233720   5.348   4.096  13.948 -0.3455  0.3377 -0.5178
 4102TIP3    H133721   5.414   4.026  13.949  0.0023  0.6161  1.4484
 4102TIP3    H233722   5.273   4.059  13.994 -0.5651  0.9034 -0.4120
 4103TIP3   OH233723   6.046   2.229   6.924  0.4994  1.0849  0.2124
 4103TIP3    H133724   6.007   2.161   6.868  0.4645  0.8334  0.5422
 4103TIP3    H233725   6.050   2.306   6.867 -0.8446  1.2318  0.2757
 4104TIP3   OH233726   4.756   1.867   3.831 -0.5986  0.4553  0.0542
 4104TIP3    H133727   4.839   1.826   3.807 -0.6556 -0.1071  0.7679
 4104TIP3    H233728   4.725   1.907   3.750 -1.3205 -2.2459 -1.1230
 4105TIP3   OH233729   1.470   5.138   4.505  0.3266  0.2571  0.3142
 4105TIP3    H133730   1.490   5.229   4.483  2.2477 -0.1032  0.4379
 4105TIP3    H233731   1.392   5.144   4.560 -0.2854  1.7209 -0.6306
 4106TIP3   OH233732   2.278   0.115  13.973  0.1227 -0.1040  0.6107
 4106TIP3    H133733   2.279   0.098  14.067 -1.3678 -0.4669  0.5929
 4106TIP3    H233734   2.365   0.090  13.943  0.4248 -0.5560  1.7976
 4107TIP3   OH233735   1.162   1.845  16.925 -0.0121  0.4886 -0.1727
 4107TIP3    H133736   1.070   1.818  16.932  0.1768 -0.0687  0.2925
 4107TIP3    H233737   1.195   1.839  17.014  0.8546 -0.7491 -0.5406
 4108TIP3   OH233738   2.275   3.640  16.796 -0.0924 -0.3439 -0.6050
 4108TIP3    H133739   2.264   3.574  16.864 -0.0894  0.1314 -0.1362
 4108TIP3    H233740   2.325   3.596  16.727  2.1005 -0.1357  0.7391
 4109TIP3   OH233741   4.496   4.082   4.236  0.1734 -0.4193 -0.4815
 4109TIP3    H133742   4.409   4.121   4.230  0.5651  0.3170 -2.2871
 4109TIP3    H233743   4.555   4.157   4.243  0.6811 -0.9128  0.8163
 4110TIP3   OH233744   1.374   6.248   4.038 -0.3871 -1.0366 -0.3048
 4110TIP3    H133745   1.285   6.263   4.068 -0.1394  0.1711 -0.1245
 4110TIP3    H233746   1.366   6.181   3.970 -1.6173  0.0202 -1.2539
 4111TIP3   OH233747   3.358   3.109   3.733 -0.0157  0.2747 -0.5881
 4111TIP3    H133748   3.277   3.067   3.762  1.0734 -0.8473  0.9536
 4111TIP3    H233749   3.361   3.191   3.782  0.1738 -0.0731 -0.0054
 4112TIP3   OH233750   3.389   4.915  11.954 -0.2603  0.0498  0.3212
 4112TIP3    H133751   3.306   4.955  11.979 -0.9474 -0.6351 -0.7831
 4112TIP3    H233752   3.402   4.844  12.017 -1.7222 -1.3447 -0.8729
 4113TIP3   OH233753   0.795   3.180  16.823 -0.1704 -0.5100 -0.1183
 4113TIP3    H133754   0.795   3.160  16.730 -0.1456 -1.5787  0.1019
 4113TIP3    H233755   0.887   3.173  16.849  0.4291  3.1902 -0.6783
 4114TIP3   OH233756   0.906   2.058  14.721 -0.1176  0.3854 -0.7887
 4114TIP3    H133757   0.927   2.070  14.813  0.3158  1.2375 -0.9854
 4114TIP3    H233758   0.886   1.965  14.713  1.7456 -0.1189 -0.1996
 4115TIP3   OH233759   3.622   0.979  14.888  0.4666  0.0134  0.1906
 4115TIP3    H133760   3.590   0.899  14.848 -2.5886  0.9832  0.4097
 4115TIP3    H233761   3.699   1.002  14.837  1.1630 -2.7788 -0.1566
 4116TIP3   OH233762   6.568   5.268  13.968 -0.2927 -0.0502 -0.0032
 4116TIP3    H133763   6.659   5.239  13.975 -0.0689  0.5277 -0.4958
 4116TIP3    H233764   6.535   5.264  14.058 -0.5755 -2.7729 -0.1370
 4117TIP3   OH233765   0.128   5.807  11.098 -0.0810  0.3627 -0.3867
 4117TIP3    H133766   0.214   5.813  11.056 -0.7466 -0.2366 -1.9230
 4117TIP3    H233767   0.080   5.883  11.066 -0.4077  0.2253 -0.2311
 4118TIP3   OH233768   2.980   5.871   6.617  0.1328 -0.0730  0.0614
 4118TIP3    H133769   3.039   5.929   6.666  0.3700  1.8091 -2.2926
 4118TIP3    H233770   2.896   5.878   6.663  0.5650  0.8897  0.7459
 4119TIP3   OH233771   4.460   0.558   6.639  0.0811 -0.3630  0.1854
 4119TIP3    H133772   4.457   0.524   6.550 -1.7346 -0.7351  0.3493
 4119TIP3    H233773   4.554   0.563   6.660  0.5048 -1.4547 -1.2813
 4120TIP3   OH233774   2.747   0.697  13.641  0.6308 -0.2135 -0.1369
 4120TIP3    H133775   2.787   0.744  13.714 -0.8914  0.4208  0.3176
 4120TIP3    H233776   2.695   0.628  13.682  2.1417 -1.8071 -0.7635
 4121TIP3   OH233777   6.076   4.511  10.534  0.2961 -0.0173 -0.2431
 4121TIP3    H133778   6.158   4.462  10.521  1.5564  1.8252  0.2772
 4121TIP3    H233779   6.060   4.552  10.449  0.3793  0.2619 -0.1261
 4122TIP3   OH233780   3.188   5.056   2.649  0.4409  0.4703  0.0793
 4122TIP3    H133781   3.150   5.132   2.605 -1.3967  0.6358  1.8205
 4122TIP3    H233782   3.177   4.984   2.587 -0.3833  1.0523 -0.4638
 4123TIP3   OH233783   0.243   6.523  11.647 -0.1942 -0.3028 -0.1037
 4123TIP3    H133784   0.206   6.436  11.656 -2.3176  0.5567  0.1004
 4123TIP3    H233785   0.304   6.516  11.574  0.4984 -2.1749  0.6051
 4124TIP3   OH233786   1.186   0.237   4.910  0.2811  0.6377  0.1843
 4124TIP3    H133787   1.164   0.193   4.828 -0.4135  1.2367  0.0368
 4124TIP3    H233788   1.251   0.180   4.951  1.3059  0.7785 -1.1872
 4125TIP3   OH233789   2.336   1.673   5.734 -0.0342  0.0286  0.1765
 4125TIP3    H133790   2.400   1.621   5.686 -0.8815 -0.8588 -0.0382
 4125TIP3    H233791   2.388   1.730   5.790  0.9994  1.5285 -2.1781
 4126TIP3   OH233792   3.939   5.461  11.777  0.1018 -0.0039  0.1028
 4126TIP3    H133793   3.849   5.485  11.799 -0.0040  0.4744 -0.8287
 4126TIP3    H233794   3.937   5.366  11.770 -0.9184  0.1452 -2.3261
 4127TIP3   OH233795   2.232   0.492  13.961  0.2000 -0.1015 -0.1870
 4127TIP3    H133796   2.286   0.525  13.890 -0.7890  1.9552 -0.0362
 4127TIP3    H233797   2.294   0.470  14.030  0.9384  0.9666 -0.4981
 4128TIP3   OH233798   5.059   5.770   6.267  0.4638 -0.0887  0.5410
 4128TIP3    H133799   5.059   5.675   6.254  3.0161 -0.2279  0.9773
 4128TIP3    H233800   5.002   5.784   6.342  0.0600 -1.2856  0.4750
 4129TIP3   OH233801   5.073   5.680  12.620  0.0806  0.0771 -0.7502
 4129TIP3    H133802   5.133   5.614  12.585 -0.8470 -0.5868 -1.1090
 4129TIP3    H233803   5.020   5.706  12.544 -0.4425  0.2690 -0.3210
 4130TIP3   OH233804   2.916   4.795   2.727  0.2777 -0.3312  0.1241
 4130TIP3    H133805   2.825   4.826   2.731  0.3743  0.1919 -1.2444
 4130TIP3    H233806   2.963   4.849   2.790  0.0728  1.0550 -0.8606
 4131TIP3   OH233807   4.495   0.389  14.675 -0.0487  0.0287  0.1458
 4131TIP3    H133808   4.468   0.357  14.761  0.3965 -0.1120  0.2327
 4131TIP3    H233809   4.496   0.484  14.684  0.0134  0.0131  0.3008
 4132TIP3   OH233810   3.702   0.356   3.163 -0.2931 -0.2318 -0.8399
 4132TIP3    H133811   3.764   0.429   3.169 -0.8678  0.1863  0.7503
 4132TIP3    H233812   3.757   0.280   3.146  0.9307 -0.1171  1.9456
 4133TIP3   OH233813   2.068   1.620   4.730 -0.1583 -0.4139 -0.2302
 4133TIP3    H133814   2.054   1.558   4.659  2.9091  1.2752 -2.5685
 4133TIP3    H233815   2.119   1.571   4.795 -1.2646 -1.3998 -0.0614
 4134TIP3   OH233816   3.039   0.698  12.001  0.3146  0.0755 -0.1895
 4134TIP3    H133817   2.986   0.777  11.990  0.5118 -0.0532 -2.5089
 4134TIP3    H233818   3.084   0.687  11.917  2.0302 -1.2690  0.8202
 4135TIP3   OH233819   1.944   4.632  13.224  0.4757  0.3475 -0.4473
 4135TIP3    H133820   1.989   4.601  13.145 -1.3941 -0.4723 -1.2404
 4135TIP3    H233821   1.926   4.553  13.274  2.1332  0.9109  1.1417
 4136TIP3   OH233822   0.123   0.607   4.621  0.6475 -0.4250 -0.0455
 4136TIP3    H133823   0.156   0.604   4.531 -0.3095 -1.5980 -0.3871
 4136TIP3    H233824   0.180   0.546   4.668  0.5633 -0.5322 -0.0798
 4137TIP3   OH233825   4.841   4.528  11.165  0.1036 -0.1624 -0.2269
 4137TIP3    H133826   4.833   4.598  11.229 -1.5046 -0.8947  0.4186
 4137TIP3    H233827   4.892   4.567  11.093 -0.7810  1.6803  0.0910
 4138TIP3   OH233828   5.739   0.805  12.301 -0.3538  0.5160 -0.7291
 4138TIP3    H133829   5.800   0.761  12.241  1.0062 -1.4368  1.8645
 4138TIP3    H233830   5.748   0.898  12.280  2.6723  0.2083 -1.2910
 4139TIP3   OH233831   4.813   6.366   3.151  0.3249  0.3389  0.0373
 4139TIP3    H133832   4.831   6.380   3.244  1.5994 -0.5181 -0.0539
 4139TIP3    H233833   4.738   6.423   3.133  0.9870  1.6711  1.2273
 4140TIP3   OH233834   4.639   1.221  16.172  0.3814 -0.3795  0.0390
 4140TIP3    H133835   4.571   1.170  16.217 -0.5362  0.0924 -0.7618
 4140TIP3    H233836   4.605   1.311  16.172  1.6169  0.1142  0.7493
 4141TIP3   OH233837   6.651   6.239   2.468 -0.0307 -0.3114 -0.7960
 4141TIP3    H133838   6.649   6.273   2.378  0.4454 -1.7312 -1.3680
 4141TIP3    H233839   6.744   6.236   2.490 -0.0595 -1.3553 -0.8090
 4142TIP3   OH233840   2.676   5.105  13.985  0.1217 -0.0957 -0.0597
 4142TIP3    H133841   2.608   5.058  14.033 -1.2772  1.8738  0.0398
 4142TIP3    H233842   2.754   5.051  13.993 -1.4513 -2.5625 -0.3225
 4143TIP3   OH233843   1.203   2.563  15.893  0.0777 -1.1623  0.5523
 4143TIP3    H133844   1.294   2.565  15.864 -0.2128  1.9617 -0.4841
 4143TIP3    H233845   1.199   2.628  15.963 -1.7711  0.5990 -1.0756
 4144TIP3   OH233846   2.575   5.743   0.703 -0.1475 -0.1161  0.7129
 4144TIP3    H133847   2.632   5.816   0.729  1.5926 -1.1354 -0.1075
 4144TIP3    H233848   2.542   5.708   0.786 -1.4898  1.9128  1.1050
 4145TIP3   OH233849   4.400   1.554  11.173 -0.0406  0.1138 -0.0624
 4145TIP3    H133850   4.432   1.582  11.087 -1.3892  0.9921 -0.3057
 4145TIP3    H233851   4.418   1.459  11.175  2.4762  0.5087 -0.1735
 4146TIP3   OH233852   0.532   2.575  15.635  0.2299 -0.1899 -0.1602
 4146TIP3    H133853   0.558   2.612  15.719 -1.9118 -0.4291  0.6785
 4146TIP3    H233854   0.539   2.648  15.574 -0.1822  0.5759  0.6709
 4147TIP3   OH233855   2.814   3.908   0.087 -0.4072  0.2660  0.0649
 4147TIP3    H133856   2.720   3.893   0.083 -0.6311  1.7332 -1.0411
 4147TIP3    H233857   2.851   3.822   0.107 -1.9659 -0.3290  0.5716
 4148TIP3   OH233858   6.012   2.753   3.355  0.1883  0.2705 -0.1883
 4148TIP3    H133859   6.086   2.725   3.408 -0.1805  0.2485  0.3261
 4148TIP3    H233860   5.972   2.671   3.326  0.1490  0.2763 -0.1514
 4149TIP3   OH233861   1.586   6.402  15.603  0.0069  0.0360  0.0566
 4149TIP3    H133862   1.633   6.365  15.678  1.2752 -1.5611 -1.4276
 4149TIP3    H233863   1.646   6.468  15.567  1.4286 -2.2350 -2.0385
 4150TIP3   OH233864   5.352   3.029  15.964 -0.2479  0.1460  0.1041
 4150TIP3    H133865   5.448   3.024  15.962 -0.2871 -0.9076 -0.0434
 4150TIP3    H233866   5.327   2.969  16.034 -0.8338 -0.2818 -0.4598
 4151TIP3   OH233867   5.224   0.716   3.205 -0.1228  0.0921 -0.0570
 4151TIP3    H133868   5.236   0.808   3.178 -3.4387  0.6944  0.0120
 4151TIP3    H233869   5.217   0.668   3.122 -0.1209  0.2106 -0.1268
 4152TIP3   OH233870   6.430   5.448  12.779 -0.0121  0.6045 -0.1227
 4152TIP3    H133871   6.346   5.402  12.777 -1.1593  2.5491  0.0180
 4152TIP3    H233872   6.475   5.421  12.699  1.3610 -4.0193  1.8941
 4153TIP3   OH233873   6.411   1.075   1.841  0.0903 -0.0758  0.5180
 4153TIP3    H133874   6.496   1.082   1.884  0.3029 -1.6079  0.4031
 4153TIP3    H233875   6.416   1.137   1.768  0.3717  1.2664  1.6335
 4154TIP3   OH233876   1.420   1.535   6.179 -0.1248  0.1189 -0.5473
 4154TIP3    H133877   1.410   1.529   6.274 -0.3457  1.2678 -0.4849
 4154TIP3    H233878   1.375   1.457   6.145 -0.9415  0.2321  0.2433
 4155TIP3   OH233879   4.467   2.647   0.688  0.0159 -0.2128  0.1076
 4155TIP3    H133880   4.491   2.697   0.609 -0.1729  0.6727  0.5915
 4155TIP3    H233881   4.546   2.599   0.711  0.9169  1.5042  0.8254
 4156TIP3   OH233882   6.377   0.182  13.356 -0.4120  0.1995 -0.2980
 4156TIP3    H133883   6.357   0.271  13.327 -0.2733  0.0530 -0.8733
 4156TIP3    H233884   6.466   0.167  13.325  1.3792  1.4483  3.6810
 4157TIP3   OH233885   0.452   4.623   0.233  0.6661 -0.4427 -0.5181
 4157TIP3    H133886   0.487   4.554   0.290  0.5699 -0.2334 -0.2041
 4157TIP3    H233887   0.369   4.646   0.273 -0.0355 -1.2170 -1.4809
 4158TIP3   OH233888   1.913   3.046   3.353 -0.5907 -0.0316 -0.0354
 4158TIP3    H133889   1.945   3.112   3.414 -0.0117 -2.4678  2.5375
 4158TIP3    H233890   1.987   3.030   3.294 -0.6049  1.2481 -0.4353
 4159TIP3   OH233891   4.582   5.539  14.630 -0.0755 -0.1425 -0.6940
 4159TIP3    H133892   4.653   5.604  14.634  1.0670 -1.3752  2.0750
 4159TIP3    H233893   4.588   5.503  14.541  1.1343  1.5081 -1.3444
 4160TIP3   OH233894   0.195   0.158   0.094  0.1381  0.1537  0.5856
 4160TIP3    H133895   0.114   0.203   0.069  0.9263  1.5885  0.5385
 4160TIP3    H233896   0.178   0.128   0.184 -0.9199 -0.7797  0.1127
 4161TIP3   OH233897   2.331   2.999   2.486  0.3741 -0.1430  0.2334
 4161TIP3    H133898   2.415   2.954   2.479  1.0085  1.1928 -1.5260
 4161TIP3    H233899   2.340   3.076   2.430 -2.0371  0.0419 -0.0283
 4162TIP3   OH233900   6.528   1.132   5.687  0.0118 -0.4517  0.3774
 4162TIP3    H133901   6.511   1.118   5.594  0.3232 -1.4863  0.4634
 4162TIP3    H233902   6.477   1.065   5.731 -0.6514  0.4556  1.0009
 4163TIP3   OH233903   2.066   5.782  11.708 -0.1344 -0.8072  0.0722
 4163TIP3    H133904   2.076   5.785  11.804 -1.5170 -0.5806  0.2261
 4163TIP3    H233905   2.030   5.867  11.685 -1.4169 -1.4607 -0.4292
 4164TIP3   OH233906   0.740   1.705  12.550  0.1018  0.2188 -0.3572
 4164TIP3    H133907   0.834   1.695  12.562  0.1700 -0.5306 -1.3681
 4164TIP3    H233908   0.731   1.775  12.485 -0.1743  2.4615  1.9432
 4165TIP3   OH233909   3.889   6.268  14.734 -0.0149  0.3104  0.0311
 4165TIP3    H133910   3.825   6.334  14.708 -0.2814  0.2154  0.4281
 4165TIP3    H233911   3.866   6.191  14.683 -1.4947 -0.3533  1.6116
 4166TIP3   OH233912   6.663   0.015   3.260  0.5331 -0.5323 -0.1478
 4166TIP3    H133913   6.680   0.076   3.332 -0.6450 -1.5787  1.0663
 4166TIP3    H233914   6.734   0.032   3.197  0.2015  2.1208  0.0924
 4167TIP3   OH233915   2.505   6.437  13.186  0.0688  0.2245  0.1835
 4167TIP3    H133916   2.495   6.347  13.156  0.8114  0.9645 -2.6516
 4167TIP3    H233917   2.598   6.456  13.172 -0.2303  1.6460 -0.0049
 4168TIP3   OH233918   0.270   3.402   1.412  0.2842  0.5979  0.0625
 4168TIP3    H133919   0.324   3.422   1.488 -3.1768 -1.0142  3.2602
 4168TIP3    H233920   0.220   3.482   1.395 -0.6332  0.2553  1.0825
 4169TIP3   OH233921   1.653   3.999   0.107  0.0640  0.3313 -1.0490
 4169TIP3    H133922   1.616   3.970   0.023  1.5847 -2.9844 -0.6961
 4169TIP3    H233923   1.731   4.049   0.082  1.1713 -1.6209 -1.6842
 4170TIP3   OH233924   0.534   3.946  12.275 -0.2235 -0.4395  0.3169
 4170TIP3    H133925   0.479   4.005  12.326 -0.6682 -1.3326  0.8904
 4170TIP3    H233926   0.486   3.931  12.194 -0.3170 -0.3641  0.3601
 4171TIP3   OH233927   0.726   2.771  17.489 -0.4150  0.1493  0.3647
 4171TIP3    H133928   0.660   2.840  17.480 -0.2536  0.1323 -1.3959
 4171TIP3    H233929   0.715   2.719  17.409  0.6220 -0.8412  0.8555
 4172TIP3   OH233930   6.466   4.682  16.632  0.3033  0.0462  0.3369
 4172TIP3    H133931   6.391   4.738  16.609  1.2822  1.9898  1.5527
 4172TIP3    H233932   6.509   4.665  16.549 -0.5447  0.3242 -0.1742
 4173TIP3   OH233933   6.179   3.656  12.769 -0.2347  0.1779 -0.2330
 4173TIP3    H133934   6.201   3.564  12.786 -0.3160  0.3666  0.9716
 4173TIP3    H233935   6.084   3.659  12.774 -0.2454  0.2990 -0.4855
 4174TIP3   OH233936   1.888   0.835   5.991 -0.0799 -0.2290 -0.4824
 4174TIP3    H133937   1.799   0.810   5.967 -0.5959 -0.3388  1.4009
 4174TIP3    H233938   1.878   0.921   6.033  0.9119  0.4459 -1.5586
 4175TIP3   OH233939   4.746   1.282  11.709  0.3586  0.0994  0.2137
 4175TIP3    H133940   4.775   1.194  11.734  0.3143  0.4731  1.6740
 4175TIP3    H233941   4.780   1.294  11.621  0.6006 -1.2784  0.0946
 4176TIP3   OH233942   0.590   4.376  11.246 -0.6417  0.4232  0.4659
 4176TIP3    H133943   0.569   4.418  11.162  1.4365  0.2981 -0.1638
 4176TIP3    H233944   0.661   4.316  11.226 -2.8924 -2.8703  1.5318
 4177TIP3   OH233945   2.256   3.259  16.361 -0.1721  0.0356  0.3433
 4177TIP3    H133946   2.283   3.257  16.453 -0.4992 -0.1821  0.4364
 4177TIP3    H233947   2.216   3.345  16.350  2.5156  1.3123 -0.3690
 4178TIP3   OH233948   3.850   6.386   4.140  0.0271 -0.1767  0.2316
 4178TIP3    H133949   3.816   6.476   4.147  0.6709 -0.0104  1.5915
 4178TIP3    H233950   3.778   6.331   4.171  0.6694  0.1273  2.4419
 4179TIP3   OH233951   6.598   1.950   6.745  0.0031 -0.0452  0.1413
 4179TIP3    H133952   6.656   1.898   6.800 -0.7996  0.8730  1.9167
 4179TIP3    H233953   6.511   1.939   6.784 -0.2394  2.4192  0.4357
 4180TIP3   OH233954   1.602   5.402  17.249 -0.3358  0.2676  0.2670
 4180TIP3    H133955   1.648   5.324  17.219  0.6204  0.0562  2.1930
 4180TIP3    H233956   1.521   5.369  17.287 -1.3360  0.5013 -1.5488
 4181TIP3   OH233957   2.123   6.430  13.333 -0.1570  0.3041 -0.7902
 4181TIP3    H133958   2.194   6.370  13.356 -0.6177  0.1479  0.3367
 4181TIP3    H233959   2.057   6.415  13.401 -1.2459  0.4773 -1.7871
 4182TIP3   OH233960   5.316   0.634   4.085 -0.1213 -0.0665  0.4238
 4182TIP3    H133961   5.312   0.597   4.173 -0.8111 -1.9155 -0.3189
 4182TIP3    H233962   5.271   0.569   4.030  1.0547  0.5970 -1.4206
 4183TIP3   OH233963   5.332   3.121  13.625  0.0388 -0.0108 -0.3881
 4183TIP3    H133964   5.309   3.185  13.558  0.6279 -0.7431 -1.3122
 4183TIP3    H233965   5.250   3.075  13.644  0.3182 -1.6304 -2.6103
 4184TIP3   OH233966   6.413   5.013  12.057  0.1299 -0.2664 -0.9863
 4184TIP3    H133967   6.353   5.055  12.118  1.2751  1.5296 -1.0100
 4184TIP3    H233968   6.464   4.952  12.111 -2.0659 -2.3389 -1.0879
 4185TIP3   OH233969   0.031   6.221   1.483 -0.4075 -0.1797  0.2724
 4185TIP3    H133970   0.107   6.205   1.426 -0.8177 -0.1574 -0.2913
 4185TIP3    H233971   0.058   6.295   1.538 -0.8895  1.4668 -1.5810
 4186TIP3   OH233972   4.210   1.271   1.681  0.1341  0.6673  0.3140
 4186TIP3    H133973   4.258   1.332   1.737 -1.0611  1.5538  0.3985
 4186TIP3    H233974   4.123   1.309   1.672 -0.8717 -1.3681  0.9087
 4187TIP3   OH233975   6.522   0.624   4.005  0.0045  0.0151  0.0003
 4187TIP3    H133976   6.537   0.714   3.975  0.0152  0.5063  1.3810
 4187TIP3    H233977   6.548   0.625   4.097  2.2610 -2.0102 -0.5076
 4188TIP3   OH233978   1.922   6.712  12.433 -0.1843  0.2699 -0.6147
 4188TIP3    H133979   1.863   6.665  12.374  0.5427  0.6351 -1.6703
 4188TIP3    H233980   1.889   6.802  12.435 -0.8948 -0.0053  0.4820
 4189TIP3   OH233981   2.913   1.306  15.565  0.8283  0.0450 -0.0657
 4189TIP3    H133982   2.908   1.268  15.477 -0.0026  0.4041 -0.1790
 4189TIP3    H233983   3.006   1.301  15.587  0.6325 -3.2508  0.4694
 4190TIP3   OH233984   1.841   6.289  11.883  0.4474 -0.0129 -0.3140
 4190TIP3    H133985   1.809   6.218  11.827 -1.1818  0.5034 -0.0894
 4190TIP3    H233986   1.798   6.368  11.848  1.0490  0.6298  0.3648
 4191TIP3   OH233987   2.731   3.754  11.977  0.3165  0.2358 -0.2304
 4191TIP3    H133988   2.768   3.667  11.965  1.1748  0.4689  0.6670
 4191TIP3    H233989   2.766   3.785  12.060 -2.0979  0.3748  0.8317
 4192TIP3   OH233990   1.541   5.208  11.646  0.5286 -0.5640  0.4467
 4192TIP3    H133991   1.487   5.200  11.725  0.8380  0.6468  0.7971
 4192TIP3    H233992   1.603   5.278  11.666  0.1625  0.2521 -1.1273
 4193TIP3   OH233993   5.667   3.062  11.259  0.0493 -0.2746  0.5138
 4193TIP3    H133994   5.713   3.009  11.194 -0.3476 -2.4202  1.8977
 4193TIP3    H233995   5.734   3.123  11.292  1.8425 -2.8134  1.9480
 4194TIP3   OH233996   0.843   1.942  12.918 -0.2357  0.4789 -0.5157
 4194TIP3    H133997   0.855   1.942  13.012  1.1077 -0.8741 -0.6517
 4194TIP3    H233998   0.887   2.022  12.888  0.2372  0.3872 -0.0806
 4195TIP3   OH233999   1.382   0.314  11.426  0.0251  0.6761  0.6476
 4195TIP3    H134000   1.343   0.334  11.341 -1.0558  1.1505  1.2339
 4195TIP3    H234001   1.379   0.219  11.432 -0.4563  0.6734  0.4067
 4196TIP3   OH234002   5.959   0.164  16.669 -0.0755 -0.5725  1.1056
 4196TIP3    H134003   6.040   0.180  16.621 -0.0439  0.9142  1.6152
 4196TIP3    H234004   5.890   0.195  16.610 -0.3834 -2.6584  0.2955
 4197TIP3   OH234005   4.021   3.944  16.712 -0.0342 -0.1137 -0.5236
 4197TIP3    H134006   3.973   3.883  16.656 -0.9018  1.2838 -1.3486
 4197TIP3    H234007   4.029   4.024  16.660  1.9089  0.2053  0.1735
 4198TIP3   OH234008   0.978   1.305  11.673 -0.1670 -0.3206 -0.2951
 4198TIP3    H134009   1.025   1.248  11.612  2.2505  0.7926  0.4026
 4198TIP3    H234010   1.016   1.284  11.759 -2.8298 -1.1906  0.7842
 4199TIP3   OH234011   4.902   0.611   1.378 -0.1293  0.2538 -0.1784
 4199TIP3    H134012   4.921   0.648   1.464 -0.2993 -0.5943  0.2344
 4199TIP3    H234013   4.927   0.680   1.316  0.1694  0.8000  0.5356
 4200TIP3   OH234014   2.105   5.206   1.406 -0.4545  0.2247  0.2834
 4200TIP3    H134015   2.059   5.235   1.327  0.5579 -1.1889 -0.8752
 4200TIP3    H234016   2.140   5.287   1.443 -0.4612  0.8742 -1.0410
 4201TIP3   OH234017   4.320   3.302  15.520 -0.2723  0.0717  0.2413
 4201TIP3    H134018   4.326   3.214  15.483 -1.1913  0.2944 -0.4804
 4201TIP3    H234019   4.259   3.293  15.593  3.0123 -0.7807  3.1278
 4202TIP3   OH234020   4.685   2.080   2.291  0.3343 -0.2682  0.0047
 4202TIP3    H134021   4.595   2.114   2.293  0.9685  1.5729 -0.8895
 4202TIP3    H234022   4.699   2.044   2.379 -1.5561 -1.4399 -0.1083
 4203TIP3   OH234023   3.187   6.423   2.312  0.1643 -0.6890  0.3851
 4203TIP3    H134024   3.150   6.492   2.257 -1.0268 -2.0655 -0.6093
 4203TIP3    H234025   3.269   6.399   2.268  0.5713  0.0739  0.7238
 4204TIP3   OH234026   1.363   2.195   4.774 -0.3622  0.0445 -0.4466
 4204TIP3    H134027   1.324   2.256   4.837  1.2587  1.1914 -0.4866
 4204TIP3    H234028   1.288   2.152   4.732 -1.5014  0.4397  1.1059
 4205TIP3   OH234029   6.574   1.820  16.742  0.1387 -0.1988  0.7804
 4205TIP3    H134030   6.601   1.729  16.732  1.0416  0.1598 -0.2167
 4205TIP3    H234031   6.654   1.867  16.764 -0.3973  0.3051  1.7107
 4206TIP3   OH234032   5.551   2.024  11.557  0.6118  0.2439 -0.0807
 4206TIP3    H134033   5.596   1.946  11.524  0.0481  1.1234 -3.2282
 4206TIP3    H234034   5.472   1.990  11.600  0.9421 -0.9517 -0.3762
 4207TIP3   OH234035   3.713   6.032   2.560  0.1398 -0.2068 -0.3205
 4207TIP3    H134036   3.687   6.113   2.517 -0.3788 -0.9735 -1.4973
 4207TIP3    H234037   3.808   6.028   2.548  0.0356 -0.2874 -1.2119
 4208TIP3   OH234038   3.503   3.224   1.513 -0.3977  0.5688  0.3215
 4208TIP3    H134039   3.579   3.191   1.465 -0.5785  1.0562 -0.3019
 4208TIP3    H234040   3.465   3.146   1.554 -0.6430  0.0300 -0.8861
 4209TIP3   OH234041   2.070   3.766   3.934 -0.7977 -0.5240 -0.0647
 4209TIP3    H134042   1.983   3.793   3.905 -0.8558 -0.5861  0.0519
 4209TIP3    H234043   2.054   3.698   4.000 -0.6002 -2.4655 -1.9341
 4210TIP3   OH234044   2.198   6.497  17.044 -0.2544 -0.2606 -0.0175
 4210TIP3    H134045   2.291   6.502  17.021 -0.1465 -2.3879 -0.2319
 4210TIP3    H234046   2.166   6.587  17.033  1.7472  0.5219  0.0226
 4211TIP3   OH234047   6.437   4.024   0.113 -0.0547 -0.3003  0.5529
 4211TIP3    H134048   6.490   4.072   0.049  0.5985 -1.3126  0.3091
 4211TIP3    H234049   6.432   4.082   0.189  1.6812 -0.3040  0.7015
 4212TIP3   OH234050   4.974   3.132   0.177  0.6465  0.1183 -0.2494
 4212TIP3    H134051   4.964   3.223   0.204 -0.4397 -0.0997  0.1195
 4212TIP3    H234052   5.068   3.116   0.180  0.7839  1.0155  0.3884
 4213TIP3   OH234053   1.302   1.578   2.886  0.5029 -0.3405 -0.2797
 4213TIP3    H134054   1.214   1.585   2.852  1.1335  3.1076 -1.5331
 4213TIP3    H234055   1.292   1.578   2.981 -0.8407  0.1305 -0.4127
 4214TIP3   OH234056   2.295   6.461   1.079  0.9956  0.0340  0.0447
 4214TIP3    H134057   2.225   6.431   1.137  2.3547  0.0550  1.7617
 4214TIP3    H234058   2.348   6.520   1.133  1.9839  0.5115 -1.3891
 4215TIP3   OH234059   5.135   3.959  13.185 -0.3922 -0.1189 -0.5345
 4215TIP3    H134060   5.209   3.955  13.246 -0.4607  3.2597 -0.0489
 4215TIP3    H234061   5.175   3.958  13.098 -0.0630 -1.5818 -0.3907
 4216TIP3   OH234062   4.240   3.038  15.444 -0.8284 -0.6234 -0.2417
 4216TIP3    H134063   4.168   2.977  15.430 -1.3795 -0.0227 -0.0687
 4216TIP3    H234064   4.318   2.990  15.416 -1.1495 -1.6788  0.5866
 4217TIP3   OH234065   1.256   2.982   5.008  0.1513 -0.9191  0.0164
 4217TIP3    H134066   1.302   2.948   4.931  0.3262  0.5177 -0.5476
 4217TIP3    H234067   1.326   3.002   5.071  0.1306 -0.6938 -0.0318
 4218TIP3   OH234068   1.338   2.984  12.555 -0.0581  0.0713 -0.4787
 4218TIP3    H134069   1.289   2.965  12.636  1.5934  1.3977  0.9247
 4218TIP3    H234070   1.271   3.000  12.489 -1.4745 -0.6192  0.7394
 4219TIP3   OH234071   4.974   3.158  12.792  0.2499 -0.4371 -0.5310
 4219TIP3    H134072   5.039   3.187  12.728  0.8939  1.3232  0.8505
 4219TIP3    H234073   4.917   3.234  12.804 -0.6825 -1.1944 -0.0033
 4220TIP3   OH234074   1.899   1.692  14.735  0.0984  0.4086 -0.0469
 4220TIP3    H134075   1.986   1.672  14.771 -0.3625 -0.1745  0.7648
 4220TIP3    H234076   1.850   1.728  14.809 -0.9169 -0.9720 -0.0176
 4221TIP3   OH234077   5.764   5.705  13.531  0.0306  0.4144  0.2554
 4221TIP3    H134078   5.757   5.629  13.589 -0.8433  0.2325 -0.0781
 4221TIP3    H234079   5.727   5.777  13.582  0.5385  0.5535  0.4380
 4222TIP3   OH234080   3.807   3.601  13.096 -0.0434  0.1091  0.6322
 4222TIP3    H134081   3.823   3.579  13.004 -0.8338 -0.7338  0.6856
 4222TIP3    H234082   3.778   3.692  13.093  0.8683  0.4070  0.1604
 4223TIP3   OH234083   1.357   5.557   2.787 -0.7430  0.3511  0.3848
 4223TIP3    H134084   1.327   5.511   2.866 -2.0641 -1.9929 -1.3524
 4223TIP3    H234085   1.281   5.608   2.758 -0.1299  1.5435  0.8186
 4224TIP3   OH234086   0.480   6.165   2.326 -0.4352 -0.2158  0.5207
 4224TIP3    H134087   0.406   6.186   2.382 -1.1537 -1.8946  0.2669
 4224TIP3    H234088   0.440   6.140   2.242  0.4084 -1.0943  0.3650
 4225TIP3   OH234089   4.421   4.349  15.461 -0.1656 -0.2657 -0.0800
 4225TIP3    H134090   4.461   4.323  15.378  1.7097  1.5808  0.1528
 4225TIP3    H234091   4.356   4.414  15.436 -0.8630 -1.0034 -0.2185
 4226TIP3   OH234092   4.182   0.754  14.121  0.1225 -0.0464 -0.4329
 4226TIP3    H134093   4.097   0.786  14.150  0.6371 -0.0612  1.2074
 4226TIP3    H234094   4.219   0.825  14.069 -1.2383 -0.3977 -1.9858
 4227TIP3   OH234095   1.720   5.106  15.177 -0.1402  0.0585 -1.0621
 4227TIP3    H134096   1.796   5.162  15.193 -0.5323  0.3912 -0.3396
 4227TIP3    H234097   1.754   5.037  15.120  1.1774 -0.8149  0.6524
 4228TIP3   OH234098   3.694   5.880   1.572 -0.4363 -0.0616 -0.4391
 4228TIP3    H134099   3.759   5.944   1.542  0.8838 -1.6882 -1.2193
 4228TIP3    H234100   3.736   5.838   1.648 -1.0696 -0.3567 -0.2476
 4229TIP3   OH234101   3.865   2.008   4.234 -0.0947  0.3422  0.0261
 4229TIP3    H134102   3.933   2.039   4.173  1.0552  0.5496  1.3612
 4229TIP3    H234103   3.786   2.056   4.208 -0.1726 -0.9752 -2.5047
 4230TIP3   OH234104   4.847   2.647  15.844  0.3053  0.3238  0.0735
 4230TIP3    H134105   4.840   2.665  15.750  1.3608 -0.3872 -0.1596
 4230TIP3    H234106   4.765   2.679  15.880 -1.4611 -2.0845 -1.5166
 4231TIP3   OH234107   1.437   5.414   2.033  0.2457  0.8348  0.5530
 4231TIP3    H134108   1.530   5.436   2.035  0.9042 -1.3647 -0.9209
 4231TIP3    H234109   1.435   5.320   2.055 -1.3101  0.2360 -1.7833
 4232TIP3   OH234110   5.775   2.678  16.016 -0.2035  0.3590  0.7105
 4232TIP3    H134111   5.711   2.713  16.079 -1.0616  1.0722 -0.5144
 4232TIP3    H234112   5.721   2.641  15.945  0.7377  0.3825 -0.0319
 4233TIP3   OH234113   2.150   0.666   6.504  0.1313 -0.3725 -0.2103
 4233TIP3    H134114   2.213   0.683   6.574 -1.4050  0.8979  0.9493
 4233TIP3    H234115   2.183   0.587   6.461  2.4431  0.1913  0.3615
 4234TIP3   OH234116   4.657   6.447  13.548 -0.1847  0.1448  0.0308
 4234TIP3    H134117   4.570   6.425  13.580  0.4086  0.5663  2.0625
 4234TIP3    H234118   4.717   6.395  13.603  0.8630 -0.6695 -1.7604
 4235TIP3   OH234119   5.988   2.239  14.459 -0.2492  0.3484  0.5144
 4235TIP3    H134120   5.915   2.278  14.507 -0.2973  1.7229 -0.6142
 4235TIP3    H234121   5.946   2.186  14.392 -0.1929  0.0057  0.7481
 4236TIP3   OH234122   4.520   6.260   0.366  0.2287  0.1761  0.2005
 4236TIP3    H134123   4.460   6.321   0.323 -0.5422 -0.3741  0.4682
 4236TIP3    H234124   4.463   6.206   0.421  0.7519 -1.3372 -0.6734
 4237TIP3   OH234125   0.936   4.602   5.721  0.0816  0.0542  0.6136
 4237TIP3    H134126   0.919   4.571   5.632  0.0647  0.4142  0.4896
 4237TIP3    H234127   0.852   4.635   5.752  0.2528  0.6240  0.4833
 4238TIP3   OH234128   6.382   2.597   2.963  0.1452 -0.3532 -0.3539
 4238TIP3    H134129   6.341   2.682   2.943 -0.1387 -0.2998  0.4445
 4238TIP3    H234130   6.419   2.569   2.879  1.5830  1.2635 -0.3163
 4239TIP3   OH234131   1.536   4.909   3.313  0.3008  0.1588  0.0937
 4239TIP3    H134132   1.587   4.828   3.317  0.4420  0.1696 -1.2434
 4239TIP3    H234133   1.467   4.892   3.249 -1.7160  0.0022  2.1817
 4240TIP3   OH234134   0.842   2.906  12.458 -0.2771  0.7619 -0.0286
 4240TIP3    H134135   0.925   2.889  12.413 -0.5664 -1.7452  0.2235
 4240TIP3    H234136   0.780   2.849  12.414 -0.8661 -0.7905  2.6033
 4241TIP3   OH234137   2.044   4.269   0.513  0.6036 -0.0375 -0.1269
 4241TIP3    H134138   1.991   4.236   0.440 -2.0276  1.1381  1.0991
 4241TIP3    H234139   2.133   4.274   0.478 -0.6155  1.1598 -3.4932
 4242TIP3   OH234140   6.704   4.853  12.993 -0.1840  0.5772  0.2405
 4242TIP3    H134141   6.701   4.760  13.014 -0.2104  0.3632 -0.6618
 4242TIP3    H234142   6.691   4.856  12.898  2.5504  1.2939 -0.2143
 4243TIP3   OH234143   3.159   4.436  16.929  0.2384 -0.0570  0.1507
 4243TIP3    H134144   3.190   4.395  16.848 -0.1177 -1.9209  0.9133
 4243TIP3    H234145   3.118   4.365  16.978 -0.0904  1.1548  1.7155
 4244TIP3   OH234146   3.748   3.171   4.233  0.1417 -0.3059  0.6955
 4244TIP3    H134147   3.691   3.183   4.309 -1.1040 -0.5633 -0.1703
 4244TIP3    H234148   3.691   3.184   4.157  1.4419  0.3579 -0.2176
 4245TIP3   OH234149   0.538   4.324   0.434  0.5879  0.0236  0.0725
 4245TIP3    H134150   0.586   4.406   0.442  0.0975  0.2803  0.5158
 4245TIP3    H234151   0.599   4.263   0.394  1.2912  0.3318  0.6523
 4246TIP3   OH234152   3.322   0.351   0.608 -0.1656  1.0690 -0.1495
 4246TIP3    H134153   3.241   0.396   0.634 -1.7471 -0.7758 -1.5345
 4246TIP3    H234154   3.328   0.366   0.514  0.0171 -0.3797 -0.3913
 4247TIP3   OH234155   1.198   5.927  11.957 -0.2055 -0.4441  0.5377
 4247TIP3    H134156   1.179   5.941  11.865  1.1751 -1.8295  0.0044
 4247TIP3    H234157   1.112   5.913  11.997 -0.8367  0.4667 -0.4572
 4248TIP3   OH234158   0.258   3.312   1.736 -0.8673 -0.1133  0.5494
 4248TIP3    H134159   0.170   3.293   1.703 -0.7732  0.8547 -0.3235
 4248TIP3    H234160   0.276   3.400   1.704  0.4210 -0.3002  0.7333
 4249TIP3   OH234161   0.412   3.147  11.922  0.3608 -0.3958 -0.5032
 4249TIP3    H134162   0.471   3.187  11.985  1.3092 -1.8126 -0.4487
 4249TIP3    H234163   0.332   3.128  11.972  0.7362 -0.6060  0.0241
 4250TIP3   OH234164   2.122   5.516  11.046  0.1932 -0.3216  0.3877
 4250TIP3    H134165   2.120   5.575  11.122 -1.0824  0.9139 -0.5477
 4250TIP3    H234166   2.213   5.486  11.042  0.6474  0.7810  1.5127
 4251TIP3   OH234167   3.840   3.694   0.052  0.3180 -0.4641 -0.1368
 4251TIP3    H134168   3.869   3.715  -0.037  0.0371 -1.6806 -0.5471
 4251TIP3    H234169   3.819   3.600   0.048 -2.7751  0.0823  0.3488
 4252TIP3   OH234170   0.899   4.639  14.398 -0.2695 -0.0696 -0.8837
 4252TIP3    H134171   0.899   4.583  14.321 -2.2597 -0.7715 -0.4420
 4252TIP3    H234172   0.847   4.716  14.373 -0.9651 -0.3185 -0.2551
 4253TIP3   OH234173   5.172   1.067  15.096  0.0705 -0.3498 -0.3451
 4253TIP3    H134174   5.138   1.073  15.007  0.9686 -0.8296 -0.7348
 4253TIP3    H234175   5.097   1.089  15.152 -0.8080 -1.1128 -1.1795
 4254TIP3   OH234176   6.380   2.520   1.024  0.1594  0.0309 -0.4229
 4254TIP3    H134177   6.410   2.590   1.083 -0.4019  0.3146 -0.4607
 4254TIP3    H234178   6.289   2.506   1.049 -0.1057  0.1975 -1.2636
 4255TIP3   OH234179   5.257   5.373  15.160  0.0761 -0.0518 -0.0748
 4255TIP3    H134180   5.343   5.336  15.139 -0.5734 -0.2228 -2.8425
 4255TIP3    H234181   5.261   5.393  15.253  3.0924 -0.0868 -0.1124
 4256TIP3   OH234182   0.315   4.525  14.496 -0.2535 -0.2239  0.6730
 4256TIP3    H134183   0.367   4.493  14.569  0.4133  0.6168  0.5897
 4256TIP3    H234184   0.357   4.489  14.418 -0.7245 -0.7939  0.6769
 4257TIP3   OH234185   3.454   0.774   1.176  0.1312 -0.1015  0.2296
 4257TIP3    H134186   3.372   0.726   1.167 -0.9541  1.6297  0.5004
 4257TIP3    H234187   3.514   0.729   1.117 -1.4100 -0.5320 -1.0854
 4258TIP3   OH234188   3.677   0.826  13.892 -0.2452  0.5163 -0.1638
 4258TIP3    H134189   3.619   0.870  13.954  0.4796 -0.5542  1.3441
 4258TIP3    H234190   3.753   0.883  13.885 -1.1026  1.5653 -1.5878
 4259TIP3   OH234191   1.374   3.478  14.383  0.3224  0.2124 -0.1299
 4259TIP3    H134192   1.444   3.415  14.365 -0.3640 -0.7789  0.5186
 4259TIP3    H234193   1.301   3.423  14.412 -0.6834  1.2339 -0.6895
 4260TIP3   OH234194   4.215   1.448  15.921 -0.1298  0.4274  0.6317
 4260TIP3    H134195   4.199   1.484  16.009  0.4500  1.5079  0.3157
 4260TIP3    H234196   4.301   1.406  15.927 -0.3986 -0.1068  0.7587
 4261TIP3   OH234197   5.573   2.424   0.709 -0.0045 -0.1491  0.2491
 4261TIP3    H134198   5.563   2.372   0.789 -1.7898 -1.7105 -0.8982
 4261TIP3    H234199   5.645   2.382   0.662 -0.9144 -1.1789 -0.2954
 4262TIP3   OH234200   0.873   6.733   4.688 -0.0642  0.3230  0.6976
 4262TIP3    H134201   0.864   6.809   4.630 -0.3317  0.5016  0.9703
 4262TIP3    H234202   0.853   6.767   4.775  1.4115  0.3108  1.0603
 4263TIP3   OH234203   5.396   5.151  15.321  0.9222  0.2624  0.1948
 4263TIP3    H134204   5.450   5.126  15.246 -0.1318  1.7824 -1.1391
 4263TIP3    H234205   5.380   5.069  15.368  1.3510 -0.7823 -1.4081
 4264TIP3   OH234206   6.082   2.492   0.126  0.1727 -0.0139  0.1816
 4264TIP3    H134207   6.066   2.560   0.192 -2.4804 -1.4350  1.1498
 4264TIP3    H234208   6.017   2.509   0.058  1.0914 -0.1989 -0.7724
 4265TIP3   OH234209   4.857   3.251  16.426  0.1847  0.1278  0.0476
 4265TIP3    H134210   4.885   3.340  16.447  0.3986  1.0140 -3.2958
 4265TIP3    H234211   4.762   3.255  16.423  0.1857  0.2055  0.1430
 4266TIP3   OH234212   1.906   0.827  15.417 -0.2988  0.4252 -0.7196
 4266TIP3    H134213   1.905   0.733  15.403  0.3096  0.2901  0.0601
 4266TIP3    H234214   1.845   0.841  15.490 -0.5477  0.6592 -0.9711
 4267TIP3   OH234215   5.988   1.369   3.622 -0.7266  0.3877  0.3696
 4267TIP3    H134216   5.951   1.284   3.647 -0.2885 -0.1001 -0.5806
 4267TIP3    H234217   6.021   1.355   3.533  0.7478  1.1077  0.7713
 4268TIP3   OH234218   4.649   3.507  11.555 -0.1839  0.3356  0.0462
 4268TIP3    H134219   4.644   3.516  11.650  0.0324  1.0692 -0.0108
 4268TIP3    H234220   4.604   3.424  11.537 -0.9760  0.6032  0.7080
 4269TIP3   OH234221   4.050   4.022   0.854  0.0427  0.6861 -0.3678
 4269TIP3    H134222   4.053   4.118   0.850 -0.1988  0.8189  1.6300
 4269TIP3    H234223   4.044   3.995   0.763 -0.6504  2.6048 -0.9507
 4270TIP3   OH234224   5.374   1.421  11.266 -0.0372 -0.0693  0.4773
 4270TIP3    H134225   5.452   1.367  11.259 -0.4778 -0.7374  0.6736
 4270TIP3    H234226   5.395   1.485  11.334  0.1791 -0.5176  0.8315
 4271TIP3   OH234227   1.722   0.358  14.999 -0.1039  0.4309  0.1181
 4271TIP3    H134228   1.817   0.349  14.990 -0.0753  0.8565 -0.0507
 4271TIP3    H234229   1.704   0.447  14.968 -0.7566 -0.1675 -1.2714
 4272TIP3   OH234230   4.813   3.822  14.468 -0.4101  0.4381  0.0223
 4272TIP3    H134231   4.724   3.838  14.499 -0.7325 -1.2392  0.0280
 4272TIP3    H234232   4.834   3.899  14.415 -1.8721  0.8406 -0.0124
 4273TIP3   OH234233   3.239   5.562  15.571  0.1000  1.0010 -0.1695
 4273TIP3    H134234   3.279   5.587  15.654  0.8611  0.0423 -0.2360
 4273TIP3    H234235   3.287   5.484  15.543 -0.6616  0.8533 -1.1269
 4274TIP3   OH234236   0.408   2.590   4.682  0.2972  0.0950  0.5464
 4274TIP3    H134237   0.370   2.567   4.598  2.8158  1.4866 -1.1410
 4274TIP3    H234238   0.486   2.534   4.690  0.8914  0.9732  1.2186
 4275TIP3   OH234239   0.460   2.941   5.477 -0.3802  0.0981 -0.2792
 4275TIP3    H134240   0.490   2.880   5.410  0.4832  1.0637 -0.7848
 4275TIP3    H234241   0.539   2.971   5.521 -1.0011 -2.0652  2.6450
 4276TIP3   OH234242   6.067   5.553  12.737 -0.3274 -0.2747  0.3023
 4276TIP3    H134243   6.003   5.513  12.678  0.7962  0.2289 -1.3435
 4276TIP3    H234244   6.043   5.646  12.738 -1.0838 -0.4605  1.6695
 4277TIP3   OH234245   0.434   4.381  14.209 -0.0002  0.5460  0.0587
 4277TIP3    H134246   0.525   4.357  14.190  0.4837  2.3927 -0.1195
 4277TIP3    H234247   0.412   4.446  14.142 -1.0773  0.9279  0.7655
 4278TIP3   OH234248   4.890   0.127  13.014 -0.2029  0.0496 -0.9313
 4278TIP3    H134249   4.847   0.212  13.008  2.1013  1.5427  1.4459
 4278TIP3    H234250   4.970   0.144  13.064  0.0211 -3.6506  0.2629
 4279TIP3   OH234251   0.130   4.955   2.111 -0.4192 -0.2572 -0.2963
 4279TIP3    H134252   0.106   5.038   2.152 -1.8061  0.3383 -2.1359
 4279TIP3    H234253   0.215   4.933   2.148  0.1455  2.1675  0.0189
 4280TIP3   OH234254   5.841   5.436  12.620 -0.4283 -0.2832 -0.2077
 4280TIP3    H134255   5.777   5.506  12.635  1.1821  1.5802 -1.4067
 4280TIP3    H234256   5.816   5.366  12.680 -3.0673  0.6838 -0.0591
 4281TIP3   OH234257   4.786   4.874   2.410  0.0802  0.4762 -0.1577
 4281TIP3    H134258   4.759   4.948   2.464  0.0774  0.7246 -0.4975
 4281TIP3    H234259   4.849   4.911   2.348  1.6531 -0.1802  0.9604
 4282TIP3   OH234260   4.631   4.988  16.495  0.2623  0.4023  0.4763
 4282TIP3    H134261   4.647   4.916  16.434 -0.3647 -0.9670  1.8863
 4282TIP3    H234262   4.547   5.025  16.468 -0.5181 -0.8554  1.0900
 4283TIP3   OH234263   5.248   6.382   0.389 -0.0076 -0.5193 -0.2927
 4283TIP3    H134264   5.178   6.431   0.432 -0.1310  1.9187 -2.9797
 4283TIP3    H234265   5.208   6.297   0.368 -0.8682 -0.6234  1.5473
 4284TIP3   OH234266   3.116   6.456   1.613  0.4018 -0.1815 -0.3055
 4284TIP3    H134267   3.073   6.531   1.573 -0.9063 -0.6520  0.1759
 4284TIP3    H234268   3.168   6.493   1.684 -1.0008  0.2156  0.5640
 4285TIP3   OH234269   3.638   0.562   2.286 -0.4889  0.0507 -0.0303
 4285TIP3    H134270   3.546   0.587   2.298 -0.5366 -0.9194  2.0467
 4285TIP3    H234271   3.688   0.634   2.325 -0.4217 -0.1104  0.1828
 4286TIP3   OH234272   0.351   2.722   0.206 -0.2166 -0.5137 -0.0714
 4286TIP3    H134273   0.388   2.646   0.162 -1.7993 -1.5545  0.3234
 4286TIP3    H234274   0.420   2.752   0.265  0.3573 -1.7590 -0.0835
 4287TIP3   OH234275   3.698   4.925  17.325 -0.3230  0.0567  0.0455
 4287TIP3    H134276   3.655   4.840  17.332  0.9351 -0.6866 -0.6572
 4287TIP3    H234277   3.754   4.931  17.402 -0.4130  0.2439  0.0962
 4288TIP3   OH234278   3.123   0.857  15.075  0.0548 -0.3818  0.2407
 4288TIP3    H134279   3.167   0.778  15.106  2.2090  1.1994  1.4949
 4288TIP3    H234280   3.194   0.916  15.048 -1.5300  0.6027 -2.1416
 4289TIP3   OH234281   5.052   2.739  17.309 -0.4189 -0.1621  0.2739
 4289TIP3    H134282   5.074   2.780  17.225 -1.4004 -0.5599 -0.1876
 4289TIP3    H234283   5.122   2.768  17.368  0.6525 -0.3868 -0.8247
 4290TIP3   OH234284   5.715   5.540   4.293  0.8859 -0.5934 -0.2256
 4290TIP3    H134285   5.674   5.489   4.223  0.8230  1.6553 -1.9674
 4290TIP3    H234286   5.728   5.627   4.254  2.1967  0.3519  2.1190
 4291TIP3   OH234287   2.009   1.412  15.348 -0.0233 -0.4690 -0.0326
 4291TIP3    H134288   2.082   1.473  15.350 -0.1323 -0.3498  0.4373
 4291TIP3    H234289   1.936   1.464  15.314 -0.1082 -0.3453  0.3368
 4292TIP3   OH234290   4.489   3.802   1.324  0.0442  0.0704 -1.3032
 4292TIP3    H134291   4.492   3.822   1.230  0.6558 -1.2284 -1.5811
 4292TIP3    H234292   4.541   3.871   1.365 -0.0448  0.5227 -1.9332
 4293TIP3   OH234293   3.002   2.890  12.893  0.4984 -0.2422 -0.5218
 4293TIP3    H134294   3.074   2.949  12.914 -0.0461  0.8669 -1.5880
 4293TIP3    H234295   3.027   2.850  12.809 -1.1856  2.1616 -2.3243
 4294TIP3   OH234296   5.569   3.097  12.179 -0.2347  0.4814  0.7637
 4294TIP3    H134297   5.621   3.176  12.191  0.1473  0.2876  0.4390
 4294TIP3    H234298   5.572   3.080  12.084 -1.3986  0.8053  0.6459
 4295TIP3   OH234299   3.447   3.123  16.590  0.7157 -0.2807  1.0657
 4295TIP3    H134300   3.443   3.036  16.549 -1.1119  0.4550 -0.4515
 4295TIP3    H234301   3.520   3.166  16.547  0.5864 -0.5018  0.6183
 4296TIP3   OH234302   0.966   5.217  15.863 -0.0954  0.6979  0.0190
 4296TIP3    H134303   1.008   5.299  15.837  1.9168 -0.6717 -1.3566
 4296TIP3    H234304   0.999   5.200  15.951 -1.0579  1.6717  0.5844
 4297TIP3   OH234305   6.723   0.265   5.724 -0.0105  0.3253  0.0600
 4297TIP3    H134306   6.737   0.347   5.771 -0.6049 -0.1243  1.0475
 4297TIP3    H234307   6.680   0.290   5.643  0.7368  1.0795 -0.1191
 4298TIP3   OH234308   3.697   5.530  12.120 -0.2175  0.1798 -0.0782
 4298TIP3    H134309   3.614   5.574  12.142  0.0633 -0.0496  1.5838
 4298TIP3    H234310   3.764   5.587  12.158  0.3321 -0.1485 -0.5525
 4299TIP3   OH234311   1.636   6.740   1.149  1.2449 -0.0040  0.1035
 4299TIP3    H134312   1.640   6.646   1.133  0.8364 -0.1196  0.6218
 4299TIP3    H234313   1.585   6.748   1.230 -0.2438  0.7461 -0.8538
 4300TIP3   OH234314   2.309   5.090  16.067 -0.1573 -0.3644  0.0501
 4300TIP3    H134315   2.233   5.032  16.061 -0.3943 -0.0695  0.1259
 4300TIP3    H234316   2.299   5.149  15.992 -0.2154 -0.0801  0.2780
 4301TIP3   OH234317   6.297   6.041  16.044  0.4042  0.2285 -0.0654
 4301TIP3    H134318   6.360   6.108  16.016 -1.6215  2.2235 -0.1024
 4301TIP3    H234319   6.282   5.988  15.966 -0.7174  2.0476 -1.1286
 4302TIP3   OH234320   2.534   0.165  10.665 -0.3169 -0.2451  0.1924
 4302TIP3    H134321   2.439   0.166  10.670 -0.3074 -1.4602  1.0427
 4302TIP3    H234322   2.555   0.085  10.617  0.2721  0.3121 -0.5059
 4303TIP3   OH234323   5.080   3.159  12.110  0.2838  0.1611  0.3120
 4303TIP3    H134324   5.153   3.122  12.160 -0.4682  0.1106  1.4055
 4303TIP3    H234325   5.005   3.104  12.133  0.0629 -0.3730 -1.5114
 4304TIP3   OH234326   3.228   0.739   3.721 -0.5107 -0.0714 -0.4988
 4304TIP3    H134327   3.204   0.709   3.809  0.3455 -0.2711 -0.3292
 4304TIP3    H234328   3.186   0.676   3.662  1.4269 -1.8128 -0.1492
 4305TIP3   OH234329   4.223   3.197   5.228 -0.4819 -0.4701  0.0883
 4305TIP3    H134330   4.137   3.190   5.271 -0.3684  0.2062  0.4314
 4305TIP3    H234331   4.261   3.277   5.263  0.7844 -1.3482  0.8017
 4306TIP3   OH234332   5.642   2.318  13.848  0.1119  0.2581 -0.2907
 4306TIP3    H134333   5.711   2.294  13.786  1.2145 -1.0864  1.3402
 4306TIP3    H234334   5.602   2.234  13.872  1.2672  0.3951  2.4887
 4307TIP3   OH234335   6.080   4.256  14.960 -0.3208 -0.5713 -0.4247
 4307TIP3    H134336   6.163   4.297  14.985  0.5135 -1.4922 -1.5853
 4307TIP3    H234337   6.021   4.277  15.032  0.7986  0.4533  0.2327
 4308TIP3   OH234338   1.800   0.128  13.180  0.0605  0.1825  0.0786
 4308TIP3    H134339   1.847   0.135  13.263  0.2279  0.5599 -0.0483
 4308TIP3    H234340   1.755   0.043  13.185 -0.6142  0.5779  0.9036
 4309TIP3   OH234341   3.273   6.227  11.551  0.5606 -0.4542 -0.2366
 4309TIP3    H134342   3.256   6.230  11.645  0.6895 -0.2719 -0.2195
 4309TIP3    H234343   3.197   6.270  11.511 -0.3805 -2.0809 -0.3247
 4310TIP3   OH234344   6.011   3.723   3.023 -0.2725 -0.0565  0.1739
 4310TIP3    H134345   5.974   3.638   3.046 -0.2691  0.1585  1.0055
 4310TIP3    H234346   5.949   3.787   3.059 -0.9066  0.3071 -1.4832
 4311TIP3   OH234347   3.242   0.620   4.746 -0.0382 -0.1518 -0.4327
 4311TIP3    H134348   3.254   0.714   4.731 -0.2322 -0.1908 -0.8516
 4311TIP3    H234349   3.153   0.603   4.717 -0.4620 -0.2277  0.8504
 4312TIP3   OH234350   5.737   3.690  12.176 -0.1133  0.0061 -0.0940
 4312TIP3    H134351   5.829   3.692  12.151 -0.3646  0.3132 -1.0463
 4312TIP3    H234352   5.695   3.636  12.108 -0.5256 -0.7245  0.7241
 4313TIP3   OH234353   0.852   2.663   6.157 -0.6052  0.0428  0.1459
 4313TIP3    H134354   0.787   2.645   6.090  0.3972  1.5233 -1.2885
 4313TIP3    H234355   0.803   2.659   6.240 -2.3979  0.5409 -0.8362
 4314TIP3   OH234356   4.542   0.199  11.001  0.6402  0.2703  0.4640
 4314TIP3    H134357   4.501   0.165  10.921  0.9941  1.4050 -0.2190
 4314TIP3    H234358   4.518   0.135  11.068  2.2614 -2.0000 -0.9783
 4315TIP3   OH234359   6.397   3.541   1.875 -0.4602  0.2663  0.3242
 4315TIP3    H134360   6.395   3.635   1.896  0.5090  0.2127  0.7143
 4315TIP3    H234361   6.485   3.513   1.899 -0.2238 -0.4237 -1.2427
 4316TIP3   OH234362   3.098   3.462  11.124  0.1880 -0.1253 -0.1666
 4316TIP3    H134363   3.008   3.429  11.114  0.3693 -0.1630 -2.1889
 4316TIP3    H234364   3.088   3.557  11.132 -0.0121  0.0577 -2.0481
 4317TIP3   OH234365   4.658   6.674  12.779 -0.1419  0.2480  0.0148
 4317TIP3    H134366   4.616   6.606  12.832  0.7067  0.0313  0.4294
 4317TIP3    H234367   4.586   6.721  12.739 -0.7567 -0.9366 -0.3223
 4318TIP3   OH234368   2.513   3.071   4.734  0.1012  0.3706  0.3401
 4318TIP3    H134369   2.539   3.163   4.741 -0.9900  0.8681 -1.4832
 4318TIP3    H234370   2.452   3.057   4.806 -1.3979  1.7313 -0.5941
 4319TIP3   OH234371   4.121   3.595   5.656  0.2753  0.8623 -0.0520
 4319TIP3    H134372   4.185   3.664   5.675  2.2118 -1.2439  1.4560
 4319TIP3    H234373   4.173   3.518   5.634 -1.5042 -1.5439  3.1792
 4320TIP3   OH234374   3.219   0.415  16.239 -0.0854  0.1534 -0.2021
 4320TIP3    H134375   3.281   0.480  16.206  0.5575 -0.3492  0.0089
 4320TIP3    H234376   3.271   0.337  16.255 -0.7146 -0.1812  0.2795
 4321TIP3   OH234377   0.904   2.996  14.102 -0.4107  0.0153 -0.6765
 4321TIP3    H134378   0.942   3.080  14.078 -2.8672  1.1101 -1.0474
 4321TIP3    H234379   0.828   3.018  14.156 -0.4989 -2.0405  0.1547
 4322TIP3   OH234380   1.574   1.273   5.574 -0.9505 -0.0535  0.2133
 4322TIP3    H134381   1.640   1.210   5.605 -0.3090  0.9112  0.8863
 4322TIP3    H234382   1.623   1.355   5.566 -1.8600  0.4458 -0.2712
 4323TIP3   OH234383   0.909   0.290  12.511 -0.2452  0.3129  0.0625
 4323TIP3    H134384   0.999   0.289  12.480 -0.6312  1.5159 -1.1836
 4323TIP3    H234385   0.895   0.380  12.542 -0.6427 -0.1998  1.4384
 4324TIP3   OH234386   2.301   6.264  12.227 -0.1111  0.4395 -0.2245
 4324TIP3    H134387   2.370   6.327  12.249 -0.4449  1.1872 -1.2545
 4324TIP3    H234388   2.228   6.318  12.198 -0.6751 -0.4015 -0.3987
 4325TIP3   OH234389   2.071   4.231  14.166 -0.7893 -0.3201  0.6138
 4325TIP3    H134390   2.040   4.292  14.099  0.9203  0.6064  0.6223
 4325TIP3    H234391   1.991   4.198  14.207 -1.7891  0.9646 -0.2260
 4326TIP3   OH234392   1.897   1.859   2.228  0.1407 -0.3740  0.2080
 4326TIP3    H134393   1.957   1.928   2.202  1.2151  0.0371  3.4293
 4326TIP3    H234394   1.922   1.836   2.317 -4.5084 -0.0685  1.9050
 4327TIP3   OH234395   2.823   2.528  15.375  0.0094  0.0486  0.8668
 4327TIP3    H134396   2.869   2.568  15.449  1.2132  3.7458 -1.5914
 4327TIP3    H234397   2.794   2.602  15.323 -2.3319 -2.3501 -1.5472
 4328TIP3   OH234398   4.900   3.777   4.628 -0.6077  0.1123  0.6098
 4328TIP3    H134399   4.882   3.747   4.539 -1.5307 -0.9603  1.1203
 4328TIP3    H234400   4.984   3.822   4.623 -0.3527 -0.4870 -0.6815
 4329TIP3   OH234401   1.478   1.124  17.138  0.0043  0.4730  0.0887
 4329TIP3    H134402   1.538   1.120  17.213  0.4366 -1.2552 -0.3046
 4329TIP3    H234403   1.535   1.133  17.062 -0.1582 -1.3220 -0.3032
 4330TIP3   OH234404   0.986   1.742   5.335 -0.4438 -0.3850  0.4211
 4330TIP3    H134405   1.025   1.819   5.375 -0.8713  0.1901 -0.2401
 4330TIP3    H234406   0.914   1.718   5.394  0.7609 -1.3580  1.5587
 4331TIP3   OH234407   1.743   3.315  13.091 -0.2946 -0.5097  0.3653
 4331TIP3    H134408   1.657   3.351  13.115 -0.3836  0.7498 -1.5689
 4331TIP3    H234409   1.772   3.268  13.169 -1.8094  0.7902  1.8007
 4332TIP3   OH234410   2.978   5.552  14.122  0.0889 -0.7053 -0.0712
 4332TIP3    H134411   2.996   5.590  14.036 -3.6133  0.6911 -0.4360
 4332TIP3    H234412   2.898   5.501  14.109 -2.4015  1.9194  2.9089
 4333TIP3   OH234413   6.092   6.173  14.989  0.2736 -0.2740  0.7404
 4333TIP3    H134414   6.181   6.136  14.981  1.0344  1.6177 -0.1358
 4333TIP3    H234415   6.106   6.267  15.001 -1.6315  0.2001 -0.3733
 4334TIP3   OH234416   2.367   3.157  15.312  0.4667  0.0322  0.6957
 4334TIP3    H134417   2.413   3.219  15.255 -0.5241 -0.0305 -0.2027
 4334TIP3    H234418   2.398   3.178  15.400  0.7800  1.2528  0.3129
 4335TIP3   OH234419   5.381   3.687  16.881 -0.6046 -0.1235  0.0869
 4335TIP3    H134420   5.347   3.761  16.830 -0.4075 -0.7306 -0.9390
 4335TIP3    H234421   5.345   3.701  16.969  0.5281  1.9352  0.2965
 4336TIP3   OH234422   5.007   0.818  16.494 -0.1945  0.6776  0.0923
 4336TIP3    H134423   4.972   0.822  16.405 -0.2995  1.4274  0.1601
 4336TIP3    H234424   4.941   0.863  16.548 -2.4513 -3.6201  1.3303
 4337TIP3   OH234425   4.955   4.858  15.505  0.4339  0.2461 -0.3088
 4337TIP3    H134426   4.967   4.910  15.427  2.8069 -0.1366 -0.2657
 4337TIP3    H234427   4.982   4.770  15.480  3.1939  0.4889  1.3436
 4338TIP3   OH234428   2.330   6.302   5.517 -0.4051 -0.1284 -0.4742
 4338TIP3    H134429   2.378   6.368   5.568  0.0081 -0.3542 -0.5693
 4338TIP3    H234430   2.274   6.354   5.459 -0.9240  0.1345  0.2369
 4339TIP3   OH234431   5.125   2.382  15.634  0.1902  0.2487  0.1855
 4339TIP3    H134432   5.191   2.314  15.643  0.6467  0.6619 -0.0083
 4339TIP3    H234433   5.112   2.415  15.724 -0.7591 -0.7561  0.4385
 4340TIP3   OH234434   0.066   4.604   1.530 -0.4050 -0.4415  0.1594
 4340TIP3    H134435   0.154   4.568   1.538 -0.5873 -0.8423  0.3845
 4340TIP3    H234436   0.052   4.651   1.612 -0.2192  0.0332 -0.0775
 4341TIP3   OH234437   2.275   5.247  16.301 -0.1569 -0.1905  0.6418
 4341TIP3    H134438   2.296   5.193  16.225 -2.0141  0.3022 -0.2871
 4341TIP3    H234439   2.280   5.187  16.375 -0.5121 -1.2487 -0.1649
 4342TIP3   OH234440   2.354   5.426   2.427  0.1624  0.4718 -0.4448
 4342TIP3    H134441   2.414   5.474   2.369  0.4536  1.1652  0.4054
 4342TIP3    H234442   2.364   5.335   2.401  0.5370  0.7298 -1.2635
 4343TIP3   OH234443   2.411   5.139  15.639 -0.1156 -1.0767 -0.5712
 4343TIP3    H134444   2.450   5.054  15.621  0.9639 -1.1743  1.8056
 4343TIP3    H234445   2.317   5.121  15.649 -0.0784 -1.7341 -1.3171
 4344TIP3   OH234446   3.149   4.706   4.392  0.3524 -0.0055 -0.0756
 4344TIP3    H134447   3.130   4.622   4.434 -0.3258  0.9551  1.6194
 4344TIP3    H234448   3.238   4.695   4.358  0.7699 -0.9985  1.2397
 4345TIP3   OH234449   5.879   5.595   3.932 -0.1778 -0.4593 -0.3539
 4345TIP3    H134450   5.907   5.625   3.846 -0.7652 -1.1522 -0.7861
 4345TIP3    H234451   5.791   5.633   3.943  0.1014  0.0505  0.1564
 4346TIP3   OH234452   6.067   3.749  15.686  0.3134  0.4335 -0.6533
 4346TIP3    H134453   6.073   3.807  15.610  1.6765  1.4407  0.1923
 4346TIP3    H234454   6.126   3.677  15.665  1.0205  0.9271 -0.3772
 4347TIP3   OH234455   0.461   5.874   3.784 -0.1911 -0.0795  0.6648
 4347TIP3    H134456   0.407   5.824   3.846 -2.6319 -1.2287 -2.1165
 4347TIP3    H234457   0.431   5.964   3.794 -0.5545 -0.2545  1.2014
 4348TIP3   OH234458   2.877   3.310   0.461 -0.8048  0.0993  0.2098
 4348TIP3    H134459   2.967   3.330   0.435 -0.5339 -0.5282  0.6367
 4348TIP3    H234460   2.825   3.328   0.383 -0.0792 -1.2147 -0.6102
 4349TIP3   OH234461   1.382   6.696   0.126  0.0416 -0.1714  0.7437
 4349TIP3    H134462   1.447   6.693   0.055  0.0128  1.0537  0.6383
 4349TIP3    H234463   1.417   6.638   0.193  1.5940  0.9260  0.9404
 4350TIP3   OH234464   5.237   4.988  13.368 -0.0318 -0.0359 -0.4375
 4350TIP3    H134465   5.209   5.059  13.310  0.6808  0.4489 -0.1992
 4350TIP3    H234466   5.328   5.009  13.389 -0.4372  0.0721  1.2855
 4351TIP3   OH234467   0.447   0.300  17.446 -0.3330 -0.4693  0.0079
 4351TIP3    H134468   0.355   0.283  17.424 -0.6823  1.8897 -0.6769
 4351TIP3    H234469   0.496   0.229  17.403 -1.7289 -1.0322 -0.7105
 4352TIP3   OH234470   1.714   0.439   0.936 -0.5898 -0.7784 -0.5947
 4352TIP3    H134471   1.621   0.425   0.954 -0.0836 -3.3242  0.3721
 4352TIP3    H234472   1.759   0.372   0.987  1.7779  0.1093 -1.3841
 4353TIP3   OH234473   0.672   4.952   1.489  0.6556 -0.0341  0.0333
 4353TIP3    H134474   0.589   4.988   1.519  1.8723  2.7527  0.4083
 4353TIP3    H234475   0.660   4.938   1.395 -0.1492  0.6413  0.0239
 4354TIP3   OH234476   5.687   2.574  11.218  0.3033 -0.0072 -0.0272
 4354TIP3    H134477   5.667   2.629  11.142 -0.7921 -1.4577 -0.8552
 4354TIP3    H234478   5.780   2.554  11.208  0.0225 -0.7491 -1.4243
 4355TIP3   OH234479   3.090   0.703   2.872  0.2161  0.2118 -0.0284
 4355TIP3    H134480   3.087   0.662   2.958  0.8000  2.1446  0.9712
 4355TIP3    H234481   3.183   0.719   2.855  0.2410 -1.2765 -1.6398
 4356TIP3   OH234482   4.067   4.801  15.564  0.2357 -0.2054 -0.2828
 4356TIP3    H134483   4.043   4.708  15.567  0.2595 -0.2754 -1.8752
 4356TIP3    H234484   3.983   4.847  15.565  0.2277 -0.1543  1.6691
 4357TIP3   OH234485   3.086   3.845   2.971 -0.1902 -0.2901 -0.0910
 4357TIP3    H134486   3.124   3.840   2.884 -0.4579 -0.7374 -0.1845
 4357TIP3    H234487   3.101   3.935   2.999  1.4650 -0.5890  0.1093
 4358TIP3   OH234488   5.075   5.000   4.699  0.5598  0.1448 -0.4214
 4358TIP3    H134489   5.158   4.972   4.660  1.0689  2.3724 -1.1253
 4358TIP3    H234490   5.041   5.065   4.637 -0.6512  0.8069  0.8987
 4359TIP3   OH234491   0.684   3.595  15.511  0.0955 -0.2782 -0.6127
 4359TIP3    H134492   0.715   3.570  15.424  1.8014 -1.0890  0.1638
 4359TIP3    H234493   0.758   3.573  15.569 -1.2378 -0.3946  1.1160
 4360TIP3   OH234494   4.312   0.663   4.943 -0.0321 -0.1951  0.4177
 4360TIP3    H134495   4.380   0.606   4.980 -2.2278 -2.7239  0.8662
 4360TIP3    H234496   4.284   0.618   4.864 -0.7193  1.1652 -0.1351
 4361TIP3   OH234497   3.798   0.060  14.525  0.5611  0.0975  0.6316
 4361TIP3    H134498   3.856   0.135  14.511  0.6265  0.1451  1.1362
 4361TIP3    H234499   3.811   0.036  14.617  1.5244 -1.3615  0.1454
 4362TIP3   OH234500   5.242   0.131   0.973 -0.4713  0.3814  0.1957
 4362TIP3    H134501   5.170   0.074   0.998 -0.6191  0.7805  0.7040
 4362TIP3    H234502   5.200   0.199   0.919 -0.6976  1.2914  1.4757
 4363TIP3   OH234503   3.095   3.696   6.552  0.9502 -0.6205 -0.5112
 4363TIP3    H134504   3.080   3.785   6.583  1.0720  0.3043 -2.8806
 4363TIP3    H234505   3.011   3.652   6.566 -0.4864  1.0799 -2.8940
 4364TIP3   OH234506   3.183   1.332  12.572  0.1280 -0.1241 -0.3007
 4364TIP3    H134507   3.167   1.254  12.625  0.3004 -0.7720 -1.1718
 4364TIP3    H234508   3.250   1.380  12.620  0.8986 -1.1241 -0.3458
 4365TIP3   OH234509   2.107   5.818  11.976 -0.0951 -0.2598 -0.1517
 4365TIP3    H134510   2.169   5.754  12.011 -0.4188  0.2907  1.5288
 4365TIP3    H234511   2.148   5.903  11.992 -1.0469  0.0887  0.5181
 4366TIP3   OH234512   3.096   0.436   3.023  0.7007  0.2506  0.5775
 4366TIP3    H134513   3.170   0.460   2.967  0.3861 -3.2650 -1.6450
 4366TIP3    H234514   3.020   0.440   2.965  0.2866 -3.0843  0.7236
 4367TIP3   OH234515   0.467   0.481  11.004  0.3238 -0.7332 -0.3002
 4367TIP3    H134516   0.460   0.523  10.918  2.3476  0.9687  0.2888
 4367TIP3    H234517   0.390   0.512  11.052  0.2264 -0.0662 -0.8607
 4368TIP3   OH234518   4.170   5.580  13.470  0.4516  0.0293 -0.2152
 4368TIP3    H134519   4.258   5.544  13.456  0.0854 -0.5722 -1.0038
 4368TIP3    H234520   4.178   5.673  13.446  0.6406 -0.2445 -1.2404
 4369TIP3   OH234521   6.122   5.470   3.736 -0.8494 -0.5695  0.4263
 4369TIP3    H134522   6.101   5.442   3.648 -0.2261 -0.8709  0.3633
 4369TIP3    H234523   6.092   5.560   3.741  0.2080 -0.1402 -0.5074
 4370TIP3   OH234524   3.561   0.930   3.012 -0.1089 -0.7013 -0.0888
 4370TIP3    H134525   3.531   0.961   2.927 -2.2448 -2.9762 -0.2812
 4370TIP3    H234526   3.481   0.923   3.065  0.9300 -1.0408  1.5196
 4371TIP3   OH234527   2.555   5.540   5.258 -0.6957  0.6646  0.0919
 4371TIP3    H134528   2.609   5.617   5.241  0.6054 -0.0244  0.8584
 4371TIP3    H234529   2.529   5.508   5.172 -1.6082  2.1817 -0.2161
 4372TIP3   OH234530   3.065   4.185  13.055 -0.1332  0.2599  0.2217
 4372TIP3    H134531   3.148   4.159  13.096  0.0451  1.3843  0.6051
 4372TIP3    H234532   2.998   4.160  13.118 -0.1366 -0.9801 -0.2418
 4373TIP3   OH234533   1.153   5.316  15.576  0.2580  0.7785 -0.0441
 4373TIP3    H134534   1.221   5.360  15.525  1.1899  0.3665  0.8102
 4373TIP3    H234535   1.154   5.358  15.661 -0.9977  1.1713 -0.1959
 4374TIP3   OH234536   1.356   2.232  15.436 -0.2059  0.3188 -0.2227
 4374TIP3    H134537   1.435   2.276  15.405 -0.6200  2.3337  1.4109
 4374TIP3    H234538   1.384   2.185  15.514 -0.5678  0.8850  0.2536
 4375TIP3   OH234539   3.455   0.114  15.756  0.1915  0.8247 -0.2789
 4375TIP3    H134540   3.510   0.057  15.703  1.0886  0.8754  0.5653
 4375TIP3    H234541   3.370   0.070  15.759  0.6623 -0.1037 -0.2313
 4376TIP3   OH234542   6.512   3.679  12.906 -0.0601  0.0701  0.1908
 4376TIP3    H134543   6.498   3.591  12.940  1.5100  0.2503  1.4232
 4376TIP3    H234544   6.425   3.707  12.875 -0.4769 -2.0666 -0.7281
 4377TIP3   OH234545   5.757   2.135  13.312  0.3685 -0.2416 -0.2075
 4377TIP3    H134546   5.823   2.080  13.353  0.7974  1.5556  1.6891
 4377TIP3    H234547   5.806   2.212  13.281 -0.6005  0.4595 -0.0542
 4378TIP3   OH234548   5.439   0.972   5.670  0.0173 -0.0867 -0.4156
 4378TIP3    H134549   5.474   1.061   5.670 -0.2497  0.0367  0.4120
 4378TIP3    H234550   5.400   0.962   5.757 -1.9831 -0.2065 -1.2593
 4379TIP3   OH234551   4.522   6.303   4.323  0.0142  0.4513  0.3170
 4379TIP3    H134552   4.452   6.288   4.386 -0.2227  1.4447  0.3027
 4379TIP3    H234553   4.495   6.382   4.275  0.4362  0.0144 -0.6773
 4380TIP3   OH234554   2.681   1.159  16.919  0.3131 -0.6841  0.9590
 4380TIP3    H134555   2.589   1.167  16.893 -0.3716  0.6083  3.4352
 4380TIP3    H234556   2.700   1.240  16.966  2.3149 -1.5121  1.7115
 4381TIP3   OH234557   1.690   6.693  16.409  0.2342 -0.1658 -0.4578
 4381TIP3    H134558   1.635   6.615  16.402  0.2825 -0.6311  2.8740
 4381TIP3    H234559   1.628   6.766  16.416  0.0277 -0.4687  1.2178
 4382TIP3   OH234560   6.228   0.348  11.986  0.6162  0.2202 -0.5923
 4382TIP3    H134561   6.132   0.357  11.982  0.2681 -0.8731  2.4624
 4382TIP3    H234562   6.247   0.346  12.080  3.4253 -1.7444 -1.1032
 4383TIP3   OH234563   2.401   2.127  15.383 -0.1378  0.1294 -0.0206
 4383TIP3    H134564   2.410   2.210  15.430  0.1199  0.7612 -1.1499
 4383TIP3    H234565   2.409   2.151  15.291  1.7579 -1.3873 -0.2988
 4384TIP3   OH234566   2.797   0.706  11.733  0.0687 -0.5426 -0.0173
 4384TIP3    H134567   2.723   0.705  11.673  1.0173  0.7526 -1.3085
 4384TIP3    H234568   2.805   0.616  11.765 -1.2425 -0.9781 -0.8698
 4385TIP3   OH234569   4.014   2.095   4.040 -0.1088 -0.3795 -0.1284
 4385TIP3    H134570   4.096   2.143   4.052 -1.2096  1.9439 -1.2954
 4385TIP3    H234571   4.040   2.014   3.996  1.7195 -0.5641  1.1795
 4386TIP3   OH234572   6.231   3.123   1.412  0.1800 -0.1948 -0.7358
 4386TIP3    H134573   6.162   3.138   1.475 -0.5851  0.1060 -1.6237
 4386TIP3    H234574   6.303   3.086   1.463 -0.9177 -1.2815  0.0747
 4387TIP3   OH234575   3.974   6.039  16.553 -0.1440  0.3423  0.4127
 4387TIP3    H134576   3.976   5.966  16.491  0.1418  2.0959 -1.7941
 4387TIP3    H234577   3.956   6.116  16.498 -0.6727  1.9146  2.6496
 4388TIP3   OH234578   1.953   3.158   1.048  0.2623 -0.0119  0.1962
 4388TIP3    H134579   1.863   3.130   1.065  0.3942 -0.1460  0.7179
 4388TIP3    H234580   1.975   3.213   1.124  0.4404  0.4510 -0.1884
 4389TIP3   OH234581   4.662   2.303  15.646 -0.3525 -0.4182  0.9170
 4389TIP3    H134582   4.743   2.338  15.609 -0.5225 -1.0135 -0.0787
 4389TIP3    H234583   4.669   2.318  15.740  0.4272  0.5086  0.7193
 4390TIP3   OH234584   1.978   3.163   1.783 -0.2541  0.1005  0.0832
 4390TIP3    H134585   2.041   3.120   1.842 -0.8317  0.5400  1.0446
 4390TIP3    H234586   1.961   3.099   1.714  0.7020 -0.2933  0.1963
 4391TIP3   OH234587   1.597   5.181  15.680 -0.5932 -0.0559  0.2173
 4391TIP3    H134588   1.674   5.184  15.623 -1.0412 -2.4777 -0.6127
 4391TIP3    H234589   1.523   5.188  15.621 -1.0555  0.2279  0.8141
 4392TIP3   OH234590   1.167   4.955  11.277 -0.8620 -0.8061 -0.1942
 4392TIP3    H134591   1.084   4.953  11.325  0.0891  0.1381  1.5804
 4392TIP3    H234592   1.187   5.048  11.266  0.7295 -0.9961  0.8279
 4393TIP3   OH234593   0.734   4.053  16.100 -0.2536  0.0527  0.0555
 4393TIP3    H134594   0.760   4.129  16.154 -1.6968 -0.4345  1.5143
 4393TIP3    H234595   0.702   3.989  16.163 -0.2208 -1.3128 -1.2657
 4394TIP3   OH234596   0.144   4.908   0.722 -1.0922 -0.3472  0.3175
 4394TIP3    H134597   0.101   4.955   0.650  2.2351  2.2843 -0.2127
 4394TIP3    H234598   0.208   4.852   0.678  1.3750  1.7094  1.0558
 4395TIP3   OH234599   5.743   0.473   3.588 -0.0606  0.2058  0.1267
 4395TIP3    H134600   5.789   0.496   3.507  1.6997  0.4725  1.1327
 4395TIP3    H234601   5.653   0.502   3.574  0.2104  0.3118 -1.6924
 4396TIP3   OH234602   5.251   3.275  11.284 -0.0274 -0.4057 -0.0666
 4396TIP3    H134603   5.269   3.221  11.207  1.6387 -0.4910  0.3494
 4396TIP3    H234604   5.243   3.213  11.356  0.5860 -0.1856  0.1919
 4397TIP3   OH234605   6.627   5.119  11.575 -0.6967 -0.2713  0.4922
 4397TIP3    H134606   6.601   5.144  11.664 -0.3616 -0.3722  0.6178
 4397TIP3    H234607   6.572   5.043  11.555 -0.9131 -0.1274  0.5378
 4398TIP3   OH234608   0.970   0.508   6.435 -0.3865 -0.2364 -0.1544
 4398TIP3    H134609   0.926   0.432   6.397  0.7094 -0.2466 -1.4901
 4398TIP3    H234610   1.010   0.475   6.516  2.6642 -2.0157 -2.1744
 4399TIP3   OH234611   6.110   3.796   1.574  0.7574  0.0523 -0.5676
 4399TIP3    H134612   6.137   3.843   1.653  2.3995 -0.6612 -0.6484
 4399TIP3    H234613   6.089   3.864   1.510  0.1768  0.6365  0.2242
 4400TIP3   OH234614   1.892   5.296  14.864  0.3048 -0.2571  0.5966
 4400TIP3    H134615   1.980   5.322  14.893  0.1181  0.0101  0.9385
 4400TIP3    H234616   1.907   5.223  14.805  0.6816 -1.1489  1.7474
 4401TIP3   OH234617   6.096   1.397  11.676  0.7008  0.7126  0.2821
 4401TIP3    H134618   6.075   1.329  11.740  1.2267 -0.7351 -1.0130
 4401TIP3    H234619   6.189   1.413  11.687  1.0319 -0.3385 -0.8141
 4402TIP3   OH234620   4.598   4.184  15.917 -0.0067 -0.0028 -0.2652
 4402TIP3    H134621   4.542   4.212  15.845 -1.5178 -1.5708  0.2085
 4402TIP3    H234622   4.590   4.253  15.983 -2.7963 -0.8779  0.4646
 4403TIP3   OH234623   4.213   6.509   4.510  0.7273 -0.2431 -0.3474
 4403TIP3    H134624   4.229   6.594   4.552 -0.3861  0.0142 -0.4071
 4403TIP3    H234625   4.243   6.520   4.420  2.0339 -0.4212  0.0469
 4404TIP3   OH234626   1.346   4.485   2.296 -0.2905 -0.0908  0.2944
 4404TIP3    H134627   1.406   4.477   2.222 -0.5158  0.7734  0.0061
 4404TIP3    H234628   1.390   4.544   2.357 -1.4068  1.6739 -0.5356
 4405TIP3   OH234629   0.787   0.254  17.466  0.3616  0.4005 -0.0077
 4405TIP3    H134630   0.854   0.209  17.518  1.1217  0.8536 -0.5830
 4405TIP3    H234631   0.737   0.184  17.425 -0.1729  0.0382  1.2335
 4406TIP3   OH234632   4.679   4.074  15.270  0.2627  0.3010  0.3585
 4406TIP3    H134633   4.705   3.984  15.252  0.2308  0.0946  1.2995
 4406TIP3    H234634   4.744   4.127  15.224  0.0261 -0.1879 -0.5727
 4407TIP3   OH234635   0.393   0.182  14.838  0.5820  0.1623  0.4240
 4407TIP3    H134636   0.348   0.165  14.755  0.3783  0.4371  0.4773
 4407TIP3    H234637   0.322   0.198  14.900  0.6285 -1.8819  1.0879
 4408TIP3   OH234638   6.247   5.365   1.983  0.4618 -0.3301 -0.2407
 4408TIP3    H134639   6.317   5.398   1.926 -1.4573  1.7077 -1.5905
 4408TIP3    H234640   6.285   5.365   2.070  1.6535  2.5249 -0.6451
 4409TIP3   OH234641   3.721   1.219   6.783  0.1422  0.6992  0.0821
 4409TIP3    H134642   3.665   1.280   6.734  2.4599  2.2162 -0.8630
 4409TIP3    H234643   3.791   1.197   6.722  0.5039 -1.3126  1.1397
 4410TIP3   OH234644   1.789   1.029   0.908  0.4588  0.5775  0.9084
 4410TIP3    H134645   1.725   0.960   0.925  0.9667 -0.4837 -1.1916
 4410TIP3    H234646   1.821   1.054   0.995 -0.9016 -0.6845  1.8145
 4411TIP3   OH234647   5.475   2.891   0.660  0.0727  0.0115 -0.1420
 4411TIP3    H134648   5.440   2.943   0.589  0.5639  0.7954  0.1743
 4411TIP3    H234649   5.398   2.855   0.704 -0.2364 -0.3764 -0.9816
 4412TIP3   OH234650   6.635   3.471   5.078  0.1563  0.0833  0.3722
 4412TIP3    H134651   6.694   3.508   5.012  0.9754  1.0184  1.5777
 4412TIP3    H234652   6.586   3.546   5.112 -0.0743 -0.3321  0.9867
 4413TIP3   OH234653   6.390   1.144   1.421 -0.1510  0.4081  0.1249
 4413TIP3    H134654   6.356   1.233   1.417  0.3177  0.5783 -0.1866
 4413TIP3    H234655   6.324   1.095   1.469 -0.5978  0.8370 -0.0460
 4414TIP3   OH234656   3.929   0.448  17.076  0.0971  0.0766  0.2247
 4414TIP3    H134657   3.955   0.372  17.023 -0.4502 -0.5296  0.7953
 4414TIP3    H234658   3.847   0.420  17.117  0.5961  0.4529  1.5304
 4415TIP3   OH234659   1.345   4.477  11.680  0.6713  0.0114 -0.2080
 4415TIP3    H134660   1.375   4.386  11.677  2.8497  0.5960  1.3297
 4415TIP3    H234661   1.252   4.472  11.658  0.7555 -2.5588 -0.3226
 4416TIP3   OH234662   4.003   1.254  13.582 -0.2128 -0.2561  0.1864
 4416TIP3    H134663   4.028   1.244  13.674  0.8592 -1.4958 -0.2073
 4416TIP3    H234664   3.945   1.329  13.581  0.3883  0.2712  1.7648
 4417TIP3   OH234665   3.493   6.312  12.614  0.2718 -0.5706 -0.0446
 4417TIP3    H134666   3.579   6.307  12.656 -0.0349  0.5628  0.7575
 4417TIP3    H234667   3.474   6.222  12.587  2.9458 -0.5046 -2.7854
 4418TIP3   OH234668   2.008   5.973   3.490 -0.6301  0.1530 -0.8161
 4418TIP3    H134669   2.039   5.973   3.580 -0.2498  0.4254 -0.9471
 4418TIP3    H234670   1.918   6.006   3.496 -1.5992 -2.3362 -0.2121
 4419TIP3   OH234671   2.440   5.230   3.753 -0.1033  0.4848 -0.2103
 4419TIP3    H134672   2.423   5.213   3.660 -1.4660 -1.6415  0.3501
 4419TIP3    H234673   2.535   5.243   3.758  0.1524 -0.4984 -1.7455
 4420TIP3   OH234674   6.605   3.989   2.826 -0.3918 -0.2725 -0.0365
 4420TIP3    H134675   6.665   3.948   2.888 -0.2717 -1.6656 -1.0359
 4420TIP3    H234676   6.597   3.926   2.754  0.0018  1.5327 -1.7772
 4421TIP3   OH234677   5.687   2.234   0.206 -0.3142  0.0705 -0.0131
 4421TIP3    H134678   5.644   2.210   0.288  1.3750 -0.9906  0.6180
 4421TIP3    H234679   5.731   2.317   0.224 -0.1378 -0.0445  0.0885
 4422TIP3   OH234680   3.168   2.785   3.706  0.0276 -0.0668 -0.1626
 4422TIP3    H134681   3.121   2.710   3.668 -0.8600  0.2762  0.2290
 4422TIP3    H234682   3.258   2.774   3.676 -0.3750 -0.5245 -1.2698
 4423TIP3   OH234683   1.284   6.262  12.410 -0.2120 -0.0456 -0.2792
 4423TIP3    H134684   1.276   6.186  12.352  1.4766 -1.0789  0.7781
 4423TIP3    H234685   1.375   6.288  12.404 -0.4026  0.9053  0.6156
 4424TIP3   OH234686   3.152   1.373   4.226  0.6448 -0.5723  0.0035
 4424TIP3    H134687   3.063   1.348   4.253  0.1650 -1.4837 -2.1689
 4424TIP3    H234688   3.209   1.332   4.291 -0.5050  1.2653  2.3224
 4425TIP3   OH234689   0.208   3.858   0.714  0.2547 -0.2390  0.1109
 4425TIP3    H134690   0.166   3.803   0.649 -1.1786  0.9138  0.0106
 4425TIP3    H234691   0.169   3.831   0.797  0.3664 -0.1405  0.1961
 4426TIP3   OH234692   5.870   1.542   0.210  0.2120 -0.1823  0.0167
 4426TIP3    H134693   5.787   1.496   0.196 -0.0136  0.2923 -0.2389
 4426TIP3    H234694   5.885   1.590   0.128  1.1654 -0.9153 -0.2698
 4427TIP3   OH234695   4.776   1.036   1.346 -0.2576  0.1219  0.5912
 4427TIP3    H134696   4.789   0.991   1.263  1.1393  3.1426 -0.9929
 4427TIP3    H234697   4.686   1.070   1.342 -0.3613 -0.1568  0.5472
 4428TIP3   OH234698   6.147   1.951  13.688 -0.2924  0.5824  0.2297
 4428TIP3    H134699   6.084   1.988  13.751  0.2830  0.4311  0.9059
 4428TIP3    H234700   6.173   1.868  13.727  1.7905  1.5144  0.9412
 4429TIP3   OH234701   5.037   1.287   4.753 -0.3027 -0.7056 -0.1339
 4429TIP3    H134702   5.068   1.200   4.779  1.0734 -0.7265 -1.6669
 4429TIP3    H234703   4.959   1.270   4.700 -0.1833 -0.9892 -0.2211
 4430TIP3   OH234704   2.370   4.629   1.405  0.2904 -0.1436  0.4138
 4430TIP3    H134705   2.354   4.584   1.322  1.8006  0.1782 -0.0771
 4430TIP3    H234706   2.443   4.689   1.387 -0.2134  0.8873  1.6360
 4431TIP3   OH234707   0.308   3.749   4.681  0.3258  0.2411 -0.1045
 4431TIP3    H134708   0.311   3.659   4.714  0.6767 -0.1240 -1.0899
 4431TIP3    H234709   0.216   3.775   4.687  0.1274 -0.3936 -0.3595
 4432TIP3   OH234710   0.244   0.389   2.999  0.3928 -0.0661 -0.2499
 4432TIP3    H134711   0.305   0.388   3.073  1.4944  1.0857 -1.0910
 4432TIP3    H234712   0.158   0.388   3.040  0.9658 -0.1499  1.0287
 4433TIP3   OH234713   6.657   3.466   1.924  1.1953 -1.1770  0.1955
 4433TIP3    H134714   6.729   3.465   1.986  1.4756 -1.6605 -0.1244
 4433TIP3    H234715   6.675   3.541   1.867  0.1899  0.1182  1.5319
 4434TIP3   OH234716   3.336   2.123  11.287 -0.4471  0.0283  0.0017
 4434TIP3    H134717   3.353   2.040  11.243 -0.4284  0.7270 -1.3622
 4434TIP3    H234718   3.330   2.187  11.216 -2.9504  0.7991  0.8186
 4435TIP3   OH234719   2.724   3.677   2.237 -0.5413 -0.8436 -0.3449
 4435TIP3    H134720   2.688   3.725   2.312  0.4232 -0.8051  0.1085
 4435TIP3    H234721   2.685   3.718   2.161  0.3873  0.8101  0.0180
 4436TIP3   OH234722   4.418   0.692  15.969  0.0995  0.0693 -0.2181
 4436TIP3    H134723   4.343   0.675  15.912 -0.0047  0.1518 -0.1082
 4436TIP3    H234724   4.428   0.787  15.968  0.5696  0.0182 -0.6927
 4437TIP3   OH234725   5.962   1.024   4.951 -0.0421 -0.2763  0.2306
 4437TIP3    H134726   5.946   0.943   4.999 -0.7133 -0.1992  0.1450
 4437TIP3    H234727   6.047   1.055   4.983 -0.4938 -0.1959  1.4085
 4438TIP3   OH234728   6.090   1.142  14.993 -0.3071  0.2707  0.5110
 4438TIP3    H134729   6.036   1.220  14.977  0.7112  0.6479 -1.2854
 4438TIP3    H234730   6.177   1.176  15.013  0.1753 -0.3804 -0.3984
 4439TIP3   OH234731   0.190   1.212   1.970  0.2915 -0.0269 -0.1632
 4439TIP3    H134732   0.201   1.217   2.065 -0.1981 -0.3415 -0.0864
 4439TIP3    H234733   0.104   1.173   1.958  0.1598  0.4240 -0.7397
 4440TIP3   OH234734   5.292   6.006   4.133  0.7145  0.0674  0.2221
 4440TIP3    H134735   5.232   5.948   4.181  0.8157  1.7650  2.5306
 4440TIP3    H234736   5.241   6.085   4.117  1.5888  0.5858 -0.0147
 4441TIP3   OH234737   3.869   3.589   0.542  0.9668 -0.2384  0.2285
 4441TIP3    H134738   3.858   3.513   0.599  0.5265  1.3550  2.3696
 4441TIP3    H234739   3.888   3.551   0.456  1.3048 -2.7462  1.3169
 4442TIP3   OH234740   0.192   0.747  11.478 -0.5858 -0.1500 -0.0861
 4442TIP3    H134741   0.234   0.746  11.392 -3.1402  0.1272 -1.4218
 4442TIP3    H234742   0.165   0.838  11.491 -0.1995 -0.1842  1.0449
 4443TIP3   OH234743   5.010   6.463   5.706 -0.0503 -0.1480 -0.3841
 4443TIP3    H134744   5.012   6.519   5.783  1.3786 -2.7815  1.6492
 4443TIP3    H234745   4.931   6.410   5.717  0.8093 -1.3949 -0.0001
 4444TIP3   OH234746   6.006   0.215  17.464  0.1595 -0.2107  0.3532
 4444TIP3    H134747   6.015   0.127  17.426  1.4820  0.2151 -0.3634
 4444TIP3    H234748   6.083   0.225  17.520 -0.9493 -0.2086  1.9646
 4445TIP3   OH234749   2.086   0.084  12.965 -0.6671  0.4978 -1.1416
 4445TIP3    H134750   2.084  -0.004  13.003 -1.3436  2.0075  2.8592
 4445TIP3    H234751   1.995   0.102  12.941 -1.4232  1.4306  1.9655
 4446TIP3   OH234752   6.620   3.466   6.365 -0.1702 -0.2904  0.1116
 4446TIP3    H134753   6.662   3.552   6.361  0.2841 -0.3128  2.7752
 4446TIP3    H234754   6.532   3.482   6.329  0.7277  0.6436 -1.8334
 4447TIP3   OH234755   1.695   3.884   1.127 -0.6354  0.0444  0.4567
 4447TIP3    H134756   1.603   3.895   1.149 -0.4749 -0.3726  1.3537
 4447TIP3    H234757   1.729   3.973   1.117 -1.1216  0.1972  0.1378
 4448TIP3   OH234758   3.402   3.603   3.230  0.1936  0.0842 -0.2409
 4448TIP3    H134759   3.423   3.667   3.298  0.3677  1.1216 -1.2401
 4448TIP3    H234760   3.370   3.526   3.278  0.4959  0.7161  1.0079
 4449TIP3   OH234761   1.172   4.162   3.321  0.2567 -0.2717 -0.0673
 4449TIP3    H134762   1.230   4.181   3.248  1.0590 -1.1232  0.3336
 4449TIP3    H234763   1.161   4.246   3.366 -0.9288  0.4461 -1.6208
 4450TIP3   OH234764   4.342   3.165  11.943  0.6344  0.0284 -0.1945
 4450TIP3    H134765   4.404   3.178  12.015  0.7173 -0.8151 -0.0967
 4450TIP3    H234766   4.263   3.131  11.985  1.0387 -1.4885 -0.5786
 4451TIP3   OH234767   1.373   4.900  10.678  0.1050 -0.8733 -0.3452
 4451TIP3    H134768   1.377   4.814  10.720  1.8100 -1.0715 -0.8109
 4451TIP3    H234769   1.406   4.960  10.745 -2.3948 -0.3202  0.4737
 4452TIP3   OH234770   5.521   4.721  15.283 -0.3079 -0.3120 -0.4053
 4452TIP3    H134771   5.473   4.749  15.205 -0.0490 -0.6960 -0.7067
 4452TIP3    H234772   5.466   4.652  15.321 -0.6098  0.1208 -0.0427
 4453TIP3   OH234773   4.970   0.440   5.393  0.2853  0.3035 -0.2784
 4453TIP3    H134774   4.938   0.445   5.483  0.3823 -0.3984 -0.1927
 4453TIP3    H234775   5.028   0.515   5.384 -0.2667  0.7708  0.0207
 4454TIP3   OH234776   5.707   0.885  11.430 -0.0433  0.0966 -0.0735
 4454TIP3    H134777   5.665   0.870  11.515  0.1621  2.3107  0.4909
 4454TIP3    H234778   5.715   0.981  11.424  1.5512 -0.0864 -1.8125
 4455TIP3   OH234779   5.244   1.250  12.987  0.1369  0.0758 -0.3661
 4455TIP3    H134780   5.329   1.281  13.017  0.8917 -2.2431  0.1328
 4455TIP3    H234781   5.261   1.219  12.898  0.0763 -1.2144  0.0493
 4456TIP3   OH234782   0.260   0.955  16.786  0.0786  0.0650 -0.2981
 4456TIP3    H134783   0.207   0.876  16.792  0.0638  0.1587  0.9890
 4456TIP3    H234784   0.318   0.952  16.862 -0.4810  1.6819  0.2328
 4457TIP3   OH234785   1.866   5.377   2.269  0.1728 -0.1022 -0.8701
 4457TIP3    H134786   1.799   5.328   2.317 -2.0261  3.5249  0.1575
 4457TIP3    H234787   1.935   5.391   2.334 -0.6453  0.7957 -0.1689
 4458TIP3   OH234788   2.066   4.462  12.947  0.3058 -0.2752  0.0642
 4458TIP3    H134789   1.988   4.479  12.893 -0.3612  1.3945  1.4692
 4458TIP3    H234790   2.110   4.547  12.953  1.0781 -0.7301  1.0394
 4459TIP3   OH234791   5.381   5.855  16.968  0.3135  0.1697 -0.2795
 4459TIP3    H134792   5.397   5.883  17.058  1.4252  1.6491 -0.8900
 4459TIP3    H234793   5.456   5.801  16.945 -0.4370 -1.0060 -0.0301
 4460TIP3   OH234794   1.914   6.586   1.351 -1.0612  0.3253 -0.0818
 4460TIP3    H134795   1.992   6.533   1.334 -1.7909 -0.5742 -0.7045
 4460TIP3    H234796   1.917   6.655   1.285  0.2580  1.5188  1.1609
 4461TIP3   OH234797   2.329   3.461  12.800 -0.4432 -1.1593 -0.1348
 4461TIP3    H134798   2.349   3.450  12.893  1.6608 -1.8576 -0.6278
 4461TIP3    H234799   2.409   3.435  12.755 -1.5794 -1.2786 -2.1782
 4462TIP3   OH234800   4.972   4.385   5.491 -0.0951 -0.1875  0.2075
 4462TIP3    H134801   4.894   4.338   5.460  0.5466 -0.6237 -0.8042
 4462TIP3    H234802   5.041   4.360   5.429  1.1841 -0.8602  1.8360
 4463TIP3   OH234803   0.891   1.370  13.404  0.0477  0.5024  0.4441
 4463TIP3    H134804   0.859   1.447  13.357 -0.6944 -0.2277 -0.2821
 4463TIP3    H234805   0.860   1.381  13.493 -0.4697  0.8084  0.2296
 4464TIP3   OH234806   1.852   6.650   2.225  0.6381 -0.7008 -0.0824
 4464TIP3    H134807   1.789   6.614   2.162  0.9533 -1.7027  0.1554
 4464TIP3    H234808   1.932   6.600   2.210  0.5146 -1.4646  1.5681
 4465TIP3   OH234809   3.186   6.565   3.364 -0.0912 -0.4973  0.3359
 4465TIP3    H134810   3.234   6.529   3.440  0.2279 -0.5561  0.1099
 4465TIP3    H234811   3.213   6.656   3.360 -0.8091 -0.2520  0.8359
 4466TIP3   OH234812   1.135   5.882  14.938  0.8192  0.0668  0.0827
 4466TIP3    H134813   1.082   5.949  14.982  1.5364 -0.4798  1.8372
 4466TIP3    H234814   1.134   5.908  14.846 -0.4717  1.4278  0.4451
 4467TIP3   OH234815   0.758   6.728   4.975  0.1308  0.7171 -0.1421
 4467TIP3    H134816   0.679   6.758   5.020 -0.2345  1.1946 -1.0878
 4467TIP3    H234817   0.830   6.759   5.031 -0.1725  4.0152 -1.3445
 4468TIP3   OH234818   1.301   3.241  12.077 -0.4033 -0.6052  0.0970
 4468TIP3    H134819   1.337   3.322  12.039 -0.5263 -0.6377 -0.0878
 4468TIP3    H234820   1.343   3.235  12.163 -0.3255 -0.3909  0.0761
 4469TIP3   OH234821   2.533   4.011  13.064  0.2040  0.2219  0.3332
 4469TIP3    H134822   2.466   3.949  13.038  2.0013 -0.5418 -2.9988
 4469TIP3    H234823   2.602   3.958  13.104  0.8431  0.3360 -0.5970
 4470TIP3   OH234824   4.968   6.512   1.960  0.3041 -0.2928 -0.5296
 4470TIP3    H134825   4.923   6.455   2.021 -1.6106 -0.8555 -2.3242
 4470TIP3    H234826   4.912   6.591   1.956  1.1295  0.3008 -0.5519
 4471TIP3   OH234827   0.970   0.735  14.309 -0.4934 -0.9734  0.2661
 4471TIP3    H134828   0.967   0.831  14.313  0.8528 -0.9012 -0.2626
 4471TIP3    H234829   0.896   0.707  14.364 -0.9068  0.3570  0.4209
 4472TIP3   OH234830   0.323   6.252  12.136  0.3200 -0.0548  0.0962
 4472TIP3    H134831   0.342   6.175  12.082 -0.1434 -1.4251  1.8234
 4472TIP3    H234832   0.228   6.264  12.127  0.1650 -0.5795  0.9519
 4473TIP3   OH234833   5.537   1.243   5.679  0.0679 -0.3199  0.3551
 4473TIP3    H134834   5.508   1.301   5.609  0.6288 -1.1057 -0.5399
 4473TIP3    H234835   5.557   1.302   5.752 -0.0860  0.5429 -0.2834
 4474TIP3   OH234836   5.025   4.561   3.784 -0.0301  0.5446  0.2042
 4474TIP3    H134837   5.010   4.466   3.791 -0.3532  0.4433 -1.4263
 4474TIP3    H234838   4.960   4.600   3.842  0.7326 -0.2331  1.6493
 4475TIP3   OH234839   3.120   3.335  13.892 -0.2771  0.1914 -0.3710
 4475TIP3    H134840   3.069   3.413  13.872  1.4364  2.2655  2.6520
 4475TIP3    H234841   3.182   3.327  13.820  1.8439  3.8665  0.7929
 4476TIP3   OH234842   3.442   2.031  14.763  0.0078  0.0724 -0.4236
 4476TIP3    H134843   3.400   2.009  14.846 -0.2006 -2.1466 -1.0548
 4476TIP3    H234844   3.369   2.050  14.703  0.0387 -0.4187 -0.6268
 4477TIP3   OH234845   1.181   1.928   5.842 -0.6180  0.0141  0.1221
 4477TIP3    H134846   1.213   1.850   5.795  2.3415  0.2467  1.5282
 4477TIP3    H234847   1.181   1.997   5.777 -0.0731 -0.4366 -0.3648
 4478TIP3   OH234848   1.715   2.760   0.611  0.5618  0.5977 -0.5020
 4478TIP3    H134849   1.803   2.741   0.580  0.2527  0.9499 -1.6424
 4478TIP3    H234850   1.670   2.797   0.535 -0.7519 -0.1320 -0.1070
 4479TIP3   OH234851   6.465   0.566  16.735  0.4810 -0.7446 -0.2101
 4479TIP3    H134852   6.538   0.509  16.713 -0.1885 -0.5599 -3.3849
 4479TIP3    H234853   6.401   0.508  16.777  0.8674 -1.7939 -1.0270
 4480TIP3   OH234854   2.885   4.934  14.013 -0.0121 -0.2838 -0.6837
 4480TIP3    H134855   2.852   4.844  14.019  2.6762 -1.3113 -0.0194
 4480TIP3    H234856   2.900   4.960  14.104  1.1614  0.0265 -0.9436
 4481TIP3   OH234857   1.250   6.284  14.188  0.4345 -0.2489 -0.1300
 4481TIP3    H134858   1.250   6.354  14.254 -0.6031  1.2626 -1.6451
 4481TIP3    H234859   1.276   6.205  14.236 -2.6052  0.2372  2.6413
 4482TIP3   OH234860   1.540   0.042  16.186 -0.0625 -0.1420  0.2235
 4482TIP3    H134861   1.596   0.073  16.115 -0.6790 -1.1791 -0.7430
 4482TIP3    H234862   1.548   0.110  16.254  0.4190  0.9464 -0.8798
 4483TIP3   OH234863   3.324   6.722  13.500 -0.2824  0.3641  0.2094
 4483TIP3    H134864   3.234   6.718  13.533 -0.0660  0.8483  0.8743
 4483TIP3    H234865   3.357   6.806  13.531 -0.3474  1.2869 -1.9816
 4484TIP3   OH234866   0.608   0.316   4.138 -0.3753 -0.2547 -0.0246
 4484TIP3    H134867   0.588   0.358   4.221  0.8040  0.5120 -0.1085
 4484TIP3    H234868   0.634   0.388   4.080  0.8607 -0.9845 -0.4193
 4485TIP3   OH234869   3.431   4.711  12.396  0.2755 -0.2605 -0.0034
 4485TIP3    H134870   3.499   4.750  12.341 -1.0712  0.0575 -1.4950
 4485TIP3    H234871   3.430   4.767  12.474 -0.7443  2.0314 -1.5527
 4486TIP3   OH234872   3.917   6.250  16.757  0.1621  0.2007 -0.2991
 4486TIP3    H134873   4.007   6.219  16.745  0.0052  0.6409 -3.4547
 4486TIP3    H234874   3.924   6.345  16.752 -0.4770  0.2268 -0.9757
 4487TIP3   OH234875   4.703   1.072  13.657  0.2637  0.1963  0.1721
 4487TIP3    H134876   4.614   1.054  13.627  1.0377  0.7796 -2.8237
 4487TIP3    H234877   4.755   0.999  13.624  1.1593  0.7473  0.3244
 4488TIP3   OH234878   4.473   2.978   5.611 -0.5482  0.2787 -0.0925
 4488TIP3    H134879   4.506   3.065   5.635 -2.0589  0.7318  0.4315
 4488TIP3    H234880   4.475   2.978   5.515 -1.4864  1.3170 -0.1427
 4489TIP3   OH234881   3.833   3.018   0.143 -0.3070 -0.6929 -0.8070
 4489TIP3    H134882   3.908   3.013   0.083  0.4469 -1.0450  0.1504
 4489TIP3    H234883   3.847   2.947   0.205 -1.6942 -1.0633 -0.8843
 4490TIP3   OH234884   4.023   0.206  15.974  0.6193 -0.3060  0.1138
 4490TIP3    H134885   4.075   0.126  15.980  0.7246 -0.1542  1.4868
 4490TIP3    H234886   3.934   0.178  15.995  0.5193 -0.1946 -0.1593
 4491TIP3   OH234887   2.944   4.003   3.986 -0.2190  0.4624 -0.5543
 4491TIP3    H134888   2.856   3.998   4.022  0.5955 -0.8018  1.5022
 4491TIP3    H234889   2.980   3.915   3.999  1.6010  1.1567 -0.5945
 4492TIP3   OH234890   0.014   0.917   5.849  0.0141  0.8368  0.0258
 4492TIP3    H134891  -0.067   0.882   5.885 -0.8664  1.5689 -1.1485
 4492TIP3    H234892   0.040   0.986   5.909 -0.0972  0.4306  0.5423
 4493TIP3   OH234893   1.600   2.858  15.144 -0.0288 -0.8730 -0.4909
 4493TIP3    H134894   1.690   2.827  15.135 -0.2187 -1.6880  0.2410
 4493TIP3    H234895   1.600   2.945  15.103  0.6895 -1.5456 -1.9996
 4494TIP3   OH234896   4.626   3.702  13.824  0.2308  0.3470  0.3022
 4494TIP3    H134897   4.546   3.727  13.870  0.9565  0.7210  1.4018
 4494TIP3    H234898   4.638   3.609  13.844  0.1498  0.3210  0.2340
 4495TIP3   OH234899   2.019   0.916   5.294  0.0258  0.4146 -0.8809
 4495TIP3    H134900   1.927   0.888   5.298 -0.2797  1.2470 -1.6704
 4495TIP3    H234901   2.056   0.863   5.223  0.8537 -1.7407  1.0373
 4496TIP3   OH234902   4.102   1.073   5.853 -0.0953 -0.6781  0.2684
 4496TIP3    H134903   4.128   0.982   5.847 -0.9619 -1.1295  2.3454
 4496TIP3    H234904   4.103   1.092   5.947 -0.8220  1.1782 -0.0529
 4497TIP3   OH234905   3.942   6.662  10.646 -0.0499 -0.2613  0.7831
 4497TIP3    H134906   3.879   6.592  10.629 -0.8732  0.3770  1.1438
 4497TIP3    H234907   3.908   6.708  10.722 -0.2946  1.4002 -0.2582
 4498TIP3   OH234908   5.999   6.060   2.430 -0.2427 -0.0426 -0.2472
 4498TIP3    H134909   5.975   6.018   2.347 -1.6929  2.2178 -1.0449
 4498TIP3    H234910   6.094   6.047   2.436 -0.1762 -0.7165 -1.9987
 4499TIP3   OH234911   4.891   0.395   0.656 -0.0089  0.5285  0.0236
 4499TIP3    H134912   4.944   0.353   0.724 -1.0800 -0.0318  0.5376
 4499TIP3    H234913   4.806   0.408   0.698 -1.3548 -1.6927 -1.8361
 4500TIP3   OH234914   0.214   2.995   1.169 -0.2866 -0.5486 -0.1343
 4500TIP3    H134915   0.185   3.057   1.102  0.2537 -0.8348 -0.6437
 4500TIP3    H234916   0.164   2.915   1.149  1.0578 -1.1542 -1.2296
 4501TIP3   OH234917   5.155   3.301  12.626  0.2424  0.2935  0.2550
 4501TIP3    H134918   5.209   3.238  12.577 -0.0993 -0.7182  1.1337
 4501TIP3    H234919   5.080   3.318  12.569 -0.8094 -1.8759  0.8712
 4502TIP3   OH234920   0.288   4.117   4.603  0.2514 -0.3604 -0.1094
 4502TIP3    H134921   0.316   4.033   4.566  1.1362 -1.1953  2.2078
 4502TIP3    H234922   0.359   4.177   4.584 -0.0858 -0.3034 -1.2182
 4503TIP3   OH234923   2.037   5.722  16.572 -0.2805  0.0387 -0.2757
 4503TIP3    H134924   2.048   5.812  16.604  0.7668  0.4539 -1.6611
 4503TIP3    H234925   1.948   5.719  16.538 -0.7216  0.1794  0.8153
 4504TIP3   OH234926   0.915   2.310  16.059  0.0167 -0.3648  0.1569
 4504TIP3    H134927   0.849   2.267  16.113 -0.8983 -0.8907 -1.3234
 4504TIP3    H234928   0.935   2.392  16.105 -2.5851  0.4072  0.0271
 4505TIP3   OH234929   4.971   3.886   2.265  0.4010  0.2205  0.2696
 4505TIP3    H134930   4.917   3.836   2.326  0.6495 -0.0471  0.2785
 4505TIP3    H234931   4.935   3.865   2.179  0.1879  0.4230  0.3104
 4506TIP3   OH234932   4.964   3.741  16.526  0.0507  0.9682 -0.5523
 4506TIP3    H134933   5.005   3.656  16.542 -1.7191  0.1954  0.2134
 4506TIP3    H234934   5.018   3.803  16.575  0.8565  0.1458 -0.3746
 4507TIP3   OH234935   3.333   3.348  13.663  0.5694 -0.1128  0.1201
 4507TIP3    H134936   3.409   3.295  13.688  0.4959  0.0467  0.7111
 4507TIP3    H234937   3.272   3.286  13.623  1.7160  0.0510 -2.0145
 4508TIP3   OH234938   2.010   5.324   2.024 -0.0714 -0.3174  0.2830
 4508TIP3    H134939   1.954   5.275   1.965 -1.5870  0.5715  0.9245
 4508TIP3    H234940   1.990   5.290   2.111  1.8215 -1.3117  0.3758
 4509TIP3   OH234941   5.908   0.642  14.798  0.3365  0.1424 -0.2077
 4509TIP3    H134942   5.921   0.686  14.882 -1.4996  2.2015 -0.8938
 4509TIP3    H234943   5.817   0.610  14.802  1.0370 -2.0162 -0.4738
 4510TIP3   OH234944   1.751   5.456   5.304  0.4868 -0.2746 -0.2191
 4510TIP3    H134945   1.690   5.462   5.377 -1.4414  0.5062 -1.7868
 4510TIP3    H234946   1.751   5.363   5.280 -0.7636 -0.1624 -0.7076
 4511TIP3   OH234947   2.680   6.087  14.839  0.0699  0.3370  0.5688
 4511TIP3    H134948   2.742   6.067  14.909  0.1666  0.0448  0.4028
 4511TIP3    H234949   2.612   6.020  14.847  0.3264  0.0152  0.0917
 4512TIP3   OH234950   0.958   0.870   4.102 -0.0763  0.1511  0.3235
 4512TIP3    H134951   0.928   0.944   4.049  0.9326 -0.3077 -0.9395
 4512TIP3    H234952   0.879   0.835   4.142 -0.8809  0.5211 -0.8893
 4513TIP3   OH234953   3.536   5.980   0.507 -0.6886 -0.0054  0.4027
 4513TIP3    H134954   3.463   5.918   0.504 -0.9866  0.3772 -0.2369
 4513TIP3    H234955   3.593   5.946   0.577 -2.5077  0.8436  2.3965
 4514TIP3   OH234956   3.986   3.103   4.394  0.1170 -0.2913 -0.4278
 4514TIP3    H134957   3.901   3.137   4.422  0.6265 -0.5195  1.5380
 4514TIP3    H234958   3.969   3.013   4.366 -0.2945 -0.3342 -0.0408
 4515TIP3   OH234959   4.391   5.251  16.509 -0.0052  0.0025  0.6309
 4515TIP3    H134960   4.326   5.205  16.456 -1.0211 -0.0581  1.8697
 4515TIP3    H234961   4.458   5.278  16.446  0.1209 -2.2298 -0.2855
 4516TIP3   OH234962   4.386   4.208   2.115  0.5801 -0.4621  0.6685
 4516TIP3    H134963   4.361   4.262   2.041 -0.1612  3.1704  3.3024
 4516TIP3    H234964   4.311   4.150   2.129 -0.4738  0.7442  0.2105
 4517TIP3   OH234965   6.199   1.939   3.932 -0.2116 -0.1023  0.2018
 4517TIP3    H134966   6.168   1.954   4.021  1.3424  0.3368  0.6930
 4517TIP3    H234967   6.189   1.844   3.919 -3.6180  0.2032 -0.4511
 4518TIP3   OH234968   4.064   5.832  15.382  0.4977 -0.6476 -0.3954
 4518TIP3    H134969   4.136   5.877  15.426 -0.3748 -2.0244  2.6665
 4518TIP3    H234970   4.016   5.788  15.452 -3.3266  0.0986 -2.2523
 4519TIP3   OH234971   0.145   0.688  14.715  0.3938 -0.2470  0.3445
 4519TIP3    H134972   0.085   0.749  14.758  0.7476  0.1310  0.3065
 4519TIP3    H234973   0.197   0.652  14.787  1.0052  0.4070  0.2474
 4520TIP3   OH234974   0.901   3.060  11.151 -0.4680 -0.1788 -0.5945
 4520TIP3    H134975   0.826   3.007  11.123 -0.7378 -0.3419  0.3900
 4520TIP3    H234976   0.864   3.147  11.168 -0.6317 -0.4885  0.7573
 4521TIP3   OH234977   2.793   6.584  13.853  0.1014  0.2731 -0.3065
 4521TIP3    H134978   2.819   6.518  13.789  1.8203  0.8675 -0.2820
 4521TIP3    H234979   2.807   6.667  13.808 -1.2537  0.6474 -0.0608
 4522TIP3   OH234980   2.136   6.409   5.332  0.2428  0.4140  0.4905
 4522TIP3    H134981   2.064   6.413   5.270  0.5019 -0.1099  0.1502
 4522TIP3    H234982   2.155   6.500   5.354  0.0263  0.5888 -0.0508
 4523TIP3   OH234983   1.801   1.054   3.648  0.0882  0.2399 -0.1827
 4523TIP3    H134984   1.895   1.064   3.634  0.1793  0.9340  0.8065
 4523TIP3    H234985   1.787   0.960   3.657  0.4274 -0.0091 -1.9537
 4524TIP3   OH234986   0.972   1.012  11.041  0.5412 -0.1437 -0.0613
 4524TIP3    H134987   0.894   1.043  11.086 -0.5113 -0.3708 -1.6614
 4524TIP3    H234988   0.939   0.956  10.971  2.1681 -0.6725 -0.4511
 4525TIP3   OH234989   6.116   0.878  15.861 -0.2072  0.1203 -0.9874
 4525TIP3    H134990   6.110   0.792  15.903  1.2166  0.2679 -0.4099
 4525TIP3    H234991   6.209   0.901  15.867 -0.5960  1.8342 -0.8567
 4526TIP3   OH234992   2.949   6.032   1.279  0.0555  0.3673 -0.5533
 4526TIP3    H134993   3.005   6.088   1.333  1.0121  0.6538 -1.8010
 4526TIP3    H234994   2.948   5.948   1.325  0.4003  0.7527  0.1832
 4527TIP3   OH234995   4.995   0.191   2.538 -0.6328  0.6533 -0.7982
 4527TIP3    H134996   5.016   0.167   2.628  0.8204 -1.5541 -1.6436
 4527TIP3    H234997   4.932   0.262   2.547 -2.1332 -0.8443  1.9382
 4528TIP3   OH234998   0.539   2.395  13.852 -0.1515 -0.2395  0.1002
 4528TIP3    H134999   0.497   2.334  13.792  1.2765 -0.7433 -0.4110
 4528TIP3    H235000   0.599   2.445  13.797  1.0006 -0.5376  1.0560
 4529TIP3   OH235001   2.834   2.803  12.038  0.1391 -0.1438  0.7259
 4529TIP3    H135002   2.821   2.802  12.133  0.5666 -1.6277  0.8052
 4529TIP3    H235003   2.746   2.797  12.001  0.0370 -0.8075  1.0643
 4530TIP3   OH235004   6.397   0.163   1.392 -0.0814 -0.3131  0.4106
 4530TIP3    H135005   6.333   0.198   1.454  1.1348  0.3028  1.3626
 4530TIP3    H235006   6.344   0.126   1.321 -1.4721  1.3164  0.5332
 4531TIP3   OH235007   3.398   5.764  12.963 -0.0513 -1.0037  0.3536
 4531TIP3    H135008   3.333   5.782  13.031 -0.6159  2.9167 -0.9832
 4531TIP3    H235009   3.477   5.742  13.012 -0.9973 -0.5267  2.2211
 4532TIP3   OH235010   2.542   1.863   3.755  0.1897 -0.6305  0.2036
 4532TIP3    H135011   2.615   1.864   3.817 -0.1781  0.9211  0.6714
 4532TIP3    H235012   2.525   1.771   3.739  1.8310 -1.0412  0.5826
 4533TIP3   OH235013   1.978   5.332   0.170 -0.3429  0.2160 -0.9044
 4533TIP3    H135014   1.935   5.311   0.252 -0.1575  0.5535 -0.7174
 4533TIP3    H235015   1.917   5.390   0.125  0.0113  0.8831 -0.5362
 4534TIP3   OH235016   1.323   2.840  15.233  0.0197 -0.2075 -0.4223
 4534TIP3    H135017   1.414   2.845  15.205 -0.1935  0.8947 -0.9702
 4534TIP3    H235018   1.283   2.920  15.199 -0.8912 -0.1403  0.7534
 4535TIP3   OH235019   1.692   1.541  17.181  0.0215  0.5076 -0.3799
 4535TIP3    H135020   1.663   1.511  17.095 -1.6058  0.9599 -0.0352
 4535TIP3    H235021   1.632   1.498  17.242 -1.1486  2.8909  0.2689
 4536TIP3   OH235022   3.679   1.774  16.129 -0.4133  0.0270 -0.1631
 4536TIP3    H135023   3.650   1.773  16.220 -2.0922  2.2362 -0.5900
 4536TIP3    H235024   3.599   1.774  16.078  0.4989 -0.6368 -1.6648
 4537TIP3   OH235025   4.785   6.725  17.418 -0.1641 -0.2839  0.3177
 4537TIP3    H135026   4.720   6.793  17.404 -0.7267 -0.8455  0.1375
 4537TIP3    H235027   4.815   6.702  17.330  2.1067  1.6755  0.5004
 4538TIP3   OH235028   2.825   5.734   5.373  0.6341  0.2610 -0.1628
 4538TIP3    H135029   2.780   5.754   5.455  1.7222  1.5032  0.1765
 4538TIP3    H235030   2.832   5.639   5.372  1.9644  0.2622  1.9834
 4539TIP3   OH235031   6.058   5.419  13.897 -0.4312 -0.6736  0.2422
 4539TIP3    H135032   6.131   5.463  13.854  0.6068 -3.2579 -0.8647
 4539TIP3    H235033   6.038   5.473  13.973  0.3426  1.9200 -1.2974
 4540TIP3   OH235034   2.873   6.108  10.933  0.1501 -0.2355  0.1257
 4540TIP3    H135035   2.883   6.201  10.915  0.5755 -0.6658 -2.1455
 4540TIP3    H235036   2.783   6.087  10.908 -0.1500 -0.3468  1.2261
 4541TIP3   OH235037   1.399   5.615   3.205 -0.1765 -0.2568  0.2061
 4541TIP3    H135038   1.325   5.572   3.162 -1.5728 -0.3319  2.5304
 4541TIP3    H235039   1.372   5.622   3.296  2.8130 -0.4774  1.1814
 4542TIP3   OH235040   4.564   4.720  13.891  0.4188  0.1015 -0.1064
 4542TIP3    H135041   4.509   4.795  13.916 -0.4471  0.4334 -2.7587
 4542TIP3    H235042   4.511   4.644  13.915  0.5707  0.3262  1.0247
 4543TIP3   OH235043   1.747   5.212  10.881  0.4373 -0.2606  0.3359
 4543TIP3    H135044   1.669   5.248  10.839  0.2789 -1.3920 -0.3893
 4543TIP3    H235045   1.816   5.276  10.863  0.1231 -0.2050 -0.7607
 4544TIP3   OH235046   4.932   6.373  16.496  0.9319  0.5136  0.1840
 4544TIP3    H135047   4.901   6.442  16.555  1.3113 -1.7140  3.2738
 4544TIP3    H235048   4.871   6.300  16.511  0.7642 -0.0349 -2.6633
 4545TIP3   OH235049   5.227   4.119  15.785  0.1724 -0.5206  0.4606
 4545TIP3    H135050   5.182   4.039  15.758 -2.5063  1.1973 -0.5765
 4545TIP3    H235051   5.294   4.089  15.847 -0.1941 -3.5998 -0.4606
 4546TIP3   OH235052   4.592   5.475   4.744 -0.3859  0.8672  0.0057
 4546TIP3    H135053   4.534   5.549   4.725  0.1533  1.6617  1.3431
 4546TIP3    H235054   4.572   5.411   4.674 -3.1394  0.9124  0.6133
 4547TIP3   OH235055   6.710   5.537  12.526  0.4108  0.0413 -0.2101
 4547TIP3    H135056   6.769   5.461  12.530 -0.2964 -0.4774  1.6759
 4547TIP3    H235057   6.668   5.530  12.440  0.4550 -1.6419 -0.1343
 4548TIP3   OH235058   2.999   5.157  12.365  0.3718 -0.1998 -0.1920
 4548TIP3    H135059   3.032   5.081  12.317 -1.1427 -0.9518 -0.1093
 4548TIP3    H235060   3.058   5.165  12.440 -0.4225 -2.4295  0.7759
 4549TIP3   OH235061   0.117   5.603   5.895 -0.0406 -0.1122 -0.2218
 4549TIP3    H135062   0.121   5.695   5.869 -1.9615 -0.4423 -2.0071
 4549TIP3    H235063   0.206   5.582   5.924  0.7151  1.9995 -0.8138
 4550TIP3   OH235064   0.039   3.981   0.416 -0.2906  0.0250 -0.0648
 4550TIP3    H135065   0.021   4.012   0.505 -0.4707  2.2956 -0.8430
 4550TIP3    H235066  -0.038   4.006   0.365  0.8903  1.0844 -1.3866
 4551TIP3   OH235067   0.223   4.952   1.448  0.1417 -0.5532 -0.2091
 4551TIP3    H135068   0.236   4.858   1.445 -0.2030 -0.5904 -0.8625
 4551TIP3    H235069   0.219   4.979   1.356 -1.7069 -0.1900 -0.0728
 4552TIP3   OH235070   5.225   5.332  13.771 -0.6353 -0.0976  0.1441
 4552TIP3    H135071   5.301   5.336  13.830 -1.0322 -1.5488  0.8009
 4552TIP3    H235072   5.149   5.327  13.829 -1.0860 -0.7781 -0.4769
 4553TIP3   OH235073   3.244   5.956   4.351  0.2456  0.4575  0.3616
 4553TIP3    H135074   3.173   5.990   4.297 -0.1754  1.8410  1.7175
 4553TIP3    H235075   3.263   5.870   4.315  0.2560  1.4625 -2.2314
 4554TIP3   OH235076   4.318   6.735   1.658 -0.2352  0.6627  0.4465
 4554TIP3    H135077   4.352   6.653   1.695 -0.4557 -0.1001 -0.9524
 4554TIP3    H235078   4.236   6.750   1.705 -1.0862 -0.8975 -0.4468
 4555TIP3   OH235079   2.363   1.010   3.613  0.8925 -0.1775  0.8553
 4555TIP3    H135080   2.437   0.968   3.656  1.1700 -1.1373 -0.4756
 4555TIP3    H235081   2.403   1.072   3.552  0.5417  0.3920  1.1902
 4556TIP3   OH235082   2.369   0.147  16.493 -0.5250 -0.0503  0.4963
 4556TIP3    H135083   2.341   0.220  16.548 -0.2643 -0.0699  0.6585
 4556TIP3    H235084   2.406   0.189  16.415 -1.5825 -0.0356 -0.0124
 4557TIP3   OH235085   6.498   2.170  15.538 -0.4556  0.4178  0.0655
 4557TIP3    H135086   6.441   2.246  15.549 -0.8485 -0.1065  2.2120
 4557TIP3    H235087   6.538   2.158  15.624  1.8754 -0.0686 -0.9952
 4558TIP3   OH235088   2.250   4.677  13.809  0.2728  0.7120  0.1259
 4558TIP3    H135089   2.230   4.593  13.852  1.3870  0.8005  0.8412
 4558TIP3    H235090   2.271   4.736  13.881  0.4935  1.3383 -0.4454
 4559TIP3   OH235091   4.198   0.790   2.757 -0.0488  0.8184 -0.2251
 4559TIP3    H135092   4.282   0.781   2.802 -0.6401 -0.1275  0.7466
 4559TIP3    H235093   4.213   0.756   2.669 -0.0663 -2.0469  0.7802
 4560TIP3   OH235094   1.584   3.447   3.742  0.0738 -0.2128 -0.4290
 4560TIP3    H135095   1.602   3.530   3.786  1.0021 -0.7089  0.1634
 4560TIP3    H235096   1.670   3.410   3.724 -0.3207 -0.8390 -1.1064
 4561TIP3   OH235097   3.261   4.161   1.141  0.0520  0.3414  0.2261
 4561TIP3    H135098   3.175   4.133   1.174 -0.0934 -0.9401 -1.0913
 4561TIP3    H235099   3.320   4.090   1.166  0.6865  1.0876  0.8830
 4562TIP3   OH235100   5.308   5.732  12.217  0.2610  0.1960 -0.0960
 4562TIP3    H135101   5.370   5.717  12.145 -0.6347 -1.2013 -0.6298
 4562TIP3    H235102   5.230   5.682  12.192  0.3302 -1.3461  2.3870
 4563TIP3   OH235103   6.358   0.125   5.995  0.8565  0.0451  0.1358
 4563TIP3    H135104   6.356   0.214   5.962 -0.9640  0.1906  0.5071
 4563TIP3    H235105   6.447   0.095   5.980  1.8322  2.2911  0.9761
 4564TIP3   OH235106   1.737   3.025   0.147 -0.4169  0.6931  0.4545
 4564TIP3    H135107   1.731   2.931   0.166 -2.4179  0.9072  1.0888
 4564TIP3    H235108   1.825   3.036   0.110  0.6145 -1.0945  2.1673
 4565TIP3   OH235109   0.167   5.235  12.806  0.4615 -0.4073 -0.3395
 4565TIP3    H135110   0.131   5.294  12.739  0.9512  2.3601  1.6258
 4565TIP3    H235111   0.093   5.180  12.831  0.1941 -1.3151 -2.8599
 4566TIP3   OH235112   0.074   2.173  14.377  0.3738 -0.3097  0.4283
 4566TIP3    H135113   0.159   2.129  14.379  1.0939  0.8505 -1.7608
 4566TIP3    H235114   0.013   2.107  14.346  0.5037 -1.0277  1.6117
 4567TIP3   OH235115   3.199   5.509  11.074 -0.3619  1.0292 -0.2012
 4567TIP3    H135116   3.269   5.564  11.110 -1.2270  2.5370 -0.7320
 4567TIP3    H235117   3.119   5.561  11.086 -1.7058 -1.2811  1.8335
 4568TIP3   OH235118   3.710   0.756   5.597  0.2911  0.0319 -0.1005
 4568TIP3    H135119   3.782   0.693   5.588  0.0728 -0.4569  1.3028
 4568TIP3    H235120   3.633   0.709   5.563  0.4556  0.1984 -0.7042
 4569TIP3   OH235121   1.989   6.717  17.281 -0.0122  0.2573  0.1776
 4569TIP3    H135122   2.054   6.726  17.212  1.6813  1.0047  1.7658
 4569TIP3    H235123   1.954   6.629  17.269  1.7695 -0.4295 -0.4032
 4570TIP3   OH235124   1.596   3.619  11.879 -0.1321 -0.2340  0.1392
 4570TIP3    H135125   1.691   3.625  11.888 -0.2687  0.6000  1.3107
 4570TIP3    H235126   1.562   3.656  11.960 -1.4596 -1.0997  0.0148
 4571TIP3   OH235127   2.824   1.546   2.886  0.3942  0.5417  0.6000
 4571TIP3    H135128   2.755   1.480   2.898 -0.7378  1.6626  0.4473
 4571TIP3    H235129   2.823   1.597   2.967  0.8287  0.7584  0.4688
 4572TIP3   OH235130   6.085   6.478  12.839 -0.4350  0.1294  0.0903
 4572TIP3    H135131   6.070   6.467  12.933  0.1799  0.3421  0.2194
 4572TIP3    H235132   6.148   6.549  12.833 -1.8935  1.4158 -0.5838
 4573TIP3   OH235133   6.640   0.731   0.563 -0.8989  0.3180  0.0743
 4573TIP3    H135134   6.712   0.710   0.622 -1.0441 -0.1800  0.0736
 4573TIP3    H235135   6.575   0.773   0.619 -1.5068 -1.1426  0.5003
 4574TIP3   OH235136   3.794   4.347   2.951 -0.2679 -0.2273 -0.1690
 4574TIP3    H135137   3.777   4.439   2.931  0.1242  0.5095  2.4499
 4574TIP3    H235138   3.888   4.337   2.941  0.2199  0.6374  2.6825
 4575TIP3   OH235139   3.067   0.992  14.795 -0.4587 -0.3435  0.0319
 4575TIP3    H135140   3.113   0.910  14.813 -0.0954  0.0885  1.1613
 4575TIP3    H235141   2.998   0.996  14.861  0.0309  0.6237  0.5132
 4576TIP3   OH235142   2.427   4.373  15.239 -0.1556  0.1756  0.0230
 4576TIP3    H135143   2.370   4.415  15.175 -0.9192 -1.5112 -0.4593
 4576TIP3    H235144   2.368   4.325  15.296  0.6566  0.0506  0.7907
 4577TIP3   OH235145   5.347   3.524  11.734  0.0296  0.0035 -0.5036
 4577TIP3    H135146   5.340   3.616  11.706 -0.6247  0.2680  0.4791
 4577TIP3    H235147   5.429   3.494  11.696  0.4540  1.1218 -0.5152
 4578TIP3   OH235148   0.373   1.870  16.349  0.6583 -0.1297  0.1203
 4578TIP3    H135149   0.378   1.918  16.432 -2.0639 -1.1335  0.9502
 4578TIP3    H235150   0.345   1.936  16.286 -1.6753 -0.2254  0.9717
 4579TIP3   OH235151   0.248   2.235   4.042 -0.4241  0.4182  0.1314
 4579TIP3    H135152   0.194   2.311   4.063 -1.3292 -0.0293 -0.5010
 4579TIP3    H235153   0.188   2.175   3.997  0.7132  0.0930 -0.9922
 4580TIP3   OH235154   0.138   2.028  12.510 -0.6598 -0.0232  0.2609
 4580TIP3    H135155   0.048   2.054  12.493 -0.4938 -0.5558 -1.6575
 4580TIP3    H235156   0.132   1.935  12.531 -0.4519 -0.3907 -1.2241
 4581TIP3   OH235157   3.685   1.237  12.866 -0.2195 -0.0715 -0.0068
 4581TIP3    H135158   3.678   1.287  12.785 -0.6574 -0.1297 -0.0052
 4581TIP3    H235159   3.757   1.176  12.850 -0.6916 -0.4921 -0.5762
 4582TIP3   OH235160   4.798   1.077   5.051 -0.1856 -0.3537 -0.2539
 4582TIP3    H135161   4.871   1.122   5.096  1.1027 -0.2332 -2.3566
 4582TIP3    H235162   4.745   1.148   5.016  1.2175 -0.3691 -2.5841
 4583TIP3   OH235163   4.691   3.844  12.098 -0.1525  0.4529 -0.7390
 4583TIP3    H135164   4.648   3.760  12.081  0.6021 -0.1446  0.2032
 4583TIP3    H235165   4.757   3.824  12.165 -0.7175  2.0199  0.3385
 4584TIP3   OH235166   1.773   0.811   2.491 -0.5532 -0.3464  0.1230
 4584TIP3    H135167   1.686   0.771   2.488  0.7694 -3.5101 -2.3854
 4584TIP3    H235168   1.767   0.887   2.433 -1.1683 -1.9561 -2.0528
 4585TIP3   OH235169   3.474   2.889  14.306  0.6165 -0.1137 -0.1533
 4585TIP3    H135170   3.514   2.928  14.228  0.8285 -1.3427 -0.6909
 4585TIP3    H235171   3.530   2.917  14.378  0.3461  1.1507 -0.4027
 4586TIP3   OH235172   5.884   5.744  13.282  0.8004 -0.7227  0.3631
 4586TIP3    H135173   5.966   5.794  13.280 -0.4373  1.4534  0.7888
 4586TIP3    H235174   5.861   5.739  13.375  0.4655 -1.3785  0.2521
 4587TIP3   OH235175   3.357   6.232  10.504  0.0610  0.3712 -0.0088
 4587TIP3    H135176   3.315   6.148  10.520  1.0874 -0.2627 -0.5898
 4587TIP3    H235177   3.298   6.296  10.544 -1.4935 -0.4713 -0.8659
 4588TIP3   OH235178   4.077   1.581   2.566 -0.0250  0.3975 -0.0119
 4588TIP3    H135179   4.095   1.662   2.517 -0.0238  0.4173  0.0210
 4588TIP3    H235180   3.982   1.584   2.581  0.1061  0.8570  0.7984
 4589TIP3   OH235181   1.381   2.454  13.368 -0.0623  0.1132 -0.0814
 4589TIP3    H135182   1.421   2.504  13.439  1.6435 -1.0515 -0.1686
 4589TIP3    H235183   1.358   2.520  13.302  1.3851  0.8882  0.1563
 4590TIP3   OH235184   3.199   5.226  16.276 -0.2190 -0.0379 -0.8039
 4590TIP3    H135185   3.145   5.300  16.249  0.9124  1.0661 -0.1098
 4590TIP3    H235186   3.280   5.265  16.308 -0.7415 -1.3252  2.5014
 4591TIP3   OH235187   2.869   3.080   0.588 -0.6274  0.0025 -0.0123
 4591TIP3    H135188   2.868   3.122   0.674  0.5153 -0.6543  0.3531
 4591TIP3    H235189   2.877   3.151   0.526 -1.0972  0.4624  0.4425
 4592TIP3   OH235190   5.935   4.619   1.541  0.0875 -0.5263  0.2842
 4592TIP3    H135191   5.875   4.661   1.602 -1.5343 -0.4674 -1.2793
 4592TIP3    H235192   5.995   4.688   1.515 -1.6288  0.5210 -1.1105
 4593TIP3   OH235193   2.447   3.449   6.429  0.4142  0.2509  0.0589
 4593TIP3    H135194   2.357   3.428   6.456  0.7248 -2.6101 -0.8482
 4593TIP3    H235195   2.501   3.412   6.499  0.9609  0.7850 -0.0759
 4594TIP3   OH235196   3.309   2.058   0.460 -0.2206 -0.0047  0.0755
 4594TIP3    H135197   3.267   2.120   0.520 -0.3586 -0.7354  0.7473
 4594TIP3    H235198   3.309   2.103   0.376 -2.3442  0.0383  0.0576
 4595TIP3   OH235199   0.824   0.415  12.013 -0.5071  0.2254  0.2489
 4595TIP3    H135200   0.881   0.480  12.054 -2.0958  0.3084  2.4711
 4595TIP3    H235201   0.768   0.467  11.954  0.4421  0.3648 -0.5751
 4596TIP3   OH235202   1.288   4.282   3.587  0.0661 -0.7163  0.3986
 4596TIP3    H135203   1.278   4.330   3.669  0.4286 -0.6258  0.3946
 4596TIP3    H235204   1.380   4.295   3.564 -0.6875  1.8978 -1.6442
 4597TIP3   OH235205   1.065   2.377   5.467 -0.6523  0.1112 -0.3741
 4597TIP3    H135206   1.066   2.442   5.397  0.5774  0.2749 -0.2238
 4597TIP3    H235207   1.083   2.428   5.546 -0.0077 -0.3549 -0.2120
 4598TIP3   OH235208   2.600   6.643  10.618  0.1012  0.1183  0.0313
 4598TIP3    H135209   2.537   6.590  10.570 -1.7386  0.8044  1.5650
 4598TIP3    H235210   2.630   6.586  10.689 -0.6323  0.5858  0.7179
 4599TIP3   OH235211   0.079   0.448  16.850  0.1753  0.8443  0.4476
 4599TIP3    H135212   0.121   0.478  16.930  0.5195 -0.3597  0.7281
 4599TIP3    H235213  -0.003   0.408  16.880 -0.0601  1.0779  0.1217
 4600TIP3   OH235214   0.271   2.901  13.120 -0.2689 -0.4482 -0.3560
 4600TIP3    H135215   0.208   2.838  13.154 -0.1967  0.8216  2.3879
 4600TIP3    H235216   0.354   2.877  13.159  0.1817  0.1216 -0.9325
 4601TIP3   OH235217   6.141   4.138  17.485  0.4811  0.3571 -0.2615
 4601TIP3    H135218   6.125   4.175  17.571 -0.3763  0.6720 -0.5429
 4601TIP3    H235219   6.169   4.048  17.501  0.0856  0.3387  0.3333
 4602TIP3   OH235220   3.319   0.278   5.836 -0.1155  0.2796  0.3444
 4602TIP3    H135221   3.248   0.301   5.896 -0.2974  0.0924  0.2062
 4602TIP3    H235222   3.366   0.208   5.880 -3.0724 -3.3651 -1.6206
 4603TIP3   OH235223   0.284   6.440  15.147  0.5590 -0.4876 -0.3893
 4603TIP3    H135224   0.204   6.482  15.180  0.1850 -1.1980 -0.3820
 4603TIP3    H235225   0.353   6.474  15.204  0.0320 -1.1035  0.6442
 4604TIP3   OH235226   6.585   5.724   4.952 -0.2424  0.7049 -0.8205
 4604TIP3    H135227   6.666   5.774   4.960  0.3407  0.1186 -2.4577
 4604TIP3    H235228   6.600   5.646   5.006 -0.8460  1.8440  1.0945
 4605TIP3   OH235229   2.501   5.769   1.366 -0.3389 -0.2990 -0.1981
 4605TIP3    H135230   2.509   5.761   1.461  0.8118  0.9244 -0.1724
 4605TIP3    H235231   2.436   5.702   1.343 -0.9179 -0.3861  1.4762
 4606TIP3   OH235232   6.156   3.979  14.701 -0.5809 -0.0367 -0.1253
 4606TIP3    H135233   6.188   3.985  14.611  0.8327 -1.2228  0.2502
 4606TIP3    H235234   6.116   3.892  14.707  0.9074 -0.6948  0.8290
 4607TIP3   OH235235   0.795   1.810   2.222  0.0322  0.3828 -0.8050
 4607TIP3    H135236   0.793   1.777   2.132  0.9774  0.8301 -1.0033
 4607TIP3    H235237   0.758   1.898   2.217  0.1443  0.4326 -0.7693
 4608TIP3   OH235238   5.827   5.530  13.769  0.3228  0.5093  0.1585
 4608TIP3    H135239   5.922   5.536  13.767  0.6100 -2.2717  0.9347
 4608TIP3    H235240   5.808   5.440  13.741 -2.1778  1.3123 -1.0872
 4609TIP3   OH235241   3.047   3.881  14.789  0.5369  0.2318 -0.0031
 4609TIP3    H135242   3.067   3.886  14.882  1.8921  1.6405 -0.3338
 4609TIP3    H235243   3.125   3.843  14.749 -0.9039 -2.6736 -0.3756
 4610TIP3   OH235244   1.361   5.564   3.722 -0.0657  0.2711 -0.6648
 4610TIP3    H135245   1.365   5.494   3.787 -1.8557  0.5078 -0.2694
 4610TIP3    H235246   1.425   5.538   3.656  1.7727 -0.0184  1.1035
 4611TIP3   OH235247   4.465   4.782  14.802  0.4758  0.0557 -0.1721
 4611TIP3    H135248   4.436   4.692  14.783 -2.4284  0.8745 -0.0434
 4611TIP3    H235249   4.487   4.819  14.717  0.2179 -0.3068 -0.3969
 4612TIP3   OH235250   1.521   1.942   2.664 -0.0085  0.1261  0.6911
 4612TIP3    H135251   1.525   1.851   2.695 -1.1742  0.4275  1.8227
 4612TIP3    H235252   1.593   1.986   2.709 -0.5456  0.1419  1.5646
 4613TIP3   OH235253   3.808   5.001  14.947  0.4655  0.6163 -0.3308
 4613TIP3    H135254   3.831   5.086  14.911  0.6439 -0.0199 -1.8131
 4613TIP3    H235255   3.829   4.939  14.877  1.5121 -0.7936  1.1483
 4614TIP3   OH235256   0.795   5.823  13.910 -0.0015  0.2315 -0.1824
 4614TIP3    H135257   0.790   5.863  13.823 -0.0313  3.2175  1.0760
 4614TIP3    H235258   0.862   5.872  13.956 -0.2295 -1.0247  1.6315
 4615TIP3   OH235259   0.947   5.875  12.064  0.0477  0.1296  0.2989
 4615TIP3    H135260   0.877   5.848  12.004 -0.2744  1.2472  0.1536
 4615TIP3    H235261   0.916   5.851  12.151 -0.0402 -0.3550  0.1336
 4616TIP3   OH235262   5.576   5.331   4.647  0.3917  0.4065  0.3188
 4616TIP3    H135263   5.520   5.373   4.583 -0.1759  1.5784  1.5415
 4616TIP3    H235264   5.596   5.399   4.711  2.1557 -0.3252  0.6181
 4617TIP3   OH235265   2.932   5.271  13.398  0.6172 -0.2210 -0.5321
 4617TIP3    H135266   2.908   5.317  13.317  0.0184  1.4927  0.5619
 4617TIP3    H235267   2.886   5.187  13.392 -1.3273  0.8156 -0.9460
 4618TIP3   OH235268   1.184   3.950  12.720  0.0473 -0.5869 -0.2713
 4618TIP3    H135269   1.256   3.935  12.781  0.6196 -2.4711 -1.3439
 4618TIP3    H235270   1.212   4.025  12.668  1.3445 -1.3887 -0.7806
 4619TIP3   OH235271   4.507   5.697   0.884  0.3073  0.3946  0.0376
 4619TIP3    H135272   4.493   5.612   0.927  1.4065  0.9903  1.6570
 4619TIP3    H235273   4.493   5.762   0.953 -4.3392  1.9277 -1.9572
 4620TIP3   OH235274   4.120   1.347   5.522 -0.0390 -0.5865  0.7816
 4620TIP3    H135275   4.187   1.309   5.465  0.4355  0.7578  0.4227
 4620TIP3    H235276   4.080   1.417   5.471 -0.2597  0.0204  1.7537
 4621TIP3   OH235277   5.922   2.679  12.303 -0.0614 -0.4216 -0.1508
 4621TIP3    H135278   5.936   2.769  12.332  1.9812 -1.1469  1.3964
 4621TIP3    H235279   6.009   2.650  12.274 -0.6271 -1.9478 -0.4117
 4622TIP3   OH235280   3.298   5.920   5.723 -0.4445 -0.3180  0.1939
 4622TIP3    H135281   3.205   5.899   5.715 -0.7276  0.5345  1.0311
 4622TIP3    H235282   3.300   6.016   5.730  0.6353 -0.1840 -1.5142
 4623TIP3   OH235283   2.812   0.221  17.264  0.0624  0.5758 -0.0253
 4623TIP3    H135284   2.755   0.238  17.339 -0.0787 -0.1248  0.0368
 4623TIP3    H235285   2.782   0.281  17.196 -1.8530 -0.8722 -0.5599
 4624TIP3   OH235286   6.439   4.143  12.530  0.0922 -0.1116 -0.9378
 4624TIP3    H135287   6.441   4.077  12.599 -1.3700  1.5404  0.7678
 4624TIP3    H235288   6.472   4.097  12.453  1.6095 -2.0733  0.7713
 4625TIP3   OH235289   1.236   2.224   3.713 -0.2011 -0.2004 -0.5011
 4625TIP3    H135290   1.243   2.206   3.807 -2.7227  0.0662 -0.2092
 4625TIP3    H235291   1.324   2.252   3.688  0.8010 -1.2405  1.5428
 4626TIP3   OH235292   4.525   6.037  15.421 -0.0367 -0.4724 -0.3947
 4626TIP3    H135293   4.586   6.010  15.490 -0.5779  0.3335  0.4365
 4626TIP3    H235294   4.533   6.133  15.419  0.6456 -0.5335 -2.1162
 4627TIP3   OH235295   2.041   1.807   2.466  0.6744  0.3080 -0.1920
 4627TIP3    H135296   2.088   1.881   2.505  2.2876 -1.1281  0.7465
 4627TIP3    H235297   1.969   1.791   2.526 -1.7097  3.0550 -2.0704
 4628TIP3   OH235298   1.925   5.200  13.313  0.5319  0.0779 -0.3497
 4628TIP3    H135299   1.859   5.169  13.251  0.3069  0.8036 -0.4878
 4628TIP3    H235300   1.875   5.243  13.382  0.8402  0.3011 -0.2613
 4629TIP3   OH235301   6.024   0.150  12.139  0.3498  0.8176 -0.3476
 4629TIP3    H135302   5.940   0.110  12.116 -0.9456  3.0267  0.2149
 4629TIP3    H235303   6.073   0.150  12.057 -0.1588 -0.5704 -0.6756
 4630TIP3   OH235304   3.731   2.740   6.561 -0.3515  0.0753 -0.4009
 4630TIP3    H135305   3.636   2.738   6.557 -0.3576  1.2883 -2.3939
 4630TIP3    H235306   3.753   2.830   6.586  0.2330  0.3564 -1.7808
 4631TIP3   OH235307   0.606   4.909   5.040  0.2471 -0.0159  0.5693
 4631TIP3    H135308   0.676   4.893   5.103  1.3555 -0.8709 -0.8164
 4631TIP3    H235309   0.595   4.826   4.994 -0.1846  0.7135 -0.7016
 4632TIP3   OH235310   2.467   0.287  12.856  0.1192 -0.0387  0.0394
 4632TIP3    H135311   2.506   0.242  12.931 -1.2945 -0.1112  0.7584
 4632TIP3    H235312   2.417   0.219  12.811 -1.0214  0.5094  0.4325
 4633TIP3   OH235313   4.510   1.301  14.523 -0.6816 -0.1694 -0.3921
 4633TIP3    H135314   4.427   1.254  14.528  0.5425 -2.3349  1.2138
 4633TIP3    H235315   4.510   1.343  14.437 -2.8782 -1.1337 -0.9066
 4634TIP3   OH235316   4.215   1.385   3.646  0.2641 -0.6686  0.2747
 4634TIP3    H135317   4.176   1.317   3.592  0.5215 -1.1720  0.7057
 4634TIP3    H235318   4.283   1.339   3.696  0.7961  0.0087  0.1915
 4635TIP3   OH235319   4.785   0.750  12.875 -0.4604  0.0469 -0.4343
 4635TIP3    H135320   4.691   0.747  12.855  0.0973  0.4042 -3.6518
 4635TIP3    H235321   4.814   0.833  12.838  1.1343  0.0053  0.6476
 4636TIP3   OH235322   0.026   3.028  11.228 -0.3611  0.2894 -0.2597
 4636TIP3    H135323  -0.012   3.019  11.315  1.1694 -0.8060  0.3479
 4636TIP3    H235324   0.051   3.120  11.222  1.4355 -0.0333  1.3454
 4637TIP3   OH235325   5.922   1.403   5.036  0.3962 -0.2894  0.2062
 4637TIP3    H135326   5.992   1.374   4.978  2.4175 -1.4107  2.9703
 4637TIP3    H235327   5.943   1.495   5.055 -0.7818  0.3691 -1.3779
 4638TIP3   OH235328   2.438   6.693  11.923  0.4006 -0.1790  0.4644
 4638TIP3    H135329   2.444   6.752  11.997  0.3363 -0.7493  0.9293
 4638TIP3    H235330   2.344   6.689  11.902  0.5863  1.6701 -1.0511
 4639TIP3   OH235331   2.509   1.822   5.872 -0.3039  0.4466  0.9495
 4639TIP3    H135332   2.484   1.914   5.861  1.7950  0.9821  0.2155
 4639TIP3    H235333   2.601   1.824   5.896 -1.0271 -1.3617  4.7429
 4640TIP3   OH235334   2.291   6.393   2.372  0.1612  0.0021 -0.7845
 4640TIP3    H135335   2.251   6.480   2.374  1.0456  0.4134 -0.0644
 4640TIP3    H235336   2.332   6.388   2.285  2.7528  1.6029  0.2159
 4641TIP3   OH235337   3.976   6.316   3.109  0.6521  0.3237  0.2517
 4641TIP3    H135338   3.922   6.249   3.152 -0.2513  0.5822 -0.4384
 4641TIP3    H235339   3.986   6.284   3.019 -0.8567  1.6869 -0.4511
 4642TIP3   OH235340   2.965   5.599   1.698 -0.3534 -0.0292  0.4441
 4642TIP3    H135341   2.970   5.528   1.634  0.9148  1.9858 -1.8494
 4642TIP3    H235342   2.972   5.555   1.782  2.5400 -2.5182 -0.8806
 4643TIP3   OH235343   4.749   0.718  17.142  0.2365 -0.1196 -0.1818
 4643TIP3    H135344   4.836   0.677  17.151  0.7026  0.6830 -0.8519
 4643TIP3    H235345   4.754   0.797  17.194 -0.1107 -0.0946 -0.1863
 4644TIP3   OH235346   5.923   5.898   2.629  0.1515 -0.4536  0.3461
 4644TIP3    H135347   5.922   5.978   2.577 -0.2147 -0.2811  0.6113
 4644TIP3    H235348   5.939   5.828   2.566 -0.1177 -0.2296  0.0300
 4645TIP3   OH235349   4.981   2.775  15.612  0.5938 -0.0752  0.1729
 4645TIP3    H135350   4.936   2.838  15.556 -1.8452 -0.0624  2.0147
 4645TIP3    H235351   5.019   2.711  15.551 -0.8163  0.6546 -1.5355
 4646TIP3   OH235352   6.564   2.490   0.413 -0.7823 -0.5358  0.1260
 4646TIP3    H135353   6.589   2.416   0.359 -1.0884  0.0916 -0.9011
 4646TIP3    H235354   6.626   2.488   0.487  0.8438 -0.3486 -1.1685
 4647TIP3   OH235355   0.764   5.186   2.198  0.0456  0.0713  0.0555
 4647TIP3    H135356   0.706   5.124   2.155  0.2926 -0.3206  0.2836
 4647TIP3    H235357   0.705   5.249   2.239 -0.2348 -0.4908  0.5368
 4648TIP3   OH235358   2.027   0.747  13.090 -0.0133  0.1101 -0.4277
 4648TIP3    H135359   2.077   0.730  13.170  0.5046  0.7174 -0.6139
 4648TIP3    H235360   1.963   0.677  13.086 -0.5034  0.4655  0.8952
 4649TIP3   OH235361   2.910   1.762   5.022  0.0474  0.0017 -0.5258
 4649TIP3    H135362   2.921   1.755   4.928  0.5401 -1.6352 -0.3820
 4649TIP3    H235363   2.995   1.736   5.058 -0.0267  0.9401  0.3699
 4650TIP3   OH235364   0.655   2.018  16.944  0.8845 -0.2862 -0.2052
 4650TIP3    H135365   0.696   2.081  17.004  1.4594 -0.6031 -0.2502
 4650TIP3    H235366   0.703   2.029  16.862 -0.3606  0.6369 -0.8337
 4651TIP3   OH235367   2.368   1.870  13.368 -0.4695  0.1189  0.1283
 4651TIP3    H135368   2.410   1.851  13.452 -0.5523 -0.1231  0.1156
 4651TIP3    H235369   2.295   1.927  13.390 -2.5618 -2.5516  0.6726
 4652TIP3   OH235370   1.306   2.190   2.126 -0.0463  0.0511 -0.2141
 4652TIP3    H135371   1.213   2.198   2.145 -0.0158 -0.9597  0.4279
 4652TIP3    H235372   1.309   2.143   2.043 -0.1135  0.3310 -0.3746
 4653TIP3   OH235373   0.710   1.110   1.565  0.4524 -0.8776 -0.1994
 4653TIP3    H135374   0.732   1.072   1.480 -0.1571 -1.2009 -0.2205
 4653TIP3    H235375   0.756   1.055   1.628 -1.2296 -2.3286 -0.1637
 4654TIP3   OH235376   1.248   1.272  13.135  0.4326  0.0695  0.0396
 4654TIP3    H135377   1.316   1.219  13.092  1.9927  0.0799  2.3283
 4654TIP3    H235378   1.281   1.286  13.224 -2.3281  0.5859  1.0778
 4655TIP3   OH235379   3.832   0.475   4.906  0.3103 -0.6708 -0.2511
 4655TIP3    H135380   3.820   0.565   4.938 -1.1994 -0.3942 -1.4731
 4655TIP3    H235381   3.793   0.420   4.973 -0.4325 -0.2825 -0.3624
 4656TIP3   OH235382   1.926   3.853  11.104 -0.7796  0.3205 -0.7369
 4656TIP3    H135383   2.008   3.902  11.112  0.7256 -2.1710  0.2911
 4656TIP3    H235384   1.945   3.768  11.144 -3.6212 -0.6690 -1.2762
 4657TIP3   OH235385   4.607   3.382   4.874 -0.4325  0.1456 -0.2324
 4657TIP3    H135386   4.655   3.328   4.938  0.9373  0.4177 -0.9928
 4657TIP3    H235387   4.670   3.449   4.849 -1.6855  1.3268 -0.2846
 4658TIP3   OH235388   6.243   3.875   4.590 -0.1552 -0.5346  0.1440
 4658TIP3    H135389   6.226   3.941   4.656 -0.1218 -0.0920 -0.2824
 4658TIP3    H235390   6.318   3.908   4.541 -0.9288 -0.2550 -0.8859
 4659TIP3   OH235391   2.309   4.618  16.295  0.1607  0.0528  0.2055
 4659TIP3    H135392   2.268   4.567  16.226 -0.0518  0.5238 -0.0179
 4659TIP3    H235393   2.355   4.553  16.349  0.0540 -0.3484 -0.1845
 4660TIP3   OH235394   4.065   1.923   4.891  0.2747  0.2868 -0.1184
 4660TIP3    H135395   4.001   1.881   4.834 -0.7537  0.7487  0.6572
 4660TIP3    H235396   4.127   1.853   4.912 -1.8954 -1.2074  1.8780
 4661TIP3   OH235397   5.947   4.932   3.309 -0.2710 -0.4025 -0.0514
 4661TIP3    H135398   5.990   5.016   3.326 -0.5725  0.0277 -1.2895
 4661TIP3    H235399   6.013   4.880   3.263 -0.4389 -0.4591 -0.2297
 4662TIP3   OH235400   3.658   4.281   4.335  0.2353  0.5642  0.3384
 4662TIP3    H135401   3.721   4.229   4.285 -0.3030  1.5352 -1.4234
 4662TIP3    H235402   3.582   4.287   4.278 -0.8682  0.7444  1.7839
 4663TIP3   OH235403   6.636   2.909  13.991  0.8717  0.1066 -0.4585
 4663TIP3    H135404   6.575   2.837  14.011  0.0453  0.5864 -1.1882
 4663TIP3    H235405   6.709   2.866  13.946  0.7786 -0.3858 -0.1547
 4664TIP3   OH235406   3.072   4.179  15.051 -0.2941 -0.9114 -0.2537
 4664TIP3    H135407   3.056   4.136  15.135 -1.8199 -0.0247 -0.0449
 4664TIP3    H235408   3.149   4.135  15.015  1.7211  0.0007  2.5299
 4665TIP3   OH235409   6.648   0.255  15.819  0.1175  0.0644 -0.1052
 4665TIP3    H135410   6.589   0.193  15.776 -1.4054 -0.4075  2.4431
 4665TIP3    H235411   6.736   0.226  15.795 -0.6171 -0.3612 -2.4929
 4666TIP3   OH235412   2.220   0.275   0.941 -0.7538 -0.0119 -0.1246
 4666TIP3    H135413   2.192   0.243   0.855  0.6220  0.4343 -0.7774
 4666TIP3    H235414   2.154   0.339   0.966 -0.2153  1.2397 -1.7433
 4667TIP3   OH235415   4.772   5.493  12.597 -0.7026 -0.1147  0.4147
 4667TIP3    H135416   4.772   5.550  12.674 -0.4085  0.2392  0.1596
 4667TIP3    H235417   4.746   5.551  12.525  1.7216  0.2633 -0.2327
 4668TIP3   OH235418   5.715   3.615   5.645 -0.3976  0.1930 -0.2942
 4668TIP3    H135419   5.748   3.562   5.572  2.1158  0.1252  0.7773
 4668TIP3    H235420   5.644   3.563   5.682  1.3213 -2.0204  0.0904
 4669TIP3   OH235421   4.497   0.232   5.169 -0.0122  0.7454 -0.1260
 4669TIP3    H135422   4.461   0.177   5.100 -1.2729  2.1911 -0.6579
 4669TIP3    H235423   4.459   0.197   5.250  2.6036 -1.9059  0.1545
 4670TIP3   OH235424   6.152   0.070   3.191 -0.8877 -0.5145 -0.5960
 4670TIP3    H135425   6.132   0.164   3.187  1.5029  0.2770  2.5262
 4670TIP3    H235426   6.246   0.065   3.179 -0.7488 -2.3261  0.8869
 4671TIP3   OH235427   2.601   6.069   4.234 -0.4519 -0.6588 -0.3087
 4671TIP3    H135428   2.570   6.119   4.309 -1.2479 -1.1775 -0.2824
 4671TIP3    H235429   2.672   6.122   4.197  0.5580 -0.7954  1.3131
 4672TIP3   OH235430   5.333   3.204   5.661  0.2887  0.5249  0.1408
 4672TIP3    H135431   5.302   3.294   5.662  1.2171  0.8549  1.6006
 4672TIP3    H235432   5.341   3.179   5.753  0.7535 -0.8010 -0.2291
 4673TIP3   OH235433   4.277   5.110   3.627  0.2778  0.4716  0.1224
 4673TIP3    H135434   4.359   5.152   3.651 -0.8406  2.1123  1.3132
 4673TIP3    H235435   4.221   5.182   3.597 -0.3403 -0.7695 -1.9310
 4674TIP3   OH235436   4.116   5.557   4.241  0.0612 -0.1250  0.0598
 4674TIP3    H135437   4.140   5.649   4.235 -1.7218  0.3460 -0.6291
 4674TIP3    H235438   4.164   5.524   4.317  0.3307  1.5013  0.6322
 4675TIP3   OH235439   2.500   3.855  14.433 -0.2282 -0.3721  0.0533
 4675TIP3    H135440   2.554   3.800  14.490 -1.2123 -2.8390 -1.2652
 4675TIP3    H235441   2.421   3.803  14.417 -1.3167  1.5285 -1.1366
 4676TIP3   OH235442   2.625   2.193  16.383  0.3475  0.1666 -0.4176
 4676TIP3    H135443   2.580   2.264  16.429  1.9050  1.3191 -0.5775
 4676TIP3    H235444   2.591   2.113  16.423  0.1537  1.0599  1.3329
 4677TIP3   OH235445   6.214   3.977   1.265  0.4677 -0.1201  0.3411
 4677TIP3    H135446   6.309   3.975   1.259  0.5751 -0.3097  1.6906
 4677TIP3    H235447   6.185   4.012   1.181  1.7024 -0.3955 -0.2204
 4678TIP3   OH235448   2.859   2.635  14.872 -0.4727  0.6116 -0.0789
 4678TIP3    H135449   2.867   2.579  14.795  0.0995  0.1003  0.3462
 4678TIP3    H235450   2.789   2.697  14.849 -1.8462 -0.9195 -0.1588
 4679TIP3   OH235451   3.223   5.836  10.487 -0.1205  0.2747  0.4697
 4679TIP3    H135452   3.184   5.809  10.570  1.0905  0.2627  1.0555
 4679TIP3    H235453   3.277   5.762  10.461  2.9819  1.8337  1.9252
 4680TIP3   OH235454   1.529   4.623   5.486  0.8018  0.4740  0.2960
 4680TIP3    H135455   1.573   4.619   5.571 -0.6255  0.0962  1.0432
 4680TIP3    H235456   1.500   4.714   5.478  1.2575  0.5990  0.0374
 4681TIP3   OH235457   5.635   5.167   4.905 -0.2622 -0.3670 -0.4580
 4681TIP3    H135458   5.654   5.211   4.822  0.8509  0.6146  0.2769
 4681TIP3    H235459   5.540   5.162   4.908 -0.6775  3.8499  0.2584
 4682TIP3   OH235460   4.160   2.482   2.171  0.0008 -0.3025 -0.2646
 4682TIP3    H135461   4.122   2.509   2.255 -0.4413  0.1190 -0.5951
 4682TIP3    H235462   4.136   2.391   2.161 -1.3797  0.0951 -0.7125
 4683TIP3   OH235463   0.726   4.126   3.102  0.2950  0.2388 -0.2467
 4683TIP3    H135464   0.780   4.196   3.137  1.0211 -0.0480 -0.7654
 4683TIP3    H235465   0.722   4.061   3.172  0.4056  0.3837 -0.1081
 4684TIP3   OH235466   0.087   4.556   5.931 -0.0862  0.3529 -0.2699
 4684TIP3    H135467   0.176   4.524   5.936  0.1838  0.9325 -1.1228
 4684TIP3    H235468   0.088   4.638   5.981  0.2238  1.0829 -1.4204
 4685TIP3   OH235469   0.822   5.707   2.936  0.3835  0.5405  0.4118
 4685TIP3    H135470   0.778   5.709   3.021 -2.6701  0.4289 -1.0275
 4685TIP3    H235471   0.759   5.665   2.878  1.8036  1.8242 -2.2165
 4686TIP3   OH235472   4.066   2.934  17.471 -0.2964 -0.7910  0.3543
 4686TIP3    H135473   4.124   3.007  17.452 -0.3729 -1.2664 -2.0034
 4686TIP3    H235474   4.115   2.879  17.533  1.4645 -0.7673 -0.9571
 4687TIP3   OH235475   2.540   1.785   2.928  0.0878  0.2967  0.2787
 4687TIP3    H135476   2.448   1.760   2.928  0.0998 -0.0104 -2.1371
 4687TIP3    H235477   2.585   1.711   2.969 -0.2713 -2.1908 -3.3126
 4688TIP3   OH235478   5.358   4.448   3.597  0.5186 -0.3166 -0.3619
 4688TIP3    H135479   5.372   4.372   3.653 -1.3591 -0.0083  0.6066
 4688TIP3    H235480   5.287   4.422   3.539 -1.1277  1.1237  0.9256
 4689TIP3   OH235481   6.617   3.044  14.228 -0.0179  0.2257  0.2061
 4689TIP3    H135482   6.528   3.062  14.261 -1.3638  0.6858 -3.2120
 4689TIP3    H235483   6.604   2.976  14.162  1.4862  2.6652 -2.8614
 4690TIP3   OH235484   4.064   5.630   1.055  0.5260  0.4009 -0.3754
 4690TIP3    H135485   3.989   5.689   1.058 -0.0115 -0.2590 -0.4385
 4690TIP3    H235486   4.117   5.654   1.131  1.1321  1.9956 -1.2604
 4691TIP3   OH235487   5.765   4.859  12.554 -0.1754 -0.3941  0.2779
 4691TIP3    H135488   5.736   4.849  12.464  0.4658 -0.4210  0.0638
 4691TIP3    H235489   5.774   4.769  12.587 -1.3083 -0.3696  0.6754
 4692TIP3   OH235490   6.220   0.441  13.831 -0.8288 -0.8868  0.1573
 4692TIP3    H135491   6.244   0.409  13.918  0.5194 -0.4399 -0.0211
 4692TIP3    H235492   6.154   0.380  13.800  0.3346 -2.4293  0.5717
 4693TIP3   OH235493   5.858   2.190  14.893 -0.6926  0.1739 -0.0801
 4693TIP3    H135494   5.922   2.165  14.958 -1.1539  0.1200  0.3613
 4693TIP3    H235495   5.786   2.128  14.904 -1.0041  0.4911 -0.2809
 4694TIP3   OH235496   3.775   0.328  12.837  0.6051 -0.1678 -0.1424
 4694TIP3    H135497   3.754   0.386  12.910 -0.0730 -0.5691 -0.0076
 4694TIP3    H235498   3.703   0.339  12.775  1.8100  1.1596 -1.4062
 4695TIP3   OH235499   3.695   0.906  17.258 -0.4812 -0.4209 -0.0802
 4695TIP3    H135500   3.749   0.921  17.180 -0.3973  1.3728  0.2724
 4695TIP3    H235501   3.757   0.882  17.326  0.3607  3.6258  0.8763
 4696TIP3   OH235502   3.197   3.594   4.990 -0.2980  0.0875 -0.2262
 4696TIP3    H135503   3.187   3.658   5.061 -0.7808 -0.7839  0.5172
 4696TIP3    H235504   3.126   3.615   4.929  0.0599  0.7833 -0.4191
 4697TIP3   OH235505   1.327   2.037  12.310 -0.3327 -0.2638 -0.1700
 4697TIP3    H135506   1.276   2.106  12.352 -0.5755 -1.4885  1.6416
 4697TIP3    H235507   1.373   2.081  12.238 -0.4435  1.7681  0.9467
 4698TIP3   OH235508   6.356   4.160   6.332 -0.1038 -0.2089  0.2311
 4698TIP3    H135509   6.346   4.247   6.293 -1.7832 -1.5190 -2.5625
 4698TIP3    H235510   6.441   4.163   6.376  1.2895  1.9742 -2.3070
 4699TIP3   OH235511   6.180   6.707   5.675 -0.2355  0.2178  0.1117
 4699TIP3    H135512   6.208   6.796   5.655 -1.2739  0.5474  0.0511
 4699TIP3    H235513   6.157   6.669   5.590 -0.7554  0.2394  0.2380
 4700TIP3   OH235514   4.494   0.189  15.670  0.3854 -0.3190  0.0847
 4700TIP3    H135515   4.520   0.112  15.620 -1.2874 -0.2842 -0.9137
 4700TIP3    H235516   4.541   0.181  15.752  3.5840 -0.1588 -1.5814
 4701TIP3   OH235517   2.375   0.103  17.308  0.1455 -0.6760  0.4014
 4701TIP3    H135518   2.422   0.166  17.364  1.4112 -1.3116  0.0921
 4701TIP3    H235519   2.283   0.117  17.329  0.3875  1.1948  0.4463
 4702TIP3   OH235520   0.751   1.129  13.330 -0.8800  0.3080  0.1878
 4702TIP3    H135521   0.824   1.185  13.356 -0.7575 -0.5494  1.8495
 4702TIP3    H235522   0.700   1.182  13.269  0.4396  1.3818 -0.0271
 4703TIP3   OH235523   1.119   4.399  16.339 -0.4967  0.4260 -0.1585
 4703TIP3    H135524   1.213   4.388  16.351 -0.4779  1.0701  0.3081
 4703TIP3    H235525   1.091   4.319  16.294  0.7000  1.2780 -2.6411
 4704TIP3   OH235526   3.759   0.954  12.009  0.6895 -0.3138 -0.2134
 4704TIP3    H135527   3.744   0.928  12.100  1.4806  1.1833  0.3859
 4704TIP3    H235528   3.679   1.000  11.983  0.6860 -0.2553 -0.0959
 4705TIP3   OH235529   6.068   5.437   1.338 -0.2962  0.4623 -0.2832
 4705TIP3    H135530   6.129   5.461   1.268 -0.7468  1.5204 -0.3292
 4705TIP3    H235531   6.013   5.369   1.299 -0.6141  1.1168 -1.0133
 4706TIP3   OH235532   1.602   5.743  11.799  0.2962  0.0604 -0.0938
 4706TIP3    H135533   1.540   5.752  11.872 -0.0967 -0.1944 -0.3942
 4706TIP3    H235534   1.687   5.764  11.838 -0.0935  1.4379  0.0881
 4707TIP3   OH235535   3.255   5.959  11.247  0.0266 -0.4409 -0.8165
 4707TIP3    H135536   3.170   5.970  11.203 -0.2780 -0.3504 -0.2091
 4707TIP3    H235537   3.309   5.915  11.181 -0.1684  0.4287 -1.5797
 4708TIP3   OH235538   3.217   5.081  15.298 -0.1633 -0.2084  0.2572
 4708TIP3    H135539   3.171   5.037  15.227  0.2011 -0.9704  0.4808
 4708TIP3    H235540   3.306   5.092  15.264  0.4506 -2.0144  1.1583
 4709TIP3   OH235541   5.853   1.747   4.963 -0.6479  0.5605  0.5332
 4709TIP3    H135542   5.927   1.804   4.941  0.8573 -0.8635  1.5990
 4709TIP3    H235543   5.814   1.725   4.879  1.6765 -0.5376 -0.3522
 4710TIP3   OH235544   2.045   4.774   3.988 -0.4765 -0.2726 -0.1222
 4710TIP3    H135545   2.133   4.760   4.022 -0.6770  1.3333  1.1821
 4710TIP3    H235546   2.001   4.825   4.056 -1.7386  0.8289 -1.6887
 4711TIP3   OH235547   3.440   5.764  13.741  0.0045  0.1488  0.2052
 4711TIP3    H135548   3.407   5.675  13.731  0.7259  0.0322 -1.5122
 4711TIP3    H235549   3.482   5.784  13.657 -2.2166  2.9752 -0.3841
 4712TIP3   OH235550   1.183   5.056  16.492 -0.7961 -0.1425 -0.2414
 4712TIP3    H135551   1.168   5.008  16.573 -0.5642  0.0427 -0.0867
 4712TIP3    H235552   1.277   5.074  16.491 -0.9685  0.8516  0.0223
 4713TIP3   OH235553   3.379   5.247   2.520  0.0033 -0.2681  0.5854
 4713TIP3    H135554   3.368   5.180   2.588 -0.2358  0.6771  1.5014
 4713TIP3    H235555   3.469   5.276   2.530  0.6772 -1.6547 -0.9773
 4714TIP3   OH235556   3.957   5.582   2.163 -0.7842 -0.0020 -0.3049
 4714TIP3    H135557   4.053   5.583   2.162 -0.7718 -0.5223 -1.4425
 4714TIP3    H235558   3.932   5.674   2.175 -0.1282  0.5239 -2.5404
 4715TIP3   OH235559   1.556   3.956  13.404 -0.5884 -0.0249 -0.0558
 4715TIP3    H135560   1.579   3.960  13.497  1.3187  1.0359 -0.5323
 4715TIP3    H235561   1.509   4.038  13.387 -2.0002 -0.7448  0.1879
 4716TIP3   OH235562   3.449   1.747  11.728  0.1875  0.0254  0.0471
 4716TIP3    H135563   3.412   1.830  11.700 -0.5749 -0.7898 -1.5359
 4716TIP3    H235564   3.530   1.739  11.678  0.9633  0.4047  1.2076
 4717TIP3   OH235565   2.602   5.645  11.423  0.2039  0.0079  0.1084
 4717TIP3    H135566   2.526   5.629  11.367  0.2109 -1.0644  0.3881
 4717TIP3    H235567   2.564   5.679  11.505  0.2836  3.2051 -1.0344
 4718TIP3   OH235568   2.685   1.510   4.298 -0.1944 -0.4687 -0.5384
 4718TIP3    H135569   2.618   1.576   4.311  1.0113  0.9527 -1.2671
 4718TIP3    H235570   2.756   1.556   4.252  0.5911 -2.3112 -1.2791
 4719TIP3   OH235571   6.081   5.853  12.927 -0.7820  0.2184  0.2633
 4719TIP3    H135572   6.127   5.770  12.944  0.8088  0.4876 -2.2353
 4719TIP3    H235573   6.022   5.834  12.854  1.1907  1.6650 -1.8691
 4720TIP3   OH235574   2.247   2.613  11.612 -0.0531  0.2136 -0.0311
 4720TIP3    H135575   2.312   2.545  11.627  0.8328  1.0764  0.1104
 4720TIP3    H235576   2.163   2.569  11.625  0.4482 -1.1536 -1.1466
 4721TIP3   OH235577   2.894   2.332   5.767 -0.2701 -0.3910  0.0901
 4721TIP3    H135578   2.964   2.281   5.726  0.5230  0.5355  0.2733
 4721TIP3    H235579   2.857   2.273   5.832  2.8946  0.2919  2.7440
 4722TIP3   OH235580   1.710   4.702   3.348  0.3155 -0.2150 -0.0471
 4722TIP3    H135581   1.755   4.745   3.421  1.4207 -0.6232 -0.4850
 4722TIP3    H235582   1.778   4.686   3.283 -0.4335 -0.9727 -0.6638
 4723TIP3   OH235583   5.861   4.691  13.539  0.5307 -0.0102  0.3018
 4723TIP3    H135584   5.840   4.759  13.603 -2.8719  0.4621 -1.0975
 4723TIP3    H235585   5.905   4.737  13.468  2.6727 -0.2320  1.3948
 4724TIP3   OH235586   6.632   6.577   6.276 -0.4974 -0.1414  0.0574
 4724TIP3    H135587   6.722   6.604   6.260 -0.8997  0.7629 -0.7689
 4724TIP3    H235588   6.601   6.636   6.344 -0.1802 -1.1005  1.0729
 4725TIP3   OH235589   3.639   1.032  12.404  0.4770  0.6355  0.1940
 4725TIP3    H135590   3.698   1.087  12.353 -0.6548  1.0648 -0.6731
 4725TIP3    H235591   3.612   0.963  12.344 -1.5794  1.6596 -0.1196
 4726TIP3   OH235592   5.941   1.808   4.277  0.1172 -0.1382 -0.4092
 4726TIP3    H135593   5.991   1.867   4.333  0.6594 -0.4554 -0.5607
 4726TIP3    H235594   5.860   1.791   4.326  0.0492  0.5617 -0.2742
 4727TIP3   OH235595   3.789   2.062   5.850 -0.1191  0.2370  0.0158
 4727TIP3    H135596   3.814   2.046   5.759 -0.1223 -0.2784  0.0997
 4727TIP3    H235597   3.698   2.032   5.856 -0.0510  0.0674  0.2365
 4728TIP3   OH235598   1.501   0.192   1.625 -0.5450 -0.3347 -0.5712
 4728TIP3    H135599   1.513   0.115   1.681 -0.3466  0.4590  0.4932
 4728TIP3    H235600   1.480   0.155   1.539 -0.7397 -1.5730 -0.0143
 4729TIP3   OH235601   3.329   4.633  16.684 -0.3640 -0.0901  0.0054
 4729TIP3    H135602   3.366   4.694  16.747 -1.3765 -0.0352  0.5685
 4729TIP3    H235603   3.372   4.655  16.601  0.3723  0.3829  0.5024
 4730TIP3   OH235604   1.967   2.727   0.485 -0.2552 -0.5524 -0.0048
 4730TIP3    H135605   2.016   2.648   0.508 -0.9673 -1.2214 -0.7204
 4730TIP3    H235606   2.033   2.785   0.446  0.2260 -0.8835  0.3037
 4731TIP3   OH235607   5.871   4.107   3.767  0.3458 -0.0779  0.6072
 4731TIP3    H135608   5.805   4.149   3.712 -0.9431  0.4022  2.4151
 4731TIP3    H235609   5.925   4.179   3.800  1.0852 -0.3553  0.0460
 4732TIP3   OH235610   0.421   3.416  16.862  0.1732  0.6287  0.5180
 4732TIP3    H135611   0.506   3.401  16.823  0.5451  0.3757  1.3980
 4732TIP3    H235612   0.361   3.424  16.788  0.8105 -0.0970 -0.0833
 4733TIP3   OH235613   3.174   3.087   1.070  0.2293  0.6447  0.6694
 4733TIP3    H135614   3.249   3.035   1.042 -1.8462 -2.2436 -0.0130
 4733TIP3    H235615   3.114   3.024   1.110 -2.6346  2.4299 -0.4467
 4734TIP3   OH235616   2.320   6.096   2.090  0.9606 -0.4941 -0.2905
 4734TIP3    H135617   2.393   6.095   2.151  1.2640  1.5574 -0.5381
 4734TIP3    H235618   2.244   6.120   2.143  1.2905  1.6554 -0.7092
 4735TIP3   OH235619   0.144   4.657  11.427  0.1460  0.2798 -0.1654
 4735TIP3    H135620   0.102   4.578  11.462  1.3403 -0.0362  0.6330
 4735TIP3    H235621   0.198   4.625  11.355  1.8861  0.0536  1.1568
 4736TIP3   OH235622   3.301   2.088   5.445 -0.3037  0.2259  0.0774
 4736TIP3    H135623   3.379   2.068   5.395 -0.5884  0.7894 -0.6147
 4736TIP3    H235624   3.250   2.007   5.446 -0.0816  0.0858 -0.1494
 4737TIP3   OH235625   3.438   6.113   1.643 -0.0059 -0.3257  0.0593
 4737TIP3    H135626   3.410   6.036   1.593  0.1271  0.1717 -0.7944
 4737TIP3    H235627   3.442   6.082   1.733  2.4371 -2.0452 -0.5258
 4738TIP3   OH235628   4.053   1.016  17.073 -0.9831 -0.4283  0.0100
 4738TIP3    H135629   4.101   0.935  17.059 -1.1557 -0.4816 -0.2822
 4738TIP3    H235630   3.969   1.002  17.028  0.1480  1.0649 -2.8518
 4739TIP3   OH235631   0.307   4.653   5.698 -0.1037 -0.1210  0.0004
 4739TIP3    H135632   0.330   4.692   5.614  0.1372  1.0290  0.5878
 4739TIP3    H235633   0.211   4.654   5.699 -0.1045  0.0191 -0.1849
 4740TIP3   OH235634   6.636   2.173  15.769 -0.5101  0.1363  0.8563
 4740TIP3    H135635   6.721   2.147  15.804 -0.5149  0.0216  0.7812
 4740TIP3    H235636   6.576   2.166  15.843 -0.4511  0.2326  0.9134
 4741TIP3   OH235637   3.839   4.335   1.453 -0.2126  0.2869 -0.4873
 4741TIP3    H135638   3.925   4.310   1.420  1.2684  1.0025  2.4450
 4741TIP3    H235639   3.778   4.312   1.383  2.2559 -0.9547 -2.3746
 4742TIP3   OH235640   5.109   2.315  14.749  0.3009 -0.1249 -0.0484
 4742TIP3    H135641   5.179   2.266  14.704 -0.1864 -0.3490 -0.5738
 4742TIP3    H235642   5.037   2.252  14.757 -0.0704  0.2908 -0.0722
 4743TIP3   OH235643   4.394   5.210   5.504  0.2837 -0.3043 -0.7223
 4743TIP3    H135644   4.409   5.139   5.442  0.2724 -0.5361 -0.4592
 4743TIP3    H235645   4.299   5.211   5.517  0.2759 -0.1887 -0.7865
 4744TIP3   OH235646   5.596   0.696  14.481  0.0005 -0.0848  0.1071
 4744TIP3    H135647   5.525   0.711  14.544  0.7636  0.3480  0.8866
 4744TIP3    H235648   5.591   0.603  14.460 -0.4624 -0.1648  0.5665
 4745TIP3   OH235649   6.213   0.752   4.080  0.8246  0.8856 -0.9386
 4745TIP3    H135650   6.155   0.702   4.138  0.8752 -0.1285 -1.7372
 4745TIP3    H235651   6.211   0.704   3.997  1.2616  1.9502 -1.5862
 4746TIP3   OH235652   3.145   3.417  13.195  0.1658 -0.0972  0.4157
 4746TIP3    H135653   3.146   3.513  13.201  0.9039 -0.0357 -0.4791
 4746TIP3    H235654   3.104   3.399  13.110  0.7523 -0.5445  0.2205
 4747TIP3   OH235655   5.432   5.337   1.215  0.0001 -0.5057 -0.0689
 4747TIP3    H135656   5.412   5.397   1.143  0.3962 -0.2499  0.0322
 4747TIP3    H235657   5.347   5.324   1.259  0.0608  0.7392  0.4767
 4748TIP3   OH235658   3.019   1.975   1.131  0.7958  0.2518  0.1226
 4748TIP3    H135659   2.935   2.002   1.094  0.8194  1.7930  1.1241
 4748TIP3    H235660   3.084   2.020   1.076  0.9378 -0.1186 -0.0142
 4749TIP3   OH235661   2.798   1.740  10.953  0.4126  0.2242  0.2729
 4749TIP3    H135662   2.779   1.649  10.974  0.8008 -0.1386 -0.9016
 4749TIP3    H235663   2.712   1.782  10.949  0.2502  0.0002  1.1569
 4750TIP3   OH235664   0.053   5.776  12.317 -0.1142 -0.2932  0.2271
 4750TIP3    H135665   0.099   5.848  12.361  0.1745 -0.6371  0.4932
 4750TIP3    H235666   0.073   5.699  12.370 -0.4276 -0.5708 -0.0542
 4751TIP3   OH235667   2.223   3.177   0.195 -0.2394 -0.3834  0.3922
 4751TIP3    H135668   2.238   3.159   0.288 -0.9542  0.0340  0.5972
 4751TIP3    H235669   2.128   3.184   0.187 -0.1302  0.7741 -0.1381
 4752TIP3   OH235670   4.732   0.316   0.241 -0.4513  0.2103 -0.8438
 4752TIP3    H135671   4.716   0.387   0.304 -0.5677  1.1815 -1.9313
 4752TIP3    H235672   4.656   0.259   0.250 -2.1034  2.0213 -2.2882
 4753TIP3   OH235673   6.548   5.889  14.707  0.4570 -0.1213 -0.2062
 4753TIP3    H135674   6.532   5.940  14.628 -0.4481  1.2730  0.8239
 4753TIP3    H235675   6.505   5.938  14.777  0.9308 -1.4828  1.1140
 4754TIP3   OH235676   5.516   2.774  12.718  0.0697  0.3215  0.4194
 4754TIP3    H135677   5.464   2.767  12.638  0.8951  0.6717 -0.1603
 4754TIP3    H235678   5.503   2.690  12.763 -0.6039  0.2220  0.0499
 4755TIP3   OH235679   2.354   2.093   5.537 -0.3982  0.3677 -0.7228
 4755TIP3    H135680   2.394   2.176   5.512 -0.4561  0.3361 -0.9200
 4755TIP3    H235681   2.382   2.031   5.470 -0.0265  0.1319 -0.3583
 4756TIP3   OH235682   0.101   6.387  12.639 -0.1849  0.0624 -0.8402
 4756TIP3    H135683   0.144   6.313  12.595 -1.9452 -0.0697 -2.4922
 4756TIP3    H235684   0.078   6.353  12.726  1.8272 -0.2517 -0.3776
 4757TIP3   OH235685   2.551   2.486  13.810  0.2296 -0.7487 -0.4297
 4757TIP3    H135686   2.472   2.535  13.830  1.1936  1.3804 -1.5037
 4757TIP3    H235687   2.564   2.428  13.885  0.3331  2.3655  2.1395
 4758TIP3   OH235688   1.666   4.655   4.096  0.1538  0.3953  0.9315
 4758TIP3    H135689   1.596   4.593   4.079 -0.7112  0.8706  2.6037
 4758TIP3    H235690   1.695   4.683   4.009 -0.0164 -1.6484  0.1526
 4759TIP3   OH235691   6.439   2.104   5.555  0.0156  0.1564  0.2111
 4759TIP3    H135692   6.352   2.078   5.585  0.1083  0.8045  1.0841
 4759TIP3    H235693   6.471   2.163   5.624  0.5587  1.0663 -0.7909
 4760TIP3   OH235694   1.978   2.897   0.778 -0.1863  0.2380 -0.5400
 4760TIP3    H135695   1.954   2.862   0.864  2.8842  0.3274  0.4617
 4760TIP3    H235696   1.948   2.830   0.716  1.5788 -2.1725  1.0070
 4761TIP3   OH235697   5.149   2.226   5.555 -0.0027 -0.9156 -0.2416
 4761TIP3    H135698   5.098   2.182   5.487  0.8684  0.0981 -1.6144
 4761TIP3    H235699   5.144   2.319   5.532 -1.7600 -0.2030  2.5377
 4762TIP3   OH235700   1.461   5.859  13.718 -0.0263 -0.5999  0.3623
 4762TIP3    H135701   1.432   5.770  13.738 -0.3069 -0.3670  0.9982
 4762TIP3    H235702   1.411   5.915  13.778 -1.3685  0.1739 -1.3587
 4763TIP3   OH235703   0.341   1.179   1.332  0.7181  0.6865  0.4372
 4763TIP3    H135704   0.370   1.127   1.407  1.0647 -2.1662 -1.5200
 4763TIP3    H235705   0.267   1.131   1.297  0.3247  2.1594 -0.8820
 4764TIP3   OH235706   6.068   5.392   3.448 -1.3361 -0.1773 -0.0677
 4764TIP3    H135707   5.980   5.357   3.456 -0.4608 -2.5986 -0.0217
 4764TIP3    H235708   6.076   5.418   3.356 -1.7240 -1.0702 -0.3575
 4765TIP3   OH235709   3.958   1.546   1.911 -0.5587 -0.5446  0.0911
 4765TIP3    H135710   3.986   1.485   1.979  1.2707 -0.6234 -0.6750
 4765TIP3    H235711   3.945   1.492   1.834 -0.1997 -0.1385 -0.2580
 4766TIP3   OH235712   4.574   0.678  12.125 -0.0625  0.4675  0.0879
 4766TIP3    H135713   4.632   0.604  12.104 -2.0512 -1.2622  0.4198
 4766TIP3    H235714   4.604   0.708  12.211  1.4201  0.7560 -0.4992
 4767TIP3   OH235715   4.999   0.974  17.411  0.2235  0.0501  0.2493
 4767TIP3    H135716   4.905   0.994  17.416  0.3068  0.9303 -1.0975
 4767TIP3    H235717   5.015   0.957  17.318  1.6487  1.2968  0.2234
 4768TIP3   OH235718   5.113   1.272   3.625 -0.1008 -0.1503  0.0470
 4768TIP3    H135719   5.090   1.312   3.709 -0.1257  0.3169 -0.1817
 4768TIP3    H235720   5.208   1.261   3.628 -0.1462 -0.4835  0.2893
 4769TIP3   OH235721   3.456   0.313  16.475  0.0158  0.3519 -0.1125
 4769TIP3    H135722   3.468   0.310  16.380 -0.5002 -0.0119 -0.1723
 4769TIP3    H235723   3.502   0.236  16.507 -0.6810 -0.0993 -0.1755
 4770TIP3   OH235724   5.723   2.945   1.086  0.1897  0.3563 -0.5891
 4770TIP3    H135725   5.766   2.877   1.034  1.8475  0.8262  0.0904
 4770TIP3    H235726   5.770   3.025   1.064 -0.0924  0.8295  0.4616
 4771TIP3   OH235727   3.539   2.966   0.468  0.7628  0.0511  0.5272
 4771TIP3    H135728   3.590   2.896   0.427  2.5595  1.6441 -0.1053
 4771TIP3    H235729   3.590   3.045   0.452 -0.1598  1.2452  2.9812
 4772TIP3   OH235730   0.988   0.385   0.219  0.0414  0.3536  0.3179
 4772TIP3    H135731   1.042   0.414   0.293 -1.1436  1.9702  0.5970
 4772TIP3    H235732   1.038   0.412   0.142  1.2057 -1.1925  0.4960
 4773TIP3   OH235733   0.670   5.541  11.051 -0.1060 -0.2202 -0.0244
 4773TIP3    H135734   0.601   5.538  11.118  0.7576 -2.6797  0.8652
 4773TIP3    H235735   0.651   5.466  10.994  0.9821 -0.0254 -0.6654
 4774TIP3   OH235736   1.742   5.091   3.330 -0.1235  0.3810  0.7001
 4774TIP3    H135737   1.673   5.027   3.314  0.4181 -0.1122  0.3067
 4774TIP3    H235738   1.818   5.058   3.282  0.5090  0.7020  1.4491
 4775TIP3   OH235739   2.523   5.795  12.398 -0.2857  0.2198  0.1386
 4775TIP3    H135740   2.594   5.844  12.439 -0.3059 -0.3167  0.8259
 4775TIP3    H235741   2.443   5.832  12.435 -0.3141 -0.0775  0.3782
 4776TIP3   OH235742   0.340   6.473  14.544 -0.2028  0.1535 -0.6288
 4776TIP3    H135743   0.286   6.427  14.609 -0.5637  0.8398 -0.4370
 4776TIP3    H235744   0.426   6.480  14.585 -0.4722  0.7236 -0.1513
 4777TIP3   OH235745   5.161   5.196   0.049  0.0852  0.2076  0.1010
 4777TIP3    H135746   5.223   5.257   0.007  0.6490  0.1104  0.7710
 4777TIP3    H235747   5.111   5.159  -0.024 -0.0730  1.2533 -0.3422
 4778TIP3   OH235748   0.264   3.145  16.989  0.0468 -0.3530  0.2929
 4778TIP3    H135749   0.255   3.196  16.909  2.1947 -1.4195 -0.7043
 4778TIP3    H235750   0.178   3.104  17.001 -0.4970  0.3130 -1.1186
 4779TIP3   OH235751   1.740   6.029   3.504 -0.1196  0.0267 -0.1547
 4779TIP3    H135752   1.689   6.062   3.578 -0.1613 -0.3647 -0.0116
 4779TIP3    H235753   1.716   5.937   3.497  1.1881 -0.3850  0.4381
 4780TIP3   OH235754   1.200   3.245   1.694 -0.3213 -0.3458 -0.2826
 4780TIP3    H135755   1.278   3.238   1.749 -0.1389  1.7760 -0.1573
 4780TIP3    H235756   1.133   3.195   1.740  0.6237 -1.1107  0.2903
 4781TIP3   OH235757   5.595   5.407   4.076 -0.7165  0.1901  0.2040
 4781TIP3    H135758   5.543   5.481   4.046  0.4135  0.2520 -1.7570
 4781TIP3    H235759   5.534   5.334   4.079 -1.2677  0.6135 -0.4836
 4782TIP3   OH235760   3.793   6.072  15.119  0.1368  0.2862 -0.2446
 4782TIP3    H135761   3.849   6.042  15.047 -0.2842  0.5541 -0.6815
 4782TIP3    H235762   3.855   6.096  15.188  0.5490  0.2160 -0.5854
 4783TIP3   OH235763   4.201   0.615   2.511  0.7409 -0.4057 -0.0508
 4783TIP3    H135764   4.228   0.587   2.424  2.2458  2.0467 -0.4589
 4783TIP3    H235765   4.111   0.585   2.519  0.4296 -0.3712 -2.6259
 4784TIP3   OH235766   3.107   1.547   0.849  0.3348 -0.2613 -0.0361
 4784TIP3    H135767   3.027   1.538   0.798  0.0303  1.2638  0.1518
 4784TIP3    H235768   3.157   1.467   0.829 -0.2132 -0.1676 -1.9140
 4785TIP3   OH235769   1.615   4.137  11.439  0.6404 -0.5259 -0.0899
 4785TIP3    H135770   1.685   4.110  11.499 -0.2829  0.2703  1.4111
 4785TIP3    H235771   1.582   4.055  11.403  1.2507 -1.0242  0.4544
 4786TIP3   OH235772   4.234   6.479   4.877  0.5861  0.2453  0.1939
 4786TIP3    H135773   4.212   6.566   4.844  1.2916 -0.2278 -1.6248
 4786TIP3    H235774   4.327   6.485   4.899  0.8439 -0.2656 -0.7268
 4787TIP3   OH235775   0.591   5.689  15.514 -0.5736 -0.4399 -0.6131
 4787TIP3    H135776   0.581   5.784  15.508 -0.5565 -0.3525  0.5223
 4787TIP3    H235777   0.657   5.668  15.448  0.6440  0.5725  0.2333
 4788TIP3   OH235778   1.717   2.725  12.879 -0.1031 -0.2367 -0.4931
 4788TIP3    H135779   1.667   2.804  12.896 -0.7535 -0.7126 -0.1517
 4788TIP3    H235780   1.805   2.756  12.856 -0.6652  0.6276 -1.5830
 4789TIP3   OH235781   4.567   0.081  15.215  0.5330  0.2016  0.2211
 4789TIP3    H135782   4.601   0.114  15.298  2.6003  0.0360 -0.5169
 4789TIP3    H235783   4.485   0.037  15.239  0.9340  0.4035  2.1176
 4790TIP3   OH235784   1.172   6.289   5.063 -0.2942 -0.1838 -0.1657
 4790TIP3    H135785   1.128   6.278   4.979 -1.0028 -3.0459  0.4463
 4790TIP3    H235786   1.123   6.358   5.108 -1.2151 -0.0811 -1.3028
 4791TIP3   OH235787   5.207   2.776   0.699  0.0651 -0.4495  0.0733
 4791TIP3    H135788   5.146   2.791   0.626 -0.5856 -0.0621  0.6728
 4791TIP3    H235789   5.216   2.681   0.705 -1.0570 -0.5548  0.4108
 4792TIP3   OH235790   0.989   2.357  17.097  0.1508  0.4715 -0.0982
 4792TIP3    H135791   1.074   2.357  17.054  0.0633 -1.3202 -0.3336
 4792TIP3    H235792   1.010   2.359  17.191  0.4280  0.5051 -0.1594
 4793TIP3   OH235793   3.943   3.787   3.080  0.1818 -0.1114 -0.3908
 4793TIP3    H135794   3.909   3.866   3.121  2.5585  0.6602  0.2414
 4793TIP3    H235795   3.949   3.723   3.151 -0.9786 -0.6433 -0.7413
 4794TIP3   OH235796   2.108   4.431   3.745 -0.0364  0.3668 -0.3344
 4794TIP3    H135797   2.112   4.526   3.747 -0.8494  0.4036  0.3798
 4794TIP3    H235798   2.083   4.406   3.834 -0.5593 -0.4684 -0.6968
 4795TIP3   OH235799   5.703   2.545   2.813 -1.0310  0.2019 -0.6843
 4795TIP3    H135800   5.703   2.520   2.720 -1.0135 -0.8996 -0.3952
 4795TIP3    H235801   5.754   2.477   2.856  2.9363  2.9704 -0.4500
 4796TIP3   OH235802   2.231   1.929   1.628  0.5707  0.1112  0.4323
 4796TIP3    H135803   2.194   2.013   1.600 -1.2479 -1.6262 -2.9938
 4796TIP3    H235804   2.324   1.934   1.604 -0.0536  0.3035 -2.2112
 4797TIP3   OH235805   1.609   2.109   2.866 -0.2041  0.0902 -0.2789
 4797TIP3    H135806   1.611   2.187   2.810 -1.0843  0.1940 -0.1886
 4797TIP3    H235807   1.657   2.135   2.944  1.3011 -0.1584 -1.0875
 4798TIP3   OH235808   1.021   2.804  14.951 -0.2951  0.6209  0.1799
 4798TIP3    H135809   1.037   2.712  14.974 -1.9718  0.3143  0.1920
 4798TIP3    H235810   0.926   2.814  14.954 -0.1433  2.3730  0.1871
 4799TIP3   OH235811   4.475   6.102   2.763 -0.4285  0.0531  0.7785
 4799TIP3    H135812   4.457   6.138   2.850 -0.3272 -1.1431  1.3117
 4799TIP3    H235813   4.532   6.027   2.779 -1.0882 -0.7018 -0.2368
 4800TIP3   OH235814   1.084   4.370  14.527 -0.2745  0.1344 -0.8434
 4800TIP3    H135815   1.012   4.322  14.566  1.3782 -1.4028  0.4950
 4800TIP3    H235816   1.069   4.461  14.554 -1.1001 -0.3363  0.3859
 4801TIP3   OH235817   4.901   4.755  12.767 -0.2450  0.4901  0.4252
 4801TIP3    H135818   4.967   4.824  12.772 -0.3232  0.8101 -2.0498
 4801TIP3    H235819   4.833   4.790  12.709  0.0046 -1.8366 -1.4270
 4802TIP3   OH235820   3.670   6.335   3.117  0.0292  0.1657  0.0871
 4802TIP3    H135821   3.709   6.404   3.063 -0.1079  0.2233  0.0609
 4802TIP3    H235822   3.705   6.253   3.082  0.9532  0.2655  0.7294
 4803TIP3   OH235823   5.025   1.450   3.821  0.4255 -0.0495  0.1431
 4803TIP3    H135824   4.978   1.501   3.755 -0.5206  0.5263  1.2278
 4803TIP3    H235825   4.957   1.421   3.882  1.1155 -1.6471  0.1838
 4804TIP3   OH235826   4.210   4.333   4.777 -0.4011 -0.0795 -0.1478
 4804TIP3    H135827   4.194   4.239   4.786 -0.8492 -0.2009 -1.8215
 4804TIP3    H235828   4.304   4.340   4.764 -0.3740 -0.3133 -0.0857
 4805TIP3   OH235829   1.267   1.184  14.445  0.0609 -0.0652 -0.4498
 4805TIP3    H135830   1.304   1.120  14.506 -0.6076  0.3228  0.3732
 4805TIP3    H235831   1.323   1.261  14.454  0.1501 -0.1160 -0.5633
 4806TIP3   OH235832   2.612   4.791   2.710  1.2747 -0.4805  0.4428
 4806TIP3    H135833   2.621   4.701   2.740  0.8166 -0.6246  0.1605
 4806TIP3    H235834   2.569   4.837   2.782 -0.1880 -0.9150 -0.1151
 4807TIP3   OH235835   6.316   4.232  13.389 -0.5170 -0.1933  0.2987
 4807TIP3    H135836   6.229   4.252  13.355 -0.0644 -0.4160 -1.0687
 4807TIP3    H235837   6.300   4.177  13.466 -1.5808 -1.7995 -1.0027
 4808TIP3   OH235838   5.913   4.074  11.408 -0.2574 -0.2091  0.7384
 4808TIP3    H135839   5.936   4.164  11.429  0.4482 -0.1847 -0.0871
 4808TIP3    H235840   5.913   4.029  11.493 -0.1400  0.4640  1.0980
 4809TIP3   OH235841   2.277   6.648   5.308 -0.2031 -0.3569  0.6432
 4809TIP3    H135842   2.287   6.665   5.214  0.5195  1.9423  1.0829
 4809TIP3    H235843   2.283   6.734   5.349 -2.2668 -1.1093  2.6961
 4810TIP3   OH235844   2.131   6.665  13.678 -0.5940 -0.5156  0.1445
 4810TIP3    H135845   2.222   6.693  13.685 -0.2680 -1.4969 -0.0280
 4810TIP3    H235846   2.103   6.696  13.591 -0.0544 -1.2018 -0.2901
 4811TIP3   OH235847   5.441   0.570   4.332  0.8976 -0.0760 -0.3761
 4811TIP3    H135848   5.421   0.584   4.425  1.5948 -1.3399 -0.0101
 4811TIP3    H235849   5.476   0.654   4.302  0.6885  0.3407  0.5146
 4812TIP3   OH235850   3.428   5.531  13.990 -0.0582 -0.9499 -0.0981
 4812TIP3    H135851   3.377   5.539  13.909 -0.0158  1.3900  0.0495
 4812TIP3    H235852   3.367   5.490  14.052 -1.0189 -0.2815 -0.5642
 4813TIP3   OH235853   2.263   3.934  12.369 -0.3288  0.6010 -0.2978
 4813TIP3    H135854   2.297   3.958  12.455  2.4247 -0.2934 -1.0307
 4813TIP3    H235855   2.269   4.015  12.318  0.8339  0.4469 -0.4271
 4814TIP3   OH235856   3.751   2.286  12.791 -0.2792  0.0511 -0.5474
 4814TIP3    H135857   3.831   2.309  12.744 -0.9889  0.7331 -1.4538
 4814TIP3    H235858   3.683   2.340  12.751 -0.7162  1.6321  2.0924
 4815TIP3   OH235859   4.650   3.431  17.395  0.0649  0.4715 -0.0856
 4815TIP3    H135860   4.586   3.409  17.327  0.0420 -0.3399  0.1868
 4815TIP3    H235861   4.659   3.526  17.390 -0.6603  0.5192 -0.5752
 4816TIP3   OH235862   1.273   3.540   5.243  0.6694 -0.6601  0.0455
 4816TIP3    H135863   1.264   3.484   5.166 -1.0392  1.3015 -1.3013
 4816TIP3    H235864   1.343   3.602   5.220 -0.5435  0.5876 -0.4320
 4817TIP3   OH235865   1.043   3.268  16.577  0.0303  0.3560 -0.2041
 4817TIP3    H135866   1.132   3.242  16.556 -0.4681 -1.1948 -0.5225
 4817TIP3    H235867   1.041   3.276  16.673  0.3435 -0.2632 -0.1441
 4818TIP3   OH235868   2.370   3.848  14.854 -0.0277  0.7097 -0.6370
 4818TIP3    H135869   2.319   3.926  14.834  0.1893  0.2693 -3.2967
 4818TIP3    H235870   2.347   3.785  14.786  1.9522 -0.5036 -0.2883
 4819TIP3   OH235871   5.215   6.677   0.562 -0.6378 -0.2580  0.1671
 4819TIP3    H135872   5.161   6.646   0.634 -1.1755 -0.7272 -0.4216
 4819TIP3    H235873   5.166   6.654   0.483  0.6112 -1.0767 -0.4043
 4820TIP3   OH235874   4.869   2.873  16.278 -0.5479  0.4677  0.1837
 4820TIP3    H135875   4.827   2.913  16.354 -0.6508  0.2295  0.2524
 4820TIP3    H235876   4.832   2.784  16.274  2.4986 -1.0702  2.3175
 4821TIP3   OH235877   2.291   5.048  13.386 -0.1362  0.4373  0.0586
 4821TIP3    H135878   2.349   4.978  13.356 -0.1639  0.4442 -0.0113
 4821TIP3    H235879   2.267   5.094  13.306 -0.6877  0.0916  0.0158
 4822TIP3   OH235880   0.922   4.294   3.183 -0.0939  0.4299 -0.2272
 4822TIP3    H135881   0.970   4.324   3.105  0.4541 -1.0361 -0.4989
 4822TIP3    H235882   0.973   4.219   3.214 -0.2598  1.0298  1.6128
 4823TIP3   OH235883   2.998   5.670  14.402  0.5806  0.5002  0.2425
 4823TIP3    H135884   3.048   5.638  14.327  1.5904  0.8613  0.7466
 4823TIP3    H235885   2.979   5.761  14.382  0.7452  0.5626  0.3711
 4824TIP3   OH235886   0.605   6.737  13.873 -0.0871  0.4031  0.0732
 4824TIP3    H135887   0.688   6.769  13.838 -0.4270 -0.7949 -2.0394
 4824TIP3    H235888   0.599   6.646  13.842 -1.0586 -0.3453  2.2921
 4825TIP3   OH235889   4.946   5.587   2.474  0.3896 -0.7350 -0.2687
 4825TIP3    H135890   5.018   5.525   2.469 -0.3100 -1.5314 -0.9604
 4825TIP3    H235891   4.978   5.666   2.430  0.5905 -1.3492 -1.2578
 4826TIP3   OH235892   0.380   4.519   4.202 -0.0619 -0.4727  0.6039
 4826TIP3    H135893   0.376   4.424   4.214 -1.4339 -0.1670  3.1745
 4826TIP3    H235894   0.375   4.531   4.107  1.4133 -2.9732  0.1114
 4827TIP3   OH235895   6.382   4.790  17.485  0.6978 -0.2809  0.0519
 4827TIP3    H135896   6.477   4.778  17.492  0.8094  1.1190  2.3498
 4827TIP3    H235897   6.346   4.735  17.554  0.1801  1.6402  1.4179
 4828TIP3   OH235898   6.590   6.319   0.204  0.3148 -0.1214 -0.0329
 4828TIP3    H135899   6.669   6.338   0.253  1.5708 -0.1617 -1.9420
 4828TIP3    H235900   6.611   6.344   0.114 -1.6658 -0.6156 -0.6853
 4829TIP3   OH235901   2.224   1.028  12.661  0.0168  0.4338 -0.1627
 4829TIP3    H135902   2.257   1.013  12.750 -1.1659  0.7029  0.3389
 4829TIP3    H235903   2.139   0.984  12.659 -0.1368  0.7481 -1.0528
 4830TIP3   OH235904   3.801   5.742   5.138 -0.2616  0.3668 -0.5522
 4830TIP3    H135905   3.820   5.835   5.145 -0.9827  0.4686  0.1662
 4830TIP3    H235906   3.742   5.735   5.063 -1.0644  0.6309  0.0463
 4831TIP3   OH235907   4.970   1.845   4.238  0.1432 -0.0351  0.0715
 4831TIP3    H135908   4.985   1.754   4.262  0.2268  0.2387  1.1271
 4831TIP3    H235909   4.877   1.850   4.217  0.3766 -0.6060 -1.2142
 4832TIP3   OH235910   5.667   5.333   2.538  0.3387  0.2637  0.5293
 4832TIP3    H135911   5.714   5.283   2.471  2.2113 -0.1685  2.0736
 4832TIP3    H235912   5.724   5.408   2.555  1.3389 -1.0517  3.5372
 4833TIP3   OH235913   2.600   5.347  15.969 -0.9795  0.0477 -0.1659
 4833TIP3    H135914   2.636   5.380  15.886 -0.9782 -0.7861 -0.5045
 4833TIP3    H235915   2.511   5.381  15.972 -0.3512  1.8077  0.4895
 4834TIP3   OH235916   4.569   4.162   1.787 -0.2715  0.0036  0.1241
 4834TIP3    H135917   4.619   4.208   1.854  0.7081 -1.8412  0.7370
 4834TIP3    H235918   4.520   4.095   1.835  0.0769 -1.0372 -0.9248
 4835TIP3   OH235919   0.203   1.880  13.861 -0.1726 -0.2614  0.0223
 4835TIP3    H135920   0.281   1.916  13.904  0.0818  0.2726 -0.8599
 4835TIP3    H235921   0.167   1.954  13.812 -1.2099 -0.5177  0.3653
 4836TIP3   OH235922   1.780   0.949   5.502 -0.1970  0.2492 -0.1808
 4836TIP3    H135923   1.848   0.922   5.564 -0.1890  2.2416  0.7502
 4836TIP3    H235924   1.708   0.887   5.516  0.2772 -0.0607  0.9740
 4837TIP3   OH235925   1.430   1.832  12.457  0.1718  0.8232 -0.4931
 4837TIP3    H135926   1.413   1.867  12.370 -1.3683  0.6081 -0.3038
 4837TIP3    H235927   1.511   1.875  12.486 -0.6813  2.8520 -0.9783
 4838TIP3   OH235928   2.113   0.003  16.975 -0.3405  0.2870 -0.2543
 4838TIP3    H135929   2.021   0.014  16.953 -0.1832  2.4264 -0.1332
 4838TIP3    H235930   2.159   0.056  16.910  0.7244 -0.0072  0.2396
 4839TIP3   OH235931   2.847   1.763  17.397 -0.3021 -0.5805  0.2055
 4839TIP3    H135932   2.824   1.758  17.490 -0.8649 -0.3627  0.0853
 4839TIP3    H235933   2.888   1.849  17.387 -0.4060 -0.5299  0.2157
 4840TIP3   OH235934   6.322   2.519  15.354  0.2557  0.0470 -0.2287
 4840TIP3    H135935   6.404   2.479  15.324  0.8295  0.1516  1.1279
 4840TIP3    H235936   6.318   2.499  15.447 -1.6181 -0.5276 -0.3895
 4841TIP3   OH235937   3.196   2.145   1.836 -0.0937  0.3480  0.0172
 4841TIP3    H135938   3.288   2.169   1.823 -0.1062  1.2954  1.4707
 4841TIP3    H235939   3.154   2.171   1.754  0.7469  0.9176 -0.2517
 4842TIP3   OH235940   0.511   3.527  17.115 -0.3742  0.2349 -0.3360
 4842TIP3    H135941   0.452   3.488  17.050 -2.3085  1.4746  0.5542
 4842TIP3    H235942   0.552   3.600  17.069  0.6741 -0.7446 -1.0173
 4843TIP3   OH235943   1.220   3.011  16.802  0.5188  0.3207 -0.5675
 4843TIP3    H135944   1.295   3.070  16.801  1.4540 -0.7701  1.1774
 4843TIP3    H235945   1.227   2.964  16.885 -1.0774 -1.1203 -1.1868
 4844TIP3   OH235946   5.155   3.945  16.592  0.3882  0.5214  0.1291
 4844TIP3    H135947   5.220   3.875  16.596  1.2678  1.2209 -1.1049
 4844TIP3    H235948   5.206   4.026  16.587 -0.6124  1.3197  1.9946
 4845TIP3   OH235949   3.199   3.116   0.413  0.1973 -0.2490 -0.2942
 4845TIP3    H135950   3.292   3.131   0.396 -0.2265  0.8737 -1.8768
 4845TIP3    H235951   3.162   3.097   0.327 -1.1780  0.1450  0.1858
 4846TIP3   OH235952   0.638   2.741   3.147 -0.3698  0.2402  0.1845
 4846TIP3    H135953   0.639   2.832   3.119  0.3694 -0.4486 -2.2356
 4846TIP3    H235954   0.731   2.717   3.155 -0.5550 -0.3705  0.5886
 4847TIP3   OH235955   4.745   4.198   4.776  0.1168 -0.4789 -0.2610
 4847TIP3    H135956   4.772   4.127   4.717  0.9982  0.1289 -0.6153
 4847TIP3    H235957   4.812   4.265   4.764  0.2038 -0.2508  1.2842
 4848TIP3   OH235958   2.289   0.463  12.950  0.4380 -0.2060  0.4819
 4848TIP3    H135959   2.350   0.434  12.882  1.0140 -1.7390  1.6113
 4848TIP3    H235960   2.296   0.397  13.019 -0.3015  1.1830  1.9446
 4849TIP3   OH235961   2.961   2.458  16.205 -0.2258 -0.0725  0.6939
 4849TIP3    H135962   3.028   2.392  16.192 -1.5596 -1.3137 -0.0686
 4849TIP3    H235963   3.007   2.542  16.197  0.9640 -0.8712 -1.3209
 4850TIP3   OH235964   1.373   6.035   2.249  0.1467  0.3849  0.4621
 4850TIP3    H135965   1.466   6.055   2.243  0.0030  0.8047 -0.5306
 4850TIP3    H235966   1.352   5.992   2.166 -0.3990 -0.3631  0.9648
 4851TIP3   OH235967   6.461   6.650  12.500  0.4966  0.3213  0.2094
 4851TIP3    H135968   6.519   6.673  12.573  0.1074 -0.8524  0.9131
 4851TIP3    H235969   6.500   6.694  12.424  1.6238  0.5345  0.8874
 4852TIP3   OH235970   0.623   1.864  12.344 -0.2606 -0.7615 -0.6295
 4852TIP3    H135971   0.535   1.840  12.374  0.3607 -2.5107 -0.0448
 4852TIP3    H235972   0.611   1.895  12.254 -1.4892 -0.8883 -0.5192
 4853TIP3   OH235973   5.732   5.762  14.610  0.1995 -0.6936  0.0099
 4853TIP3    H135974   5.691   5.830  14.664  0.8252 -0.2399 -0.0822
 4853TIP3    H235975   5.778   5.707  14.673 -0.0230 -0.8378  0.0490
 4854TIP3   OH235976   3.301   6.595   5.976 -0.4926 -0.2198 -0.2659
 4854TIP3    H135977   3.369   6.605   6.043  0.0861 -2.8360 -0.3498
 4854TIP3    H235978   3.219   6.615   6.022  0.0580 -0.1265  0.7147
 4855TIP3   OH235979   5.641   6.544   3.069 -0.3362 -0.1391  0.0398
 4855TIP3    H135980   5.636   6.630   3.026  1.5289 -0.2955 -0.5720
 4855TIP3    H235981   5.734   6.528   3.080 -0.6142 -2.3633 -0.3763
 4856TIP3   OH235982   1.238   6.087  11.328  0.4775  0.0776 -0.0812
 4856TIP3    H135983   1.213   6.097  11.236 -0.9729 -0.4542  0.2259
 4856TIP3    H235984   1.189   6.010  11.357  1.3323 -0.0782  1.0014
 4857TIP3   OH235985   3.695   6.412  12.807  0.2422  0.6501 -0.0383
 4857TIP3    H135986   3.662   6.414  12.897  0.3151 -0.8470  0.0387
 4857TIP3    H235987   3.675   6.499  12.772 -1.4826  0.6335  0.8301
 4858TIP3   OH235988   3.264   0.848   2.689 -0.0598 -0.0160 -0.3760
 4858TIP3    H135989   3.309   0.906   2.751 -1.3904 -1.0516  1.6775
 4858TIP3    H235990   3.238   0.905   2.617  2.2058  1.0981 -0.3964
 4859TIP3   OH235991   1.554   6.283   3.062  0.1772  0.0209 -0.5099
 4859TIP3    H135992   1.578   6.375   3.054 -0.0450  0.0043 -1.6019
 4859TIP3    H235993   1.627   6.236   3.020  0.9513 -0.4162  1.2211
 4860TIP3   OH235994   6.026   1.552   3.113 -0.3919  0.1350  0.0426
 4860TIP3    H135995   5.969   1.629   3.124 -0.0795  0.4038 -0.1918
 4860TIP3    H235996   6.048   1.526   3.202 -2.7541 -1.4082  0.2368
 4861TIP3   OH235997   6.394   5.524   2.928 -0.0641 -0.3121  0.5010
 4861TIP3    H135998   6.461   5.499   2.864 -1.2093  1.2995 -1.4200
 4861TIP3    H235999   6.362   5.609   2.898 -1.8795 -0.2940  2.2636
 4862TIP3   OH236000   1.707   4.247  14.655  0.0693  0.2952 -0.7342
 4862TIP3    H136001   1.684   4.154  14.644 -0.5657  0.4857 -1.0950
 4862TIP3    H236002   1.802   4.248  14.658  0.0677 -0.4497  0.0152
 4863TIP3   OH236003   6.407   2.121  14.431 -0.2930  0.7080 -0.0824
 4863TIP3    H136004   6.446   2.206  14.452 -0.4457  0.4218  1.4266
 4863TIP3    H236005   6.344   2.105  14.501 -1.4377  0.0701 -1.2158
 4864TIP3   OH236006   1.817   6.282  13.244  0.5720  0.2170 -0.2065
 4864TIP3    H136007   1.842   6.363  13.200 -0.5364  0.3237 -0.6776
 4864TIP3    H236008   1.725   6.269  13.219 -0.0616  0.1998  1.9518
 4865TIP3   OH236009   1.672   0.027   1.969 -0.1340  0.1260 -0.2991
 4865TIP3    H136010   1.593   0.035   1.916 -1.3158  0.6446  1.4400
 4865TIP3    H236011   1.640   0.030   2.060  1.7017 -1.4991  0.4671
 4866TIP3   OH236012   3.237   3.970  14.990 -0.1460  0.1971  0.6408
 4866TIP3    H136013   3.258   3.916  15.066 -1.7622  1.4321  2.0608
 4866TIP3    H236014   3.322   3.995  14.954  0.6604 -0.8783  1.7178
 4867TIP3   OH236015   6.412   0.984   0.472  0.5838 -0.2395  0.3482
 4867TIP3    H136016   6.386   1.069   0.508 -0.0354 -0.5759  0.7094
 4867TIP3    H236017   6.384   0.920   0.538 -0.9148 -0.8993 -0.8706
 4868TIP3   OH236018   0.925   2.502  11.448  0.4277  0.5095 -0.3322
 4868TIP3    H136019   0.851   2.562  11.450 -0.0623 -0.0045  2.7165
 4868TIP3    H236020   0.895   2.428  11.396 -1.4493  0.1318  1.1703
 4869TIP3   OH236021   1.700   4.137  15.549  0.7525  0.1429 -0.3479
 4869TIP3    H136022   1.643   4.190  15.604  2.5707  1.7282  0.0846
 4869TIP3    H236023   1.640   4.096  15.486 -1.2940 -1.0449  2.1558
 4870TIP3   OH236024   1.528   4.612  15.196  0.0476  0.1479  0.3023
 4870TIP3    H136025   1.516   4.522  15.225  1.3576  0.4578  1.9421
 4870TIP3    H236026   1.623   4.623  15.190 -0.0180  1.7789  1.4360
 4871TIP3   OH236027   6.427   1.079  16.790  0.5093  0.0077  0.0094
 4871TIP3    H136028   6.422   0.991  16.827 -2.6168  0.6042  1.3556
 4871TIP3    H236029   6.510   1.114  16.822  0.4913 -1.4839  1.8778
 4872TIP3   OH236030   5.579   3.726  11.032 -0.0101  0.2373 -0.2261
 4872TIP3    H136031   5.655   3.738  11.090  1.0539  1.3724 -1.7672
 4872TIP3    H236032   5.567   3.631  11.029  0.5372  0.1018  1.0436
 4873TIP3   OH236033   2.115   4.618   2.785 -0.0901  0.5193 -0.3281
 4873TIP3    H136034   2.199   4.599   2.742  0.0681  1.5490 -0.4989
 4873TIP3    H236035   2.049   4.600   2.718  0.0391  0.3264 -0.4038
 4874TIP3   OH236036   2.069   4.976  16.070  0.6011 -0.0406  0.3436
 4874TIP3    H136037   2.079   4.928  16.152  0.9903 -0.5330  0.0164
 4874TIP3    H236038   1.975   4.996  16.064  0.3282 -1.2971  0.1946
 4875TIP3   OH236039   2.214   4.762   3.326 -0.9770  0.2376 -0.6304
 4875TIP3    H136040   2.227   4.672   3.357  1.8904  0.3544 -1.1851
 4875TIP3    H236041   2.221   4.755   3.231  1.2942  1.2070 -0.6065
 4876TIP3   OH236042   0.016   1.211   5.818 -0.0570 -0.1539 -0.3798
 4876TIP3    H136043  -0.059   1.174   5.771  0.4474 -1.7495 -0.0126
 4876TIP3    H236044   0.008   1.176   5.907  0.1123  1.1762  0.1772
 4877TIP3   OH236045   1.260   5.547   0.184  0.4173  0.0176 -0.3735
 4877TIP3    H136046   1.247   5.494   0.263  1.0215 -0.8705 -0.8443
 4877TIP3    H236047   1.253   5.637   0.214 -0.1335 -0.3165  0.5558
 4878TIP3   OH236048   3.344   4.657  13.758 -0.2831 -0.1702 -0.2696
 4878TIP3    H136049   3.312   4.746  13.745 -0.4627  0.5602  3.9037
 4878TIP3    H236050   3.439   4.664  13.748 -0.2458  0.6398  0.5309
 4879TIP3   OH236051   0.953   4.495  16.018 -0.2710 -0.2912 -0.2733
 4879TIP3    H136052   0.896   4.561  16.058  1.5232  1.4957 -0.5142
 4879TIP3    H236053   0.960   4.522  15.926 -0.7090 -1.7363 -0.7689
 4880TIP3   OH236054   0.846   4.131   3.900 -0.5931 -0.2155 -0.5033
 4880TIP3    H136055   0.864   4.040   3.926 -0.9678 -0.3962 -0.8676
 4880TIP3    H236056   0.777   4.124   3.834 -0.8822  0.3624 -0.2713
 4881TIP3   OH236057   2.658   3.534  13.264 -0.5461  0.3118 -0.3969
 4881TIP3    H136058   2.689   3.515  13.176  0.3367 -1.2148  0.1999
 4881TIP3    H236059   2.737   3.561  13.312 -0.2532 -2.2232  0.7667
 4882TIP3   OH236060   0.579   5.544   3.202 -0.2570 -0.0879  0.1861
 4882TIP3    H136061   0.634   5.617   3.175 -0.1024 -0.3244 -0.1504
 4882TIP3    H236062   0.553   5.564   3.292  0.7515 -0.1909  0.5107
 4883TIP3   OH236063   1.863   5.324   4.554  0.3564 -0.4281  0.1302
 4883TIP3    H136064   1.792   5.387   4.568 -0.6866 -1.2909 -1.0148
 4883TIP3    H236065   1.827   5.262   4.490  2.0348 -1.0895 -0.2121
 4884TIP3   OH236066   2.141   2.365   1.132 -0.0563 -0.3515  0.4812
 4884TIP3    H136067   2.192   2.408   1.063 -0.0651  1.4467  1.5437
 4884TIP3    H236068   2.070   2.425   1.150 -1.1381 -1.6771  0.7830
 4885TIP3   OH236069   2.736   4.010   5.511  0.4826  0.4696  0.1558
 4885TIP3    H136070   2.753   3.992   5.604 -1.6584  0.5089  0.6012
 4885TIP3    H236071   2.642   3.993   5.500  0.7865 -0.0723 -2.1453
 4886TIP3   OH236072   1.876   3.240  14.782 -0.2078 -0.3307  0.0239
 4886TIP3    H136073   1.888   3.266  14.691  1.4659  0.2645  0.3769
 4886TIP3    H236074   1.786   3.265  14.803 -0.4265  0.0464 -1.2935
 4887TIP3   OH236075   3.032   6.404  17.337  0.0050  0.3416 -0.6522
 4887TIP3    H136076   3.076   6.319  17.338 -2.0315 -0.8134  1.1510
 4887TIP3    H236077   3.057   6.443  17.253  0.4270 -2.3598 -1.9079
 4888TIP3   OH236078   5.001   4.403  16.942 -0.9412  0.3276 -0.2510
 4888TIP3    H136079   4.996   4.482  16.887  0.1557  1.0100  0.5892
 4888TIP3    H236080   5.010   4.331  16.880 -0.9299  0.9650 -1.0039
 4889TIP3   OH236081   4.932   3.798  13.079  0.0955 -0.0408  1.1246
 4889TIP3    H136082   4.870   3.845  13.134  0.5953  2.9325 -0.6272
 4889TIP3    H236083   5.017   3.835  13.102  0.4622  0.2849 -0.5934
 4890TIP3   OH236084   4.501   4.204  11.733 -0.1066  0.2862  0.8723
 4890TIP3    H136085   4.532   4.158  11.655 -0.0723  1.1663  0.3535
 4890TIP3    H236086   4.581   4.225  11.782 -0.1160 -0.1310  1.0647
 4891TIP3   OH236087   6.286   0.488  12.479  0.7919  0.0112  0.0334
 4891TIP3    H136088   6.378   0.509  12.492  0.7584  0.0685  0.1825
 4891TIP3    H236089   6.247   0.571  12.451  0.7152  0.0781  0.3334
 4892TIP3   OH236090   1.748   3.967   5.475 -0.9497 -0.2472  0.4198
 4892TIP3    H136091   1.781   3.968   5.565 -1.3155  2.6602  0.6089
 4892TIP3    H236092   1.656   3.943   5.485 -0.7015 -1.1531  0.6581
 4893TIP3   OH236093   3.244   3.617  15.977 -0.7936  0.0361 -0.5743
 4893TIP3    H136094   3.304   3.673  16.027 -0.0945 -0.5960 -0.6895
 4893TIP3    H236095   3.279   3.529  15.988 -1.4352 -0.2824 -1.0431
 4894TIP3   OH236096   2.495   5.715   0.213  0.0048  0.2933  0.0513
 4894TIP3    H136097   2.545   5.774   0.156  0.3990  0.0140  0.1011
 4894TIP3    H236098   2.548   5.709   0.293  0.0977 -0.3229 -0.0498
 4895TIP3   OH236099   4.337   2.331   6.183  0.7481 -0.1817 -0.0579
 4895TIP3    H136100   4.255   2.334   6.232  0.0442 -0.2077 -1.2042
 4895TIP3    H236101   4.387   2.406   6.216 -0.0836  0.3300  0.0847
 4896TIP3   OH236102   4.501   6.239  16.888 -0.1297  0.4986 -0.2872
 4896TIP3    H136103   4.589   6.248  16.850  0.2257  0.6275  0.5443
 4896TIP3    H236104   4.500   6.303  16.959 -0.8157  0.3179 -0.1365
 4897TIP3   OH236105   6.550   2.293   4.052 -0.0874  0.1272 -0.3269
 4897TIP3    H136106   6.494   2.242   3.994 -1.1050 -0.0873  0.8189
 4897TIP3    H236107   6.589   2.228   4.111 -2.1043  0.6769  1.7457
 4898TIP3   OH236108   0.699   3.102  16.032  0.7290 -0.1437 -0.3487
 4898TIP3    H136109   0.746   3.032  16.077  0.4521 -0.4084 -0.4706
 4898TIP3    H236110   0.624   3.120  16.088  0.9389  0.2392 -0.1854
 4899TIP3   OH236111   2.446   3.745  12.598 -0.1783  0.2430 -0.2193
 4899TIP3    H136112   2.503   3.668  12.600  0.5432  0.7248 -1.0421
 4899TIP3    H236113   2.359   3.710  12.582  0.0558 -0.4413 -0.0382
 4900TIP3   OH236114   3.442   1.717  16.334  0.0374 -0.1636  0.3205
 4900TIP3    H136115   3.423   1.715  16.428 -0.7350  0.3368  0.1860
 4900TIP3    H236116   3.422   1.806  16.307  0.1220 -0.3389 -0.3510
 4901TIP3   OH236117   2.012   0.428   3.778 -0.2196 -0.2376  0.1256
 4901TIP3    H136118   1.923   0.452   3.803 -0.3215 -1.2464  0.7561
 4901TIP3    H236119   2.016   0.333   3.790  0.3698 -0.4896 -1.7116
 4902TIP3   OH236120   1.946   3.865  14.804  0.5050  0.2380 -0.1275
 4902TIP3    H136121   1.964   3.772  14.798  0.3094  0.2221 -0.5760
 4902TIP3    H236122   1.997   3.904  14.732  1.0661  0.5514  0.4325
 4903TIP3   OH236123   6.151   6.634  16.913 -0.1552  0.3491 -0.4628
 4903TIP3    H136124   6.187   6.722  16.901 -2.8201  1.6777  0.6531
 4903TIP3    H236125   6.116   6.634  17.002  0.5185 -2.1712 -0.1330
 4904TIP3   OH236126   4.945   2.369   3.699  0.1963  0.3099 -0.4209
 4904TIP3    H136127   4.861   2.407   3.673  0.0421  1.0182  0.9970
 4904TIP3    H236128   4.986   2.344   3.617 -0.6898  1.4852 -1.2632
 4905TIP3   OH236129   3.194   2.456  11.349  0.2668 -0.1731 -0.3704
 4905TIP3    H136130   3.236   2.492  11.271  0.7827  4.2402  1.6600
 4905TIP3    H236131   3.101   2.479  11.339  0.1981 -0.2757  0.0059
 4906TIP3   OH236132   3.834   4.864   2.300 -0.2131  0.4261 -0.0054
 4906TIP3    H136133   3.786   4.783   2.281  1.1120  0.1797 -2.8507
 4906TIP3    H236134   3.786   4.932   2.254  0.9661  0.5015 -1.1877
 4907TIP3   OH236135   4.047   4.507  16.909  0.3819  0.3801  0.3802
 4907TIP3    H136136   4.014   4.594  16.931 -0.0408  0.8956 -1.9783
 4907TIP3    H236137   3.981   4.447  16.943 -0.4657  1.1365  0.1359
 4908TIP3   OH236138   2.522   0.185   2.718  0.0051  0.3285  0.5265
 4908TIP3    H136139   2.572   0.199   2.637 -0.3946 -1.1820 -0.0005
 4908TIP3    H236140   2.497   0.093   2.716 -1.6756  0.7243  1.4359
 4909TIP3   OH236141   4.668   3.044   3.089 -0.2141  0.2978  0.5239
 4909TIP3    H136142   4.623   3.055   3.005  0.0368  1.0120  0.4753
 4909TIP3    H236143   4.640   3.120   3.141 -0.8663 -0.4694  1.3230
 4910TIP3   OH236144   5.405   5.412   0.214 -0.3751 -0.0719 -0.1341
 4910TIP3    H136145   5.330   5.467   0.190 -0.9642 -0.3199  1.0486
 4910TIP3    H236146   5.390   5.330   0.166 -2.6972 -1.3778  2.4944
 4911TIP3   OH236147   6.698   1.418   6.080 -0.2782 -0.3384  0.0577
 4911TIP3    H136148   6.663   1.468   6.154 -0.7753  0.0543 -0.4407
 4911TIP3    H236149   6.717   1.484   6.013 -1.4629 -0.8537 -0.8166
 4912TIP3   OH236150   1.036   0.508  15.200 -0.3359 -0.1448 -0.2260
 4912TIP3    H136151   1.101   0.453  15.157  2.0644  0.2034  2.6374
 4912TIP3    H236152   0.958   0.454  15.206  0.0892 -1.1127 -2.4813
 4913TIP3   OH236153   2.792   3.474   2.545 -0.1431 -0.3166  0.5047
 4913TIP3    H136154   2.736   3.551   2.556  0.5017  0.1938  0.1997
 4913TIP3    H236155   2.862   3.486   2.608  1.5185  0.7687 -1.4470
 4914TIP3   OH236156   4.953   0.211  13.847  0.3468  0.0430  0.3240
 4914TIP3    H136157   4.997   0.295  13.864  1.1123 -0.2419 -0.2210
 4914TIP3    H236158   4.980   0.187  13.759  1.0666 -1.3330  0.8900
 4915TIP3   OH236159   5.614   2.126  14.489  0.2187 -0.2668  0.3971
 4915TIP3    H136160   5.624   2.045  14.538  2.4327 -0.9503 -1.0289
 4915TIP3    H236161   5.683   2.183  14.522 -0.6204  0.6537  0.6122
 4916TIP3   OH236162   4.014   1.178  15.585  0.5338  0.1312  0.2488
 4916TIP3    H136163   4.060   1.135  15.513 -0.1982 -0.7623  0.3016
 4916TIP3    H236164   3.933   1.129  15.596 -0.1003  1.2202  0.6581
 4917TIP3   OH236165   4.713   4.234   2.023  0.2887  0.1160 -0.3917
 4917TIP3    H136166   4.678   4.192   2.101 -0.9353 -0.5985 -1.2839
 4917TIP3    H236167   4.683   4.324   2.028 -2.3817 -0.5915 -1.4145
 4918TIP3   OH236168   3.750   3.607   1.743  0.3546 -0.2990  0.0444
 4918TIP3    H136169   3.690   3.534   1.724  2.0059 -1.1078 -2.5989
 4918TIP3    H236170   3.726   3.674   1.679  1.2595 -0.0197 -0.0033
 4919TIP3   OH236171   0.056   1.884  16.363  0.1205 -0.4353  0.6843
 4919TIP3    H136172   0.121   1.864  16.431 -1.3611 -1.3170  1.9113
 4919TIP3    H236173   0.018   1.799  16.341  0.8803 -0.2404 -1.6631
 4920TIP3   OH236174   5.007   5.404   6.012 -0.6544  0.4416  0.2198
 4920TIP3    H136175   5.097   5.373   6.022 -1.0976 -0.4685  1.6915
 4920TIP3    H236176   4.956   5.324   5.998 -1.6322  0.5675  2.6518
 4921TIP3   OH236177   0.103   5.898  13.760  0.1175  0.3020 -0.1685
 4921TIP3    H136178   0.035   5.956  13.726  0.3222  0.1547 -0.8482
 4921TIP3    H236179   0.071   5.872  13.847  0.4797  2.1889  0.5789
 4922TIP3   OH236180   0.935   0.449   4.035  0.1760 -0.2013  0.9341
 4922TIP3    H136181   0.981   0.494   4.106  0.3591  2.0365 -0.5010
 4922TIP3    H236182   0.863   0.508   4.013 -1.8417 -2.3698  1.3414
 4923TIP3   OH236183   2.648   2.329  15.205  0.4754  0.6978  0.2470
 4923TIP3    H136184   2.563   2.286  15.212  1.0665 -0.5657  0.0950
 4923TIP3    H236185   2.632   2.408  15.154 -0.8410  1.1956  1.3933
 4924TIP3   OH236186   2.381   1.530   2.146  0.0182  0.2459  0.4255
 4924TIP3    H136187   2.366   1.612   2.193 -2.4587 -0.2087  0.5540
 4924TIP3    H236188   2.299   1.515   2.097  0.7433 -1.7060 -0.2750
 4925TIP3   OH236189   4.495   1.681   2.264  0.3225  0.2235  0.0498
 4925TIP3    H136190   4.465   1.597   2.227  1.2396 -0.8599  1.6401
 4925TIP3    H236191   4.529   1.729   2.188  0.1146 -0.9941 -0.8590
 4926TIP3   OH236192   3.670   5.095   3.940  0.0130 -0.3539  0.0093
 4926TIP3    H136193   3.580   5.111   3.913 -0.0660 -0.8256 -0.0158
 4926TIP3    H236194   3.682   5.149   4.019  0.5901  1.9188 -1.5417
 4927TIP3   OH236195   5.485   6.726  16.046  0.4382  0.1698 -0.4885
 4927TIP3    H136196   5.580   6.728  16.041  0.5541  1.1809  1.2740
 4927TIP3    H236197   5.455   6.746  15.957  1.8352 -1.2829 -1.3280
 4928TIP3   OH236198   5.301   5.461  13.299 -0.2506  0.2219 -0.4623
 4928TIP3    H136199   5.306   5.494  13.210 -1.0045  1.7008  0.0088
 4928TIP3    H236200   5.371   5.506  13.346  0.8909 -1.4185 -0.5444
 4929TIP3   OH236201   1.461   4.877  15.055  0.1617 -0.2649  0.0346
 4929TIP3    H136202   1.456   4.942  15.125  0.1269 -1.3331  1.0640
 4929TIP3    H236203   1.471   4.793  15.101  0.9239 -0.9153 -1.2666
 4930TIP3   OH236204   1.254   2.238   1.256  0.5131 -0.7020 -0.1612
 4930TIP3    H136205   1.200   2.234   1.335 -0.4667 -0.5467 -0.8128
 4930TIP3    H236206   1.225   2.165   1.203  1.0663 -0.7182 -0.4492
 4931TIP3   OH236207   3.950   3.631   0.818 -0.0753 -0.3015 -0.3734
 4931TIP3    H136208   3.908   3.553   0.855 -1.8384 -0.5851 -2.7387
 4931TIP3    H236209   4.005   3.597   0.748  0.6556  0.4635 -0.1883
 4932TIP3   OH236210   4.683   2.539   1.034 -0.0779  0.2874 -0.0559
 4932TIP3    H136211   4.705   2.505   1.121 -1.6234  0.0468  0.2712
 4932TIP3    H236212   4.757   2.513   0.979  1.1582  0.8492  1.2644
 4933TIP3   OH236213   3.265   3.745  11.887 -0.2444  0.3707  0.4010
 4933TIP3    H136214   3.351   3.713  11.913 -0.1765  0.5030  0.3377
 4933TIP3    H236215   3.231   3.789  11.965 -0.3474  0.1271  0.4966
 4934TIP3   OH236216   0.559   5.729   6.063  0.5405  0.4239 -0.4801
 4934TIP3    H136217   0.488   5.741   6.000 -1.4518 -1.3194  1.2786
 4934TIP3    H236218   0.550   5.638   6.093  1.8829  0.9376  1.7361
 4935TIP3   OH236219   4.354   0.146   5.377  0.3408 -0.2169  0.3988
 4935TIP3    H136220   4.303   0.075   5.337 -0.4214 -0.6214  2.0038
 4935TIP3    H236221   4.290   0.195   5.427  0.9462  1.3991 -0.3551
 4936TIP3   OH236222   2.567   3.834  14.167  0.7506 -0.3020  0.0637
 4936TIP3    H136223   2.617   3.896  14.114 -1.2648 -0.1978 -1.8323
 4936TIP3    H236224   2.534   3.886  14.240  2.3343 -0.1087  0.6875
 4937TIP3   OH236225   2.846   1.612   3.897 -0.5793  0.0659  0.8093
 4937TIP3    H136226   2.917   1.585   3.839  0.9752  1.2693  2.0485
 4937TIP3    H236227   2.766   1.582   3.853  0.6341 -0.7404 -0.9724
 4938TIP3   OH236228   0.102   2.656   3.546  0.0352 -0.2572  0.0000
 4938TIP3    H136229   0.045   2.713   3.495 -0.7877 -0.1052  1.0339
 4938TIP3    H236230   0.042   2.592   3.585  0.7168 -0.7369  0.2714
 4939TIP3   OH236231   0.597   0.911  13.234  0.4871  0.1248 -0.7891
 4939TIP3    H136232   0.648   0.976  13.282  1.5027 -0.2094 -1.3980
 4939TIP3    H236233   0.525   0.961  13.195  1.2340  0.8756 -1.2170
 4940TIP3   OH236234   3.130   4.864   2.466  0.1554  0.9398  0.1550
 4940TIP3    H136235   3.092   4.890   2.382  1.1259  0.0476 -0.5836
 4940TIP3    H236236   3.081   4.786   2.491  0.6084  0.5637 -0.1327
 4941TIP3   OH236237   3.830   2.501  16.720 -0.2642  0.1070 -0.8999
 4941TIP3    H136238   3.812   2.456  16.638 -0.6744 -0.1359 -0.6781
 4941TIP3    H236239   3.799   2.591  16.705 -0.5427  0.0053 -0.9331
 4942TIP3   OH236240   6.250   4.636   1.597  0.6310 -0.3688  0.5137
 4942TIP3    H136241   6.297   4.661   1.677  0.8933  1.0712 -0.0507
 4942TIP3    H236242   6.206   4.716   1.569 -0.6755 -1.2278  0.0064
 4943TIP3   OH236243   3.388   3.752  16.182 -0.0192  0.1849  0.2284
 4943TIP3    H136244   3.402   3.844  16.207  0.5226  0.1493  0.0802
 4943TIP3    H236245   3.443   3.703  16.243 -0.0972 -0.0212  0.1312
 4944TIP3   OH236246   0.266   0.325   1.747  0.1686 -0.2173 -0.2918
 4944TIP3    H136247   0.283   0.419   1.746  0.2861 -0.1610  1.7884
 4944TIP3    H236248   0.282   0.296   1.657  0.4560  1.6838 -0.8893
 4945TIP3   OH236249   0.374   4.893  11.390 -0.2733  1.0856  0.0076
 4945TIP3    H136250   0.284   4.910  11.419  0.1985  2.7721  0.6029
 4945TIP3    H236251   0.393   4.805  11.422 -1.0402  1.4779  1.6623
 4946TIP3   OH236252   1.229   6.035  13.286 -0.1727 -0.5963  0.4884
 4946TIP3    H136253   1.206   6.118  13.329  0.0969 -1.2278  1.9125
 4946TIP3    H236254   1.323   6.026  13.301  0.6102  0.5389 -2.7707
 4947TIP3   OH236255   6.462   1.908  12.563 -0.2963  0.7602  0.1712
 4947TIP3    H136256   6.419   1.857  12.494  0.4722  0.2741  0.0329
 4947TIP3    H236257   6.465   1.849  12.638  1.0194  0.4006 -0.1322
 4948TIP3   OH236258   4.509   0.620   3.632  0.3011 -0.1404  0.4661
 4948TIP3    H136259   4.421   0.634   3.597  0.4570 -0.0547  0.1031
 4948TIP3    H236260   4.543   0.545   3.583  0.5931  0.1027  0.2915
 4949TIP3   OH236261   4.804   0.910  15.292  0.3642  0.0007  0.5230
 4949TIP3    H136262   4.795   0.830  15.240 -0.2253  1.4213 -1.6993
 4949TIP3    H236263   4.731   0.907  15.354  0.0584 -0.9269  0.1289
 4950TIP3   OH236264   1.068   4.299   0.236  0.3886  0.1091  0.1814
 4950TIP3    H136265   1.014   4.314   0.159  1.9892 -1.6128 -1.3720
 4950TIP3    H236266   1.046   4.210   0.264  0.2250  0.5185  1.3916
 4951TIP3   OH236267   4.670   3.978   3.435  0.2462  0.7304  0.3042
 4951TIP3    H136268   4.736   3.913   3.409 -0.4006  0.4502 -0.6902
 4951TIP3    H236269   4.721   4.051   3.470  0.9852 -0.3749  1.6511
 4952TIP3   OH236270   2.767   5.114   0.853  0.5740 -0.1714  0.2562
 4952TIP3    H136271   2.818   5.194   0.861  1.3730 -0.7855  1.6399
 4952TIP3    H236272   2.769   5.075   0.941 -2.8537  0.0881  0.5623
 4953TIP3   OH236273   4.213   6.603  15.658 -0.2995 -0.2918 -0.6540
 4953TIP3    H136274   4.201   6.697  15.651 -0.3546 -0.3726 -1.9500
 4953TIP3    H236275   4.184   6.568  15.574 -0.7191 -1.5193 -0.0328
 4954TIP3   OH236276   4.066   6.044   0.498 -0.7048 -0.0180 -0.4028
 4954TIP3    H136277   4.085   6.105   0.426 -0.6939 -0.3617 -0.6914
 4954TIP3    H236278   4.014   6.096   0.559  1.7349  1.2133  0.7837
 4955TIP3   OH236279   1.959   0.160   2.319 -0.3324 -0.0464  1.0684
 4955TIP3    H136280   1.886   0.222   2.324 -0.4184  0.0065 -0.5339
 4955TIP3    H236281   1.923   0.084   2.274  0.8060  0.3249 -0.5215
 4956TIP3   OH236282   0.456   6.454   2.425  0.0748 -0.3737  0.1081
 4956TIP3    H136283   0.423   6.495   2.345 -1.4896 -0.1937  0.8150
 4956TIP3    H236284   0.388   6.471   2.490  0.0178 -2.8785  0.7937
 4957TIP3   OH236285   3.194   1.249  15.563 -0.2124 -0.0897  0.0805
 4957TIP3    H136286   3.246   1.175  15.531 -1.1330 -1.2794  1.2392
 4957TIP3    H236287   3.259   1.313  15.591  0.6061 -0.2178 -1.4068
 4958TIP3   OH236288   1.529   2.077  12.005  0.2363 -0.3970  0.2493
 4958TIP3    H136289   1.582   2.020  12.060  2.5456 -0.2075 -1.6129
 4958TIP3    H236290   1.593   2.127  11.954 -1.7118  2.2859  0.2280
 4959TIP3   OH236291   4.129   5.321   6.304  0.2649 -0.3100  0.3884
 4959TIP3    H136292   4.039   5.292   6.322  0.7535 -0.6113  2.7529
 4959TIP3    H236293   4.183   5.266   6.361  1.7872  1.0580  0.3266
 4960TIP3   OH236294   2.493   0.317  16.035  0.0623  0.4695 -0.3908
 4960TIP3    H136295   2.399   0.300  16.023  0.3183 -0.1972 -1.6591
 4960TIP3    H236296   2.509   0.299  16.127 -0.9315 -0.0779 -0.3042
 4961TIP3   OH236297   6.380   5.960  11.134  0.0516  0.5583 -0.3416
 4961TIP3    H136298   6.351   5.957  11.043  0.6321  0.1017 -0.5128
 4961TIP3    H236299   6.470   5.992  11.130  0.8609 -1.5795 -0.1142
 4962TIP3   OH236300   4.727   4.342   0.918  0.3130 -0.4342  0.4625
 4962TIP3    H136301   4.695   4.430   0.898 -0.3435 -1.1394 -1.8539
 4962TIP3    H236302   4.775   4.315   0.840  0.9215 -1.9681  1.3231
 4963TIP3   OH236303   5.439   5.770   3.129 -0.1880  0.0312  0.3683
 4963TIP3    H136304   5.343   5.779   3.128 -0.0863  1.3839  0.1825
 4963TIP3    H236305   5.468   5.828   3.059  0.8626  1.2385  1.7330
 4964TIP3   OH236306   5.714   5.217  15.540 -0.6547  0.5536  0.2432
 4964TIP3    H136307   5.768   5.265  15.477 -0.0715 -0.2908  0.0799
 4964TIP3    H236308   5.684   5.140  15.491 -1.5041  0.6963  0.5255
 4965TIP3   OH236309   4.351   6.457   2.871 -0.1390 -0.3909  0.0335
 4965TIP3    H136310   4.290   6.467   2.799 -0.3512  0.8044  0.3648
 4965TIP3    H236311   4.317   6.381   2.920 -1.2015  0.0886  0.0637
 4966TIP3   OH236312   1.122   5.917   0.873  0.1278 -0.2958  0.3454
 4966TIP3    H136313   1.100   5.907   0.780 -2.8215 -1.6065  1.0694
 4966TIP3    H236314   1.066   5.988   0.903  0.7480 -0.1738  1.2530
 4967TIP3   OH236315   4.874   4.936  14.092 -0.4462 -0.4249  0.0061
 4967TIP3    H136316   4.855   4.884  14.170 -0.1492 -0.0660  0.3208
 4967TIP3    H236317   4.940   4.885  14.045  1.5441  0.6713  1.4325
 4968TIP3   OH236318   0.763   0.112   3.791 -0.1502 -0.3767 -0.0407
 4968TIP3    H136319   0.807   0.196   3.789 -2.2865  0.7989 -1.5413
 4968TIP3    H236320   0.828   0.049   3.759  1.0749  0.8841 -0.1077
 4969TIP3   OH236321   5.212   0.016   6.012 -0.2569  0.0995  0.1992
 4969TIP3    H136322   5.209   0.047   6.102 -2.6861  2.5927 -0.5692
 4969TIP3    H236323   5.251   0.089   5.963  2.4959 -1.8066 -0.6714
 4970TIP3   OH236324   3.734   0.123   0.635 -0.2811  0.0348  0.1514
 4970TIP3    H136325   3.766   0.086   0.717 -1.3699  0.4556  0.7968
 4970TIP3    H236326   3.679   0.197   0.663 -1.6111 -0.5308 -0.8923
 4971TIP3   OH236327   1.502   4.872  14.406 -0.6660  0.5531  0.5456
 4971TIP3    H136328   1.529   4.952  14.360 -0.8562 -0.7161 -1.9575
 4971TIP3    H236329   1.489   4.808  14.336  0.9793 -2.1561  2.5362
 4972TIP3   OH236330   3.151   3.101  17.066  0.7344 -0.0363 -0.2461
 4972TIP3    H136331   3.158   3.041  16.992 -0.5157  1.3488 -1.5465
 4972TIP3    H236332   3.103   3.176  17.032  0.7071  0.9468  1.8062
 4973TIP3   OH236333   5.430   4.909   5.849  0.1423  0.2918  0.5642
 4973TIP3    H136334   5.451   4.915   5.942  1.6819  0.0579  0.2493
 4973TIP3    H236335   5.484   4.975   5.807 -0.2039  0.0857 -0.2294
 4974TIP3   OH236336   4.826   4.610   6.614  0.1727  0.3008  0.3800
 4974TIP3    H136337   4.888   4.541   6.638  0.0669 -0.3490 -1.1566
 4974TIP3    H236338   4.880   4.689   6.610  0.7348 -0.0899 -0.0022
 4975TIP3   OH236339   3.799   4.046   4.021 -0.2286  0.3536 -0.5510
 4975TIP3    H136340   3.710   4.045   3.986  0.4346 -0.1797 -2.3872
 4975TIP3    H236341   3.855   4.054   3.943  1.3028  2.5888  0.6591
 4976TIP3   OH236342   3.325   0.011   6.438 -0.4165  0.1929 -0.1247
 4976TIP3    H136343   3.257   0.034   6.500  2.2015  2.5008  2.1569
 4976TIP3    H236344   3.390  -0.036   6.490  0.9304  0.3514 -1.5839
 4977TIP3   OH236345   5.794   2.483   0.253 -0.3226 -0.4988 -0.1831
 4977TIP3    H136346   5.792   2.569   0.213 -5.2427  0.0836  0.6252
 4977TIP3    H236347   5.813   2.499   0.345 -1.3930 -0.1450 -0.0010
 4978TIP3   OH236348   3.509   6.044  11.424  0.0767 -0.2919 -0.7548
 4978TIP3    H136349   3.532   6.119  11.479 -1.2735 -1.1845  1.1118
 4978TIP3    H236350   3.582   5.982  11.437 -0.2741 -0.5310  0.1180
 4979TIP3   OH236351   3.490   0.896  14.540  0.8545 -0.1183  0.3165
 4979TIP3    H136352   3.529   0.833  14.600 -0.6036 -1.1274  0.2582
 4979TIP3    H236353   3.411   0.926  14.585  0.6996  0.4891 -0.3366
 4980TIP3   OH236354   5.554   2.732  16.167 -0.0250 -0.0106 -0.5132
 4980TIP3    H136355   5.513   2.741  16.253 -0.8106 -0.9298 -0.7744
 4980TIP3    H236356   5.482   2.742  16.105  0.4607  0.1816 -1.0538
 4981TIP3   OH236357   4.523   6.438  13.269  0.7987  0.4199  0.0501
 4981TIP3    H136358   4.431   6.426  13.289  0.6159 -0.0148 -1.0097
 4981TIP3    H236359   4.564   6.452  13.355 -0.1838  0.2406  0.5655
 4982TIP3   OH236360   4.252   1.150   1.441  0.7562 -0.2626 -0.3484
 4982TIP3    H136361   4.235   1.212   1.512  1.2200 -0.8752  0.3116
 4982TIP3    H236362   4.195   1.076   1.459  0.4454 -0.1818 -0.9509
 4983TIP3   OH236363   0.852   0.633  17.206 -0.8233  0.3258 -0.0095
 4983TIP3    H136364   0.847   0.697  17.135 -2.1171 -0.2117 -0.4467
 4983TIP3    H236365   0.773   0.648  17.257 -0.5488 -0.1424  0.5622
 4984TIP3   OH236366   4.845   6.010   2.256 -0.1656  0.0699 -0.3819
 4984TIP3    H136367   4.862   6.098   2.289 -0.7531  0.3958 -0.9267
 4984TIP3    H236368   4.764   6.019   2.205  0.9850 -0.2726 -2.3814
 4985TIP3   OH236369   1.132   0.790   4.390  1.0211  0.2279 -0.1341
 4985TIP3    H136370   1.200   0.754   4.447  1.6500 -0.0582 -1.0446
 4985TIP3    H236371   1.172   0.869   4.352  0.4592  0.6439  0.1257
 4986TIP3   OH236372   4.189   4.261  12.239 -0.3149 -0.3700  0.0704
 4986TIP3    H136373   4.208   4.180  12.286 -0.5795 -1.1508 -1.1282
 4986TIP3    H236374   4.140   4.233  12.162 -0.4484  0.9396 -0.3432
 4987TIP3   OH236375   0.503   6.588  15.536 -0.6315  0.2391 -0.1445
 4987TIP3    H136376   0.546   6.515  15.581  0.7995  0.7017 -0.7004
 4987TIP3    H236377   0.521   6.573  15.443 -0.1475  1.3918 -0.2517
 4988TIP3   OH236378   5.904   6.535  13.359 -0.0026 -0.1533  0.0776
 4988TIP3    H136379   5.850   6.504  13.432 -0.8533  0.1712 -0.3993
 4988TIP3    H236380   5.867   6.492  13.282 -0.2208  0.8317 -0.3841
 4989TIP3   OH236381   1.802   4.044  13.870  0.3778 -0.2682  0.1947
 4989TIP3    H136382   1.804   4.139  13.879  2.4308 -0.4123  2.0188
 4989TIP3    H236383   1.746   4.014  13.942 -0.5171 -0.4414 -0.5623
 4990TIP3   OH236384   0.882   3.854   3.922 -0.4599 -0.4855  0.9818
 4990TIP3    H136385   0.802   3.815   3.888  0.1664 -0.5957 -0.4308
 4990TIP3    H236386   0.951   3.793   3.898  0.6850  1.7400 -2.1395
 4991TIP3   OH236387   5.232   3.143   3.922  0.4392  0.0891  0.0353
 4991TIP3    H136388   5.232   3.239   3.916 -1.4545  0.1123 -0.1763
 4991TIP3    H236389   5.207   3.125   4.013 -0.2930 -0.1769 -0.2085
 4992TIP3   OH236390   0.521   5.608   3.489 -0.0485 -0.4522 -0.1685
 4992TIP3    H136391   0.434   5.645   3.500 -0.7088 -1.6436 -1.1200
 4992TIP3    H236392   0.542   5.571   3.575 -0.2929  0.2169  0.1837
 4993TIP3   OH236393   3.181   1.955   4.956 -0.1276  0.2225 -0.0462
 4993TIP3    H136394   3.219   1.953   4.868 -0.8620  1.2509 -0.4046
 4993TIP3    H236395   3.159   1.864   4.975 -0.4860  0.0634 -1.1664
 4994TIP3   OH236396   1.538   6.339  17.238  0.4134 -0.4120  0.5071
 4994TIP3    H136397   1.616   6.294  17.271  1.1205  1.4501  1.5298
 4994TIP3    H236398   1.465   6.294  17.280  1.0069 -1.4032  0.5023
 4995TIP3   OH236399   3.073   5.933  11.549 -0.2219 -0.1591  0.3994
 4995TIP3    H136400   3.016   5.942  11.472 -0.8833  0.6137  0.9546
 4995TIP3    H236401   3.016   5.897  11.617 -0.1145  0.8002  1.0204
 4996TIP3   OH236402   2.560   0.045   2.295  0.1392  0.4792  0.2215
 4996TIP3    H136403   2.576   0.080   2.208  0.3361  0.5516  0.2881
 4996TIP3    H236404   2.608  -0.038   2.297 -2.5986 -1.3052 -0.9732
 4997TIP3   OH236405   1.943   3.070   5.551 -0.3817 -0.1267 -0.0053
 4997TIP3    H136406   1.877   3.096   5.615 -0.4754  1.9702 -0.8840
 4997TIP3    H236407   2.001   3.146   5.544  0.6354 -0.9751 -1.1287
 4998TIP3   OH236408   1.538   0.941  12.368  0.5430 -0.0775 -0.1471
 4998TIP3    H136409   1.508   0.922  12.279  0.8847  0.9256 -0.4898
 4998TIP3    H236410   1.628   0.971  12.357  0.7762 -0.4829  0.5976
 4999TIP3   OH236411   0.334   0.480  12.891  0.3915 -0.0542  0.3351
 4999TIP3    H136412   0.242   0.490  12.914  0.5094 -0.4442  0.9893
 4999TIP3    H236413   0.352   0.554  12.832  0.4217  1.7300  2.4611
 5000TIP3   OH236414   1.715   5.455   2.027  0.0652 -0.0878 -0.0829
 5000TIP3    H136415   1.798   5.485   2.063 -1.2983  0.2013  3.2106
 5000TIP3    H236416   1.733   5.366   1.997  1.5840  0.0074  0.4528
 5001TIP3   OH236417   5.713   0.988   1.492  0.4605 -0.1420  0.0651
 5001TIP3    H136418   5.785   1.007   1.433  0.2147  0.4819 -0.0421
 5001TIP3    H236419   5.689   0.897   1.473 -0.0837  0.2684 -1.3079
 5002TIP3   OH236420   2.282   4.458   4.629 -0.4815  0.3714  0.3460
 5002TIP3    H136421   2.263   4.552   4.625 -2.9903 -0.0776 -0.5827
 5002TIP3    H236422   2.287   4.431   4.537 -3.4429 -0.9311  0.4350
 5003TIP3   OH236423   2.538   1.563   6.017  0.2586 -0.5178  0.2111
 5003TIP3    H136424   2.572   1.589   5.931 -0.0904 -0.6949  0.0157
 5003TIP3    H236425   2.444   1.579   6.011  0.0571 -1.6518  0.1444
 5004TIP3   OH236426   2.201   2.996   1.130 -0.2187 -0.1005  0.1525
 5004TIP3    H136427   2.141   3.043   1.072  1.3676 -0.9872 -2.4020
 5004TIP3    H236428   2.252   3.065   1.172 -0.6072  0.5744 -0.4442
 5005TIP3   OH236429   6.203   6.212   1.706 -0.2183 -0.0903  0.1547
 5005TIP3    H136430   6.221   6.296   1.663  2.4454 -0.4819  0.3427
 5005TIP3    H236431   6.156   6.235   1.786 -1.7367  0.9724 -0.9936
 5006TIP3   OH236432   0.168   0.354  13.286 -0.1338 -0.4349  0.3404
 5006TIP3    H136433   0.097   0.307  13.329  1.6311 -1.8939  1.8440
 5006TIP3    H236434   0.171   0.317  13.198 -1.8630  0.4055 -0.1042
 5007TIP3   OH236435   5.377   2.653  11.609 -0.6979  0.1571  0.2435
 5007TIP3    H136436   5.354   2.587  11.544 -1.6862 -0.7939  1.5010
 5007TIP3    H236437   5.293   2.684  11.642 -0.2283  1.4810  0.2541
 5008TIP3   OH236438   2.391   1.223   2.463 -0.5590  0.0010 -0.2724
 5008TIP3    H136439   2.366   1.167   2.389  1.5450  0.3202 -1.2821
 5008TIP3    H236440   2.420   1.304   2.422 -0.3791  0.5779  0.9880
 5009TIP3   OH236441   6.280   0.256   1.020  0.4703 -0.0899  0.0919
 5009TIP3    H136442   6.357   0.262   0.963  0.2328 -1.8528 -0.4642
 5009TIP3    H236443   6.210   0.227   0.963 -0.7029  1.6650  0.5645
 5010TIP3   OH236444   0.959   3.282   4.585  0.5083  0.0769 -0.3629
 5010TIP3    H136445   1.012   3.357   4.558  2.7150 -1.2838 -0.0476
 5010TIP3    H236446   0.969   3.219   4.513  1.0079 -0.9915  0.6093
 5011TIP3   OH236447   2.824   2.629   6.177 -0.6732 -0.1227 -0.5205
 5011TIP3    H136448   2.790   2.540   6.184 -2.2986  0.4904 -0.2303
 5011TIP3    H236449   2.851   2.637   6.085 -0.9567 -0.7534 -0.6619
 5012TIP3   OH236450   2.843   4.796  10.877 -0.5029  0.8226 -0.1533
 5012TIP3    H136451   2.869   4.842  10.957 -0.9374 -0.3347  0.6816
 5012TIP3    H236452   2.814   4.710  10.908  0.5314 -0.1082 -1.6948
 5013TIP3   OH236453   3.906   2.961  17.210  0.0771  0.3827 -0.4808
 5013TIP3    H136454   3.945   2.911  17.282  0.6273  2.0796  0.4471
 5013TIP3    H236455   3.884   3.046  17.249  0.1359  1.2560 -2.2531
 5014TIP3   OH236456   4.988   1.915   5.361  0.5402  0.2362  0.0209
 5014TIP3    H136457   5.062   1.863   5.391  0.2169 -1.7172 -2.1884
 5014TIP3    H236458   5.027   1.997   5.329  2.0079 -1.2050 -2.1584
 5015TIP3   OH236459   4.892   3.526   4.143 -0.0038 -0.0194  0.9723
 5015TIP3    H136460   4.898   3.436   4.177  2.1195 -0.7387 -1.0215
 5015TIP3    H236461   4.829   3.520   4.071  1.3628 -0.3717 -0.2503
 5016TIP3   OH236462   3.551   3.683   5.622 -0.0263 -0.6519 -0.1840
 5016TIP3    H136463   3.585   3.598   5.647 -0.6326 -1.3915 -1.7313
 5016TIP3    H236464   3.477   3.698   5.681 -0.4686 -1.6229 -0.4672
 5017TIP3   OH236465   1.447   5.908  16.578  0.0794  0.0922 -0.6174
 5017TIP3    H136466   1.430   6.002  16.579  3.0082  0.7751  2.0076
 5017TIP3    H236467   1.475   5.890  16.488  2.7776  2.5665 -0.4319
 5018TIP3   OH236468   6.260   2.609  14.539  0.1311 -0.5140 -0.2293
 5018TIP3    H136469   6.223   2.529  14.501 -0.5659 -0.3077  0.0082
 5018TIP3    H236470   6.188   2.671  14.538  1.1826  0.7926 -2.3148
 5019TIP3   OH236471   5.740   5.975   5.349 -0.1585  0.3106 -0.1354
 5019TIP3    H136472   5.757   5.892   5.305 -0.0897  0.3552 -0.1921
 5019TIP3    H236473   5.655   5.964   5.390 -0.0568  0.1350  0.0330
 5020TIP3   OH236474   3.066   2.180   3.834  0.3623 -0.5127 -0.4183
 5020TIP3    H136475   2.994   2.181   3.771 -0.7050  0.0416  0.7917
 5020TIP3    H236476   3.070   2.269   3.868  1.4005 -0.6274 -0.2034
 5021TIP3   OH236477   0.312   0.033  11.788  0.4857 -0.1999 -0.2308
 5021TIP3    H136478   0.318  -0.062  11.788  1.7500 -0.1362 -0.2706
 5021TIP3    H236479   0.400   0.063  11.811  0.2733  0.9618 -0.8448
 5022TIP3   OH236480   1.421   1.181   2.732  0.0663 -0.1975  0.0097
 5022TIP3    H136481   1.339   1.155   2.773  0.9089 -0.1902  1.8241
 5022TIP3    H236482   1.432   1.120   2.659  0.1666 -2.6343  1.8983
 5023TIP3   OH236483   1.803   3.817   1.611  0.4184  0.3352  0.4480
 5023TIP3    H136484   1.802   3.872   1.689  1.6436 -0.2013  0.8710
 5023TIP3    H236485   1.892   3.827   1.576  0.8186 -1.6556  0.7830
 5024TIP3   OH236486   0.849   5.054   6.126  0.1215  0.5629  0.2242
 5024TIP3    H136487   0.846   5.148   6.105  0.4873  0.7351  0.9118
 5024TIP3    H236488   0.923   5.046   6.187 -0.0818 -0.1321  0.3797
 5025TIP3   OH236489   1.530   3.874   5.806 -0.5852  0.3303  0.0976
 5025TIP3    H136490   1.470   3.844   5.737  1.4868 -0.5654 -1.4184
 5025TIP3    H236491   1.511   3.817   5.881 -2.3606  0.8195  0.0680
 5026TIP3   OH236492   2.689   3.391   5.170 -0.0291 -0.1103 -0.4656
 5026TIP3    H136493   2.741   3.444   5.108  0.1823 -0.6630 -0.7678
 5026TIP3    H236494   2.754   3.350   5.226 -0.2389  0.6968  0.3916
 5027TIP3   OH236495   2.989   4.365  13.328  0.1064 -0.6229 -0.4700
 5027TIP3    H136496   3.081   4.370  13.304  0.9771  0.4373  2.6119
 5027TIP3    H236497   2.963   4.276  13.303  1.5962 -0.5624 -2.4423
 5028TIP3   OH236498   1.022   6.247  14.043 -0.1461 -0.3804  0.4688
 5028TIP3    H136499   1.037   6.275  13.953 -2.8206 -0.7476 -0.1845
 5028TIP3    H236500   1.097   6.280  14.092  0.3130  1.7139 -1.4954
 5029TIP3   OH236501   1.382   2.341  12.224  0.0142 -0.0703  0.1709
 5029TIP3    H136502   1.437   2.392  12.165 -1.2417 -0.8825 -1.7958
 5029TIP3    H236503   1.377   2.394  12.304  1.2713  1.3680 -0.6467
 5030TIP3   OH236504   0.586   1.966  12.070  0.0619 -0.2191  0.3735
 5030TIP3    H136505   0.638   1.932  11.997 -0.5123 -0.4265  0.0566
 5030TIP3    H236506   0.581   2.060  12.054  0.6095 -0.1440  0.5862
 5031TIP3   OH236507   4.530   2.092   5.318 -0.1849 -0.2667 -0.7405
 5031TIP3    H136508   4.618   2.070   5.349  0.6023 -1.8810 -3.6785
 5031TIP3    H236509   4.532   2.186   5.302 -0.1705  0.3449  2.3713
 5032TIP3   OH236510   2.612   3.258   6.558  0.6875 -0.3224 -0.1160
 5032TIP3    H136511   2.607   3.234   6.466 -0.2557 -0.1559 -0.1128
 5032TIP3    H236512   2.702   3.237   6.583  1.1191  0.1462 -1.2167
 5033TIP3   OH236513   0.856   1.440  12.162 -0.3899 -0.1004 -0.1469
 5033TIP3    H136514   0.885   1.350  12.177 -3.6869 -1.1062  1.2228
 5033TIP3    H236515   0.847   1.478  12.250  0.3981  1.3869 -0.6809
 5034TIP3   OH236516   1.018   2.945   6.035 -0.2947  0.2197  0.1639
 5034TIP3    H136517   0.947   2.880   6.034  0.4082 -0.5850 -1.5645
 5034TIP3    H236518   1.098   2.893   6.038  0.2750  1.0996  1.0599
 5035TIP3   OH236519   0.639   5.344  10.819  0.2197 -0.4842 -0.2439
 5035TIP3    H136520   0.575   5.292  10.868  1.2312 -0.2597  1.3861
 5035TIP3    H236521   0.720   5.293  10.826  0.8842  0.6131  0.1626
 5036TIP3   OH236522   2.503   4.753  15.871 -0.6483  0.1246  1.2402
 5036TIP3    H136523   2.571   4.802  15.917  2.3593 -1.6338 -0.9033
 5036TIP3    H236524   2.498   4.669  15.918  1.6491 -1.2500 -0.7207
 5037TIP3   OH236525   1.113   3.617  15.191  0.1065  0.0636 -0.0618
 5037TIP3    H136526   1.158   3.611  15.276 -0.3603  1.7059  0.3414
 5037TIP3    H236527   1.100   3.711  15.178 -1.6575 -0.2699 -0.9824
 5038TIP3   OH236528   2.312   1.477  11.736 -0.0173 -0.4787  0.0362
 5038TIP3    H136529   2.242   1.517  11.787 -0.6440  0.1578 -1.2826
 5038TIP3    H236530   2.311   1.385  11.762 -1.0346 -0.3850  0.3615
 5039TIP3   OH236531   3.685   0.922   4.323 -0.0583  0.3903 -0.5452
 5039TIP3    H136532   3.602   0.886   4.291  0.9792  0.1664 -3.3055
 5039TIP3    H236533   3.725   0.851   4.373 -0.6710 -0.1886 -0.8622
 5040TIP3   OH236534   0.847   3.115  13.526  0.3495 -0.8785 -0.0014
 5040TIP3    H136535   0.777   3.055  13.553  0.4832 -0.6181  0.9397
 5040TIP3    H236536   0.875   3.157  13.607  0.9374 -0.2676 -0.5169
 5041TIP3   OH236537   5.051   2.370  16.878 -0.1690  0.0408  0.1894
 5041TIP3    H136538   5.060   2.320  16.959 -0.8846 -0.1143  0.1842
 5041TIP3    H236539   4.956   2.384  16.870  0.0303  1.7951  0.4426
 5042TIP3   OH236540   4.244   6.363   3.508  0.9854 -0.3155 -0.4908
 5042TIP3    H136541   4.239   6.353   3.604 -0.2585 -0.4668 -0.5528
 5042TIP3    H236542   4.163   6.409   3.485  3.5156  4.5449 -0.9421
 5043TIP3   OH236543   1.070   0.547  11.242  0.3559 -0.1691 -0.0158
 5043TIP3    H136544   1.055   0.467  11.292  1.3186 -0.5566 -0.3240
 5043TIP3    H236545   1.060   0.617  11.306  2.3369 -0.6975  0.9392
 5044TIP3   OH236546   5.141   2.291   0.137  0.8319 -0.1511 -0.0596
 5044TIP3    H136547   5.231   2.293   0.104  0.7978 -0.1971 -0.1558
 5044TIP3    H236548   5.116   2.383   0.144  1.0042 -0.1299  0.2914
 5045TIP3   OH236549   0.821   2.322   5.685  0.5017  0.1048  0.3369
 5045TIP3    H136550   0.906   2.308   5.643  0.1792  1.9465 -1.0559
 5045TIP3    H236551   0.827   2.409   5.724 -0.5069 -0.0360  0.8327
 5046TIP3   OH236552   6.223   2.817   5.379  0.7846  0.3183 -0.0353
 5046TIP3    H136553   6.305   2.769   5.376  1.4234  1.2579  1.2111
 5046TIP3    H236554   6.249   2.909   5.379 -0.3288  0.6530 -0.7532
 5047TIP3   OH236555   2.135   2.187   0.211  0.3012  0.0375  0.7936
 5047TIP3    H136556   2.136   2.132   0.289 -1.3655 -1.4002 -0.1347
 5047TIP3    H236557   2.051   2.234   0.216  1.7664  2.8154  1.6933
 5048TIP3   OH236558   1.143   0.287   5.175  0.1411  0.6006 -0.4367
 5048TIP3    H136559   1.141   0.369   5.223  1.1033  0.5958 -0.3657
 5048TIP3    H236560   1.133   0.313   5.083 -3.7858  0.4723 -0.2238
 5049TIP3   OH236561   5.185   2.625   4.785 -0.4489 -0.1317 -0.8492
 5049TIP3    H136562   5.206   2.547   4.733  2.7928 -0.3924  0.6442
 5049TIP3    H236563   5.139   2.682   4.723 -0.7454 -2.1776 -2.6849
 5050TIP3   OH236564   0.562   2.414   4.531 -0.2977  0.3136  0.5794
 5050TIP3    H136565   0.642   2.369   4.503  0.9511  1.7177  1.7230
 5050TIP3    H236566   0.501   2.343   4.549  0.1496 -0.7599 -1.7384
 5051TIP3   OH236567   0.069   3.112   2.085 -0.1232  0.2863  0.0886
 5051TIP3    H136568  -0.007   3.170   2.082 -0.9668 -0.6597  1.6093
 5051TIP3    H236569   0.061   3.059   2.006  1.0582  2.6076 -1.7166
 5052TIP3   OH236570   3.594   1.764  13.868 -0.2760 -0.1801  0.1052
 5052TIP3    H136571   3.578   1.674  13.894  3.1701 -1.1548 -0.6093
 5052TIP3    H236572   3.592   1.814  13.949  0.3311 -1.3846  0.8839
 5053TIP3   OH236573   6.094   5.049   0.473 -0.0526  0.1710 -0.2888
 5053TIP3    H136574   6.042   5.120   0.436  1.2172  0.2700 -1.9876
 5053TIP3    H236575   6.040   4.971   0.462 -0.4720  0.5042 -0.6123
 5054TIP3   OH236576   0.414   5.120   5.396 -0.4208  0.0186  0.0733
 5054TIP3    H136577   0.409   5.060   5.471 -2.3721  0.2700  0.1859
 5054TIP3    H236578   0.412   5.063   5.319  0.4023 -0.1738  0.1804
 5055TIP3   OH236579   1.084   0.048  14.077  0.0419  0.0821  0.3869
 5055TIP3    H136580   1.092  -0.040  14.039 -0.2776  0.7499 -1.3258
 5055TIP3    H236581   0.991   0.060  14.092 -0.1079  0.6653 -0.8398
 5056TIP3   OH236582   5.592   4.519   0.504  0.6263  0.5384  0.1393
 5056TIP3    H136583   5.511   4.552   0.464  1.4587  0.9565 -1.2858
 5056TIP3    H236584   5.571   4.509   0.597 -1.3249 -0.2124 -0.3296
 5057TIP3   OH236585   0.944   3.358   1.162 -0.2422  0.0631  0.2292
 5057TIP3    H136586   1.032   3.395   1.154  0.0732 -0.9930 -1.8080
 5057TIP3    H236587   0.923   3.327   1.074 -2.0972 -0.9791  0.9836
 5058TIP3   OH236588   0.127   2.808   0.673  0.2666  0.6493 -0.0622
 5058TIP3    H136589   0.050   2.829   0.620 -1.3897 -1.5937  1.3125
 5058TIP3    H236590   0.097   2.814   0.763  1.9294  0.4105  0.5399
 5059TIP3   OH236591   1.519   2.326   1.742  0.6340 -0.7995  0.0115
 5059TIP3    H136592   1.545   2.330   1.649 -0.5891  1.4795 -0.3199
 5059TIP3    H236593   1.592   2.366   1.788  0.1611  0.4984 -0.3086
 5060TIP3   OH236594   2.946   6.319   2.937 -0.3610 -0.1146  0.5437
 5060TIP3    H136595   3.031   6.301   2.897  0.5971  2.7124  1.0613
 5060TIP3    H236596   2.920   6.404   2.902 -1.6032  0.3935  2.5288
 5061TIP3   OH236597   5.614   4.545  11.249  0.1305  0.0954  0.2339
 5061TIP3    H136598   5.636   4.496  11.329  0.7749  1.3377  0.8538
 5061TIP3    H236599   5.659   4.498  11.179  2.0290  0.6135  1.0262
 5062TIP3   OH236600   2.924   5.367  13.116 -0.6207  0.6744 -0.4759
 5062TIP3    H136601   2.871   5.446  13.120 -0.3512  0.8351  0.2295
 5062TIP3    H236602   3.013   5.399  13.097 -0.4261  0.5985  0.2494
 5063TIP3   OH236603   5.705   6.047  14.451 -0.5498 -0.5826  0.2336
 5063TIP3    H136604   5.637   6.033  14.516 -0.9765 -0.9607 -0.2853
 5063TIP3    H236605   5.786   6.049  14.501 -1.0115  0.8349  0.9734
 5064TIP3   OH236606   2.017   5.616  12.662  0.1038 -0.6192  0.3431
 5064TIP3    H136607   1.991   5.613  12.754  2.3637 -1.3540  1.0119
 5064TIP3    H236608   2.051   5.528  12.643  0.3791 -0.2528 -0.9730
 5065TIP3   OH236609   3.465   4.854   5.997 -0.4419  0.4644  0.0697
 5065TIP3    H136610   3.381   4.822   6.029 -0.0220  0.5003  1.2639
 5065TIP3    H236611   3.457   4.850   5.901 -1.1488 -1.2712  0.1476
 5066TIP3   OH236612   0.454   4.783   0.632 -0.1930 -0.1324 -0.3073
 5066TIP3    H136613   0.470   4.690   0.645 -3.2197 -0.7968 -0.8070
 5066TIP3    H236614   0.475   4.824   0.716 -0.4569 -1.5046  0.4395
 5067TIP3   OH236615   5.355   2.674   6.039  0.4648  0.2224 -0.3184
 5067TIP3    H136616   5.323   2.752   5.994  1.0051  0.5496 -0.1410
 5067TIP3    H236617   5.449   2.688   6.048  0.7496 -0.9019 -1.2049
 5068TIP3   OH236618   6.572   1.304  14.314 -0.0412 -0.5765  0.4218
 5068TIP3    H136619   6.578   1.367  14.385 -0.1209 -1.2155  1.0071
 5068TIP3    H236620   6.482   1.271  14.319 -0.5770  0.5514 -1.0118
 5069TIP3   OH236621   3.307   1.441   1.894 -0.7273  0.0320 -0.0800
 5069TIP3    H136622   3.340   1.516   1.944  0.0483 -0.2645 -0.1324
 5069TIP3    H236623   3.225   1.472   1.855 -0.2953  0.9374 -0.2924
 5070TIP3   OH236624   3.694   5.851  11.032  0.0068 -0.4888 -0.5366
 5070TIP3    H136625   3.709   5.785  11.100 -0.4741  0.9420  1.0540
 5070TIP3    H236626   3.695   5.802  10.950  0.8382 -2.2730  0.4669
 5071TIP3   OH236627   2.790   0.621   3.148  0.5244  0.1921  0.2096
 5071TIP3    H136628   2.770   0.529   3.130  2.3133 -0.3318  0.7336
 5071TIP3    H236629   2.726   0.646   3.214  0.0990 -0.7090  0.1613
 5072TIP3   OH236630   4.256   1.721   4.399  0.2192  0.5507  0.2782
 5072TIP3    H136631   4.218   1.713   4.311 -0.0926  2.0267  0.2530
 5072TIP3    H236632   4.196   1.778   4.446 -0.2862 -1.2288  1.8872
 5073TIP3   OH236633   0.460   1.513   4.976 -0.2117  0.0548 -0.5769
 5073TIP3    H136634   0.386   1.516   4.915 -0.6441 -1.4034 -0.1874
 5073TIP3    H236635   0.419   1.508   5.063  0.3731  0.7664 -0.2571
 5074TIP3   OH236636   3.529   4.086   1.468 -0.0778 -0.4392 -0.5623
 5074TIP3    H136637   3.472   4.162   1.481  1.8913  0.8567  1.0446
 5074TIP3    H236638   3.602   4.119   1.416  0.1095 -1.6233 -1.0815
 5075TIP3   OH236639   5.302   1.560   0.725 -0.4803  0.4813 -0.1018
 5075TIP3    H136640   5.234   1.576   0.659  1.1066 -1.1576 -2.2506
 5075TIP3    H236641   5.259   1.503   0.790 -0.8650 -1.8205 -2.2193
 5076TIP3   OH236642   3.060   1.960  15.726 -0.2937  0.3167  0.2030
 5076TIP3    H136643   3.086   2.038  15.678 -0.1195  0.5370  0.6526
 5076TIP3    H236644   2.965   1.969  15.735 -0.4342 -0.0963 -0.7440
 5077TIP3   OH236645   2.776   3.023  12.594 -0.2849  0.2223 -0.7981
 5077TIP3    H136646   2.692   3.036  12.551  0.1259 -0.5591 -1.8922
 5077TIP3    H236647   2.840   3.068  12.539 -0.0010  1.1042  0.2014
 5078TIP3   OH236648   0.534   3.342  12.096 -0.0465 -0.0630  0.1211
 5078TIP3    H136649   0.541   3.307  12.185 -0.2002 -0.8847 -0.1801
 5078TIP3    H236650   0.610   3.400  12.087 -0.5651  0.8012  1.1116
 5079TIP3   OH236651   0.524   4.922   4.111 -0.2504  0.1335  0.1944
 5079TIP3    H136652   0.474   4.900   4.189 -1.7442  0.7410 -0.5564
 5079TIP3    H236653   0.473   4.990   4.067  0.3647 -0.4278 -1.4907
 5080TIP3   OH236654   5.704   2.396  13.227 -0.4143  0.3041  0.5100
 5080TIP3    H136655   5.655   2.457  13.283 -1.0464  0.8892 -0.6629
 5080TIP3    H236656   5.641   2.368  13.161  0.7389  0.8632 -0.8669
 5081TIP3   OH236657   1.148   1.079  14.996 -0.0921  0.1283 -0.2500
 5081TIP3    H136658   1.104   1.108  14.916 -1.7438 -0.3319  0.4389
 5081TIP3    H236659   1.077   1.048  15.052  1.2467 -2.1605  0.3232
 5082TIP3   OH236660   4.820   4.216   2.710 -0.3295 -0.2010 -0.0905
 5082TIP3    H136661   4.730   4.201   2.739 -0.6754 -2.8491 -2.1473
 5082TIP3    H236662   4.873   4.206   2.789 -1.7506  0.6442  1.0106
 5083TIP3   OH236663   1.274   6.135  12.667  0.2706  0.0618  0.4853
 5083TIP3    H136664   1.250   6.160  12.578 -1.9030 -0.2533  0.9184
 5083TIP3    H236665   1.366   6.160  12.676  0.2168  1.1041 -1.4700
 5084TIP3   OH236666   0.465   1.855   6.070 -0.0899  0.0686 -0.2663
 5084TIP3    H136667   0.545   1.820   6.111 -0.8105 -1.5469 -0.2028
 5084TIP3    H236668   0.438   1.788   6.007  0.4460  2.0716 -2.7936
 5085TIP3   OH236669   6.336   6.342  14.620 -0.3414  0.0573 -0.1312
 5085TIP3    H136670   6.272   6.385  14.563 -2.7010 -1.3031  1.3408
 5085TIP3    H236671   6.298   6.257  14.640  2.4135 -1.2220  0.0999
 5086TIP3   OH236672   1.308   6.626  16.259  0.2227  0.1513  0.4175
 5086TIP3    H136673   1.382   6.680  16.230  0.4549  0.0381  0.7891
 5086TIP3    H236674   1.313   6.548  16.205  0.0218  0.4036  0.0352
 5087TIP3   OH236675   5.756   3.635  15.553 -0.4102  0.2352 -0.4160
 5087TIP3    H136676   5.662   3.651  15.543 -0.3944  1.2760  0.8826
 5087TIP3    H236677   5.796   3.722  15.549  0.4708 -0.1739 -0.6599
 5088TIP3   OH236678   2.034   2.970  17.176  0.5195  0.4019  0.2272
 5088TIP3    H136679   2.030   2.935  17.265  0.4939  2.6525  1.1822
 5088TIP3    H236680   2.108   3.031  17.177  0.1611  0.8958 -1.1204
 5089TIP3   OH236681   6.119   5.214   1.770 -0.0956  0.3079 -0.4922
 5089TIP3    H136682   6.123   5.124   1.802  1.8382  1.0124  1.5613
 5089TIP3    H236683   6.142   5.267   1.846  1.0411  2.3921 -2.1833
 5090TIP3   OH236684   1.519   5.791   2.488  0.2529  0.8365 -0.4088
 5090TIP3    H136685   1.477   5.710   2.458 -1.8522  1.4603  0.6597
 5090TIP3    H236686   1.607   5.788   2.450 -0.6791 -0.6327 -2.6372
 5091TIP3   OH236687   0.060   6.330   4.861  0.1405  0.0109  1.0522
 5091TIP3    H136688  -0.026   6.342   4.901 -0.1405 -1.6189  1.0205
 5091TIP3    H236689   0.042   6.280   4.781  1.1321 -0.4836  1.1226
 5092TIP3   OH236690   2.956   4.665  16.019  0.5002 -0.2570 -0.0763
 5092TIP3    H136691   2.933   4.724  15.947 -0.9487 -0.1188  0.4660
 5092TIP3    H236692   2.978   4.582  15.977 -0.3249 -0.1757 -0.6788
 5093TIP3   OH236693   3.088   3.583  16.613  0.1595  0.1581 -0.0301
 5093TIP3    H136694   3.129   3.611  16.531  2.3465 -2.0544  0.1889
 5093TIP3    H236695   2.994   3.584  16.594  0.6094 -1.1097 -2.9092
 5094TIP3   OH236696   6.393   4.415   3.492 -0.1568  0.7451 -0.4606
 5094TIP3    H136697   6.443   4.360   3.552 -1.6970  0.5433  0.6962
 5094TIP3    H236698   6.389   4.364   3.411 -0.1779 -0.1139  0.0638
 5095TIP3   OH236699   0.868   6.287   5.232  0.6592 -0.2210 -0.1544
 5095TIP3    H136700   0.865   6.337   5.314  0.6812  0.8903 -0.8080
 5095TIP3    H236701   0.914   6.206   5.255  0.3020 -0.1119  1.0157
 5096TIP3   OH236702   4.804   4.651   5.650  0.1326  0.4631  0.0479
 5096TIP3    H136703   4.770   4.568   5.619  0.8370  0.1889 -0.0089
 5096TIP3    H236704   4.836   4.633   5.738  1.1779  0.4230 -0.3230
 5097TIP3   OH236705   1.110   4.381  13.409 -0.3109 -0.0938 -0.9160
 5097TIP3    H136706   1.015   4.384  13.418 -0.1309  0.2818  1.2879
 5097TIP3    H236707   1.136   4.304  13.460  0.6146  0.1705 -0.9830
 5098TIP3   OH236708   6.738   4.933  11.896 -0.5788 -0.8932  0.9713
 5098TIP3    H136709   6.665   4.914  11.838  0.5779 -1.7782 -0.2504
 5098TIP3    H236710   6.748   4.854  11.950 -1.4714 -0.1842  2.2436
 5099TIP3   OH236711   6.625   0.578   4.274 -0.1543 -0.3671 -0.1518
 5099TIP3    H136712   6.715   0.562   4.301 -0.4054 -0.4406  0.6593
 5099TIP3    H236713   6.575   0.507   4.313 -0.8409  0.6925  0.9718
 5100TIP3   OH236714   1.824   0.006  12.871  0.4657  0.2783 -0.6265
 5100TIP3    H136715   1.729  -0.005  12.861  0.0530  2.1636  0.6797
 5100TIP3    H236716   1.861  -0.071  12.827 -1.6946 -1.3062  0.1201
 5101TIP3   OH236717   2.840   3.361   1.030 -0.2384  0.2059  0.6125
 5101TIP3    H136718   2.803   3.438   0.987  0.1940 -0.0473 -0.2391
 5101TIP3    H236719   2.932   3.382   1.042 -0.0593 -0.2685  0.1366
 5102TIP3   OH236720   5.141   3.282  13.843  0.2345  0.1303 -0.6489
 5102TIP3    H136721   5.108   3.320  13.761 -0.5402  1.0026  0.0474
 5102TIP3    H236722   5.171   3.194  13.818 -3.2083 -1.0155 -1.2604
 5103TIP3   OH236723   6.079   3.591  14.195  0.2003 -0.1440 -0.0527
 5103TIP3    H136724   6.066   3.522  14.261 -2.4917 -0.6425 -0.9709
 5103TIP3    H236725   5.991   3.619  14.172  1.1460  1.7383 -1.7144
 5104TIP3   OH236726   5.814   3.261  15.802  0.1253 -0.2856 -0.1448
 5104TIP3    H136727   5.885   3.221  15.750 -0.8386 -1.4727 -0.5989
 5104TIP3    H236728   5.753   3.294  15.736 -0.4400 -0.5557  0.2428
 5105TIP3   OH236729   5.963   2.103   2.891  0.6870  0.7422 -0.3167
 5105TIP3    H136730   5.995   2.016   2.913 -0.2323  0.6642  0.7914
 5105TIP3    H236731   6.022   2.134   2.822  0.8514 -0.8589 -0.9225
 5106TIP3   OH236732   5.911   3.610  15.910  0.1889 -0.4449 -0.6560
 5106TIP3    H136733   5.926   3.518  15.891  0.0958 -0.4389 -0.7599
 5106TIP3    H236734   5.950   3.657  15.836 -0.0141 -0.4140 -0.7447
 5107TIP3   OH236735   6.076   0.442   4.632 -0.4010  0.0896 -0.4721
 5107TIP3    H136736   6.125   0.477   4.707 -2.5383 -0.6908  1.4191
 5107TIP3    H236737   5.994   0.492   4.632 -0.8936 -0.6700 -1.6363
 5108TIP3   OH236738   3.018   5.934  11.863  0.2679  0.5489 -0.1027
 5108TIP3    H136739   2.925   5.956  11.870  0.2806  0.9997 -1.2075
 5108TIP3    H236740   3.019   5.838  11.865 -0.3489  0.4935 -1.2357
 5109TIP3   OH236741   2.777   1.210  16.144 -0.5603  0.4768 -0.3542
 5109TIP3    H136742   2.802   1.292  16.185  0.1145  0.4636 -0.7248
 5109TIP3    H236743   2.842   1.196  16.075 -1.0602 -0.0258 -0.7406
 5110TIP3   OH236744   3.175   4.736   1.876 -0.0625 -0.6129  0.2275
 5110TIP3    H136745   3.221   4.766   1.954  0.1054 -0.7188  0.1682
 5110TIP3    H236746   3.103   4.682   1.910 -0.0192 -0.6182  0.3101
 5111TIP3   OH236747   0.101   5.828  15.160  0.4508 -0.0365 -0.3185
 5111TIP3    H136748   0.138   5.837  15.072  1.3541  1.5640  0.1800
 5111TIP3    H236749   0.009   5.804  15.146  0.7603 -0.5032 -1.6652
 5112TIP3   OH236750   4.466   1.944  17.434  0.0619  0.4585 -0.1242
 5112TIP3    H136751   4.453   1.879  17.365  0.6464  0.9326 -0.7001
 5112TIP3    H236752   4.533   2.002  17.399  1.9116 -0.4532  1.6553
 5113TIP3   OH236753   0.175   4.095  13.186  0.3196  0.2430  0.4505
 5113TIP3    H136754   0.131   4.034  13.246  0.4494 -0.2237  0.0704
 5113TIP3    H236755   0.111   4.110  13.116  0.4366  0.2379  0.3422
 5114TIP3   OH236756   0.677   5.581  13.913  0.1281  0.1099  0.1735
 5114TIP3    H136757   0.735   5.531  13.971 -0.2313  0.4454  0.8205
 5114TIP3    H236758   0.716   5.668  13.909  0.2582  0.0388 -0.2563
 5115TIP3   OH236759   4.933   3.534  12.994  0.1244  0.0296  0.2640
 5115TIP3    H136760   4.934   3.612  13.049  0.6553  0.9596 -1.0067
 5115TIP3    H236761   5.024   3.526  12.963  0.4553 -1.9987  1.5694
 5116TIP3   OH236762   5.132   0.435   0.152 -0.7133  0.2301  0.0671
 5116TIP3    H136763   5.163   0.526   0.158  0.8417 -0.2962  0.3320
 5116TIP3    H236764   5.086   0.431   0.068  0.7656  0.8181 -0.8024
 5117TIP3   OH236765   1.018   6.219   4.817  0.4268  0.2715 -0.7356
 5117TIP3    H136766   0.963   6.295   4.837  0.6853  0.1853  0.3774
 5117TIP3    H236767   0.959   6.157   4.775 -0.6522 -0.3059  1.5089
 5118TIP3   OH236768   2.996   4.115   2.996 -0.3679 -0.2451  0.0928
 5118TIP3    H136769   3.012   4.210   2.990 -0.0630 -0.3825 -2.0262
 5118TIP3    H236770   2.901   4.107   2.995 -0.4019 -0.0132 -1.8901
 5119TIP3   OH236771   0.831   4.799  14.740 -0.3457 -0.1301  0.8326
 5119TIP3    H136772   0.737   4.795  14.725 -0.6677  1.0679  2.3052
 5119TIP3    H236773   0.841   4.782  14.834  1.0887 -2.0252  0.4071
 5120TIP3   OH236774   0.515   1.519  17.260 -0.2783 -0.0351  0.4133
 5120TIP3    H136775   0.589   1.574  17.286  0.3695 -1.4005  1.6051
 5120TIP3    H236776   0.557   1.443  17.218 -0.9365 -1.2310  1.8669
 5121TIP3   OH236777   2.071   2.096   5.610  0.0158  0.2010  0.4238
 5121TIP3    H136778   2.079   2.008   5.648  2.2792  0.7791  1.4574
 5121TIP3    H236779   2.156   2.111   5.568 -0.7784  1.4450 -0.8302
 5122TIP3   OH236780   2.423   2.243   6.183 -0.1403 -0.2398 -0.1479
 5122TIP3    H136781   2.337   2.212   6.157  0.4515 -1.5914 -0.6034
 5122TIP3    H236782   2.464   2.167   6.225  1.3688 -0.1137 -1.2874
 5123TIP3   OH236783   5.319   4.215   5.086  0.7452 -0.3250  0.1762
 5123TIP3    H136784   5.357   4.302   5.074  1.5099 -0.6603  0.1037
 5123TIP3    H236785   5.266   4.202   5.007 -1.2195  0.9634  1.1842
 5124TIP3   OH236786   5.224   4.569  12.874  0.8027 -0.4045  0.6261
 5124TIP3    H136787   5.154   4.521  12.918  0.2550  0.5007  0.7560
 5124TIP3    H236788   5.219   4.658  12.909 -0.6131  0.7986 -2.2330
 5125TIP3   OH236789   5.678   3.591   0.936  0.2998  0.0309  0.2436
 5125TIP3    H136790   5.706   3.611   1.025  0.2581  0.7674  0.0971
 5125TIP3    H236791   5.678   3.675   0.891 -0.2287 -0.2504 -0.3028
 5126TIP3   OH236792   1.527   1.301   0.483  0.2916  0.1073 -0.3991
 5126TIP3    H136793   1.557   1.279   0.571 -0.2613 -1.8694 -0.6710
 5126TIP3    H236794   1.474   1.380   0.495 -0.7563 -0.8034  1.2221
 5127TIP3   OH236795   5.525   3.255   2.448 -0.2327 -0.1623 -0.3830
 5127TIP3    H136796   5.455   3.320   2.452 -0.0027  0.0282  2.0036
 5127TIP3    H236797   5.512   3.211   2.365 -0.4033  2.9214 -2.1408
 5128TIP3   OH236798   5.521   5.371  14.630  0.6509 -0.6400 -0.8310
 5128TIP3    H136799   5.529   5.311  14.704 -1.8190  0.5294  0.4897
 5128TIP3    H236800   5.539   5.457  14.668 -1.0961  0.0261 -1.4539
 5129TIP3   OH236801   3.441   0.024  11.915 -0.2029 -0.2699 -0.3820
 5129TIP3    H136802   3.445  -0.044  11.982 -0.1703 -0.0346 -0.1434
 5129TIP3    H236803   3.412  -0.022  11.836  1.7777 -0.9603 -0.7499
 5130TIP3   OH236804   3.131   2.172  11.789 -0.4334  0.5411 -0.5347
 5130TIP3    H136805   3.045   2.147  11.822 -0.2217  0.3951 -0.0901
 5130TIP3    H236806   3.119   2.179  11.694 -0.4884 -1.3843 -0.7169
 5131TIP3   OH236807   0.969   2.537  16.201 -0.2282  0.7196  0.0345
 5131TIP3    H136808   0.929   2.573  16.280  1.5149 -1.4433  2.0698
 5131TIP3    H236809   1.004   2.612  16.154 -2.8657  2.2403  0.2998
 5132TIP3   OH236810   5.702   5.832  15.653 -0.1162  0.1153  0.1355
 5132TIP3    H136811   5.750   5.895  15.600 -0.1297 -0.8624 -1.0618
 5132TIP3    H236812   5.621   5.815  15.604  0.0372 -1.0914  0.2659
 5133TIP3   OH236813   0.800   5.729   1.773 -0.0473 -0.2602 -0.0283
 5133TIP3    H136814   0.872   5.687   1.820  0.5744 -0.6333 -1.2818
 5133TIP3    H236815   0.842   5.783   1.706 -0.9124  0.4084 -0.0590
 5134TIP3   OH236816   1.185   2.141   5.695 -0.1234 -0.5209  0.0796
 5134TIP3    H136817   1.157   2.221   5.739  0.8821  0.0900 -0.3812
 5134TIP3    H236818   1.241   2.170   5.623  1.0436 -1.6623  0.4780
 5135TIP3   OH236819   3.959   4.225  12.832 -0.5144 -0.1468 -0.0457
 5135TIP3    H136820   3.900   4.292  12.797 -0.3419 -0.3502 -0.7598
 5135TIP3    H236821   3.923   4.143  12.799 -0.2925 -0.3356  0.1870
 5136TIP3   OH236822   6.658   0.416  11.660  0.0529  0.2986 -0.2902
 5136TIP3    H136823   6.592   0.401  11.592  0.9593 -1.8883 -0.7870
 5136TIP3    H236824   6.612   0.400  11.742 -0.2714 -0.3444 -0.5858
 5137TIP3   OH236825   5.726   5.498  16.923 -0.2346 -0.2934  0.4449
 5137TIP3    H136826   5.657   5.456  16.871 -0.5592  1.1743 -0.3720
 5137TIP3    H236827   5.740   5.439  16.997 -2.3207 -0.6764  0.5854
 5138TIP3   OH236828   5.557   1.630   1.218  0.0943 -0.5630 -0.3379
 5138TIP3    H136829   5.615   1.556   1.234  1.6407  0.5953 -0.4280
 5138TIP3    H236830   5.546   1.671   1.304 -0.6381 -0.7887 -0.3144
 5139TIP3   OH236831   5.963   3.763   5.625 -0.5040 -0.3524 -0.3047
 5139TIP3    H136832   5.883   3.739   5.672  0.4871 -0.0091  1.6453
 5139TIP3    H236833   6.013   3.682   5.618 -0.6502 -0.4035 -0.7915
 5140TIP3   OH236834   4.979   5.459   1.604 -0.5002  0.1392 -0.1890
 5140TIP3    H136835   5.035   5.442   1.680 -0.6703 -1.2369 -0.3533
 5140TIP3    H236836   4.899   5.410   1.622  0.0675 -1.5262 -1.9796
 5141TIP3   OH236837   5.686   0.113   1.085  0.0017  0.1886  0.9639
 5141TIP3    H136838   5.628   0.187   1.067 -0.8959 -1.2263 -3.1157
 5141TIP3    H236839   5.628   0.044   1.117 -0.5701 -0.7723 -1.7911
 5142TIP3   OH236840   6.682   6.616  12.729 -0.2475 -0.5316  0.1953
 5142TIP3    H136841   6.621   6.555  12.771 -0.1857 -0.1799  0.8130
 5142TIP3    H236842   6.765   6.568  12.726 -0.4623 -0.8761 -0.3139
 5143TIP3   OH236843   1.596   3.639  15.753 -0.6125  0.0623  0.1478
 5143TIP3    H136844   1.663   3.658  15.687  0.7285  1.3455  1.7569
 5143TIP3    H236845   1.643   3.591  15.821 -0.8562  2.3071  2.0332
 5144TIP3   OH236846   0.190   4.601   4.655 -0.0500  0.0765 -0.1910
 5144TIP3    H136847   0.104   4.602   4.698  0.9181 -1.3094  1.9337
 5144TIP3    H236848   0.201   4.511   4.624  0.8867  0.0648  0.1377
 5145TIP3   OH236849   0.915   3.225  17.442 -0.2800  0.5484  0.5798
 5145TIP3    H136850   0.925   3.146  17.496 -0.9177  0.4972  0.6350
 5145TIP3    H236851   0.996   3.273  17.455  0.6910 -0.7196 -0.4845
 5146TIP3   OH236852   2.941   5.381   1.872 -0.5077  0.1676 -0.4581
 5146TIP3    H136853   2.908   5.401   1.960 -0.6789 -0.4541 -0.3778
 5146TIP3    H236854   3.018   5.326   1.887  0.5918  1.5905 -0.6434
 5147TIP3   OH236855   5.542   2.176   4.713 -0.5069 -0.1923  0.2171
 5147TIP3    H136856   5.630   2.214   4.708 -0.7930  0.2989 -2.4039
 5147TIP3    H236857   5.551   2.090   4.673 -1.3365  0.1502 -0.7495
 5148TIP3   OH236858   3.618   2.923  15.370  0.1299  0.1738 -0.2058
 5148TIP3    H136859   3.577   2.980  15.306 -0.6227  0.0456  0.1459
 5148TIP3    H236860   3.544   2.882  15.416  0.6562 -0.5362  0.0190
 5149TIP3   OH236861   3.721   1.026   2.424 -0.0767 -0.1767 -0.4702
 5149TIP3    H136862   3.811   1.038   2.456  0.1327  0.2609 -1.2108
 5149TIP3    H236863   3.700   0.936   2.448  0.6969 -0.4117 -0.6287
 5150TIP3   OH236864   5.067   2.881  12.369  0.0189  0.1938 -0.1195
 5150TIP3    H136865   5.060   2.847  12.458  0.4314  0.6128  0.0776
 5150TIP3    H236866   5.017   2.819  12.315 -0.6186  0.1871  0.4636
 5151TIP3   OH236867   4.381   3.613  10.726  0.3774 -0.8268  0.0539
 5151TIP3    H136868   4.428   3.695  10.736 -0.9966  0.1976 -1.4887
 5151TIP3    H236869   4.419   3.573  10.648 -0.2646 -0.7465 -0.2979
 5152TIP3   OH236870   1.290   6.725   5.881 -0.1657  0.1684 -0.1267
 5152TIP3    H136871   1.360   6.666   5.908  0.1635  0.0366 -1.2046
 5152TIP3    H236872   1.298   6.800   5.939  0.3865 -0.1811  0.2542
 5153TIP3   OH236873   3.064   0.202  14.381  0.4480  0.3666  0.1237
 5153TIP3    H136874   3.023   0.282  14.349  2.6306  1.5821  0.2308
 5153TIP3    H236875   3.121   0.174  14.309 -0.4778 -1.2948 -0.0227
 5154TIP3   OH236876   4.968   4.745   4.631 -0.2652  0.4726  0.3027
 5154TIP3    H136877   5.057   4.710   4.635 -0.2029  0.4778 -0.7566
 5154TIP3    H236878   4.977   4.836   4.659  0.0984  0.5180  0.0515
 5155TIP3   OH236879   5.643   6.536  14.301  1.1207 -0.1794 -0.1468
 5155TIP3    H136880   5.668   6.458  14.251 -2.2180 -0.1346 -2.2264
 5155TIP3    H236881   5.651   6.608  14.238 -2.6699 -0.0355 -0.6932
 5156TIP3   OH236882   0.434   5.205  12.413 -0.3555  0.0178 -0.1860
 5156TIP3    H136883   0.450   5.218  12.506  0.9486 -0.4354 -0.3220
 5156TIP3    H236884   0.436   5.110  12.401  0.8801  0.0986 -0.8675
 5157TIP3   OH236885   6.534   6.533  16.750  0.0891 -0.3852 -0.1429
 5157TIP3    H136886   6.567   6.622  16.744  1.2228 -0.6120  1.9672
 5157TIP3    H236887   6.451   6.535  16.702  0.2259  1.7052 -0.3846
 5158TIP3   OH236888   4.274   4.914   0.197  0.4843  0.4373 -0.1977
 5158TIP3    H136889   4.246   4.916   0.105 -1.2402  1.4934  0.3089
 5158TIP3    H236890   4.249   4.999   0.231  0.1891 -0.2970  1.5128
 5159TIP3   OH236891   5.587   5.228  11.922 -0.3807  0.1235  0.5899
 5159TIP3    H136892   5.581   5.287  11.847  1.9706  0.2672  0.4121
 5159TIP3    H236893   5.580   5.285  11.998  1.2668  0.6067  0.4197
 5160TIP3   OH236894   6.105   1.202   0.406  0.1690  0.3247 -0.2124
 5160TIP3    H136895   6.190   1.166   0.433  0.2008  0.2530 -0.4119
 5160TIP3    H236896   6.126   1.290   0.373  0.0062  0.8041  0.9095
 5161TIP3   OH236897   4.888   4.619   2.454 -0.4459 -0.0842  0.4333
 5161TIP3    H136898   4.812   4.675   2.440 -0.0952  0.4842  0.7810
 5161TIP3    H236899   4.855   4.547   2.507 -0.8473 -0.0886  0.1818
 5162TIP3   OH236900   1.559   1.843   3.526 -0.1903 -0.6804  0.2947
 5162TIP3    H136901   1.634   1.898   3.549  0.1395 -0.9379 -0.1284
 5162TIP3    H236902   1.534   1.800   3.607  0.7260 -1.3138  0.2521
 5163TIP3   OH236903   6.122   0.198   1.818  0.7361 -0.0409 -0.7247
 5163TIP3    H136904   6.159   0.254   1.887  1.6420 -0.4663 -0.8538
 5163TIP3    H236905   6.088   0.122   1.865  0.4624  0.1200 -0.6571
 5164TIP3   OH236906   1.956   5.776   4.337  0.4428 -0.1591 -0.0738
 5164TIP3    H136907   1.983   5.784   4.428 -0.6094  0.5784  0.1890
 5164TIP3    H236908   2.037   5.783   4.287  1.0748 -0.9603  0.8090
 5165TIP3   OH236909   4.969   5.824   3.930  0.5136  0.2283  0.1618
 5165TIP3    H136910   5.051   5.780   3.912  0.5511  0.2606  0.2513
 5165TIP3    H236911   4.967   5.832   4.026  0.8498  1.0764  0.1010
 5166TIP3   OH236912   0.899   1.279   2.314  0.3630 -0.4303  0.0573
 5166TIP3    H136913   0.960   1.346   2.346 -0.5697  1.3252 -1.6287
 5166TIP3    H236914   0.946   1.237   2.242  0.5594 -0.9074  0.4587
 5167TIP3   OH236915   0.450   6.287   1.036  0.5006 -0.4682 -0.4306
 5167TIP3    H136916   0.365   6.252   1.064 -0.3508  2.0184  0.3841
 5167TIP3    H236917   0.495   6.212   0.997 -1.4563 -2.2283  0.4700
 5168TIP3   OH236918   4.147   3.823  13.971  0.8053  0.3598 -0.5028
 5168TIP3    H136919   4.074   3.763  13.983  0.5359  0.7107 -0.3616
 5168TIP3    H236920   4.126   3.873  13.892  1.2598 -0.0559 -0.8948
 5169TIP3   OH236921   4.016   1.168  15.218  0.1333 -0.4578  0.0222
 5169TIP3    H136922   3.972   1.107  15.158  0.1636  0.4221 -0.9127
 5169TIP3    H236923   4.072   1.111  15.272 -3.3054 -1.8695  2.4315
 5170TIP3   OH236924   4.791   0.616  11.753 -0.1848  0.3041  0.0253
 5170TIP3    H136925   4.711   0.638  11.800 -1.3309 -1.6095 -0.8999
 5170TIP3    H236926   4.813   0.695  11.704 -0.7280  1.2869  1.2959
 5171TIP3   OH236927   2.027   3.621   1.743 -0.2065  0.1220 -0.0900
 5171TIP3    H136928   2.088   3.687   1.776 -0.1588  0.7127 -1.3096
 5171TIP3    H236929   2.001   3.653   1.657 -2.2256 -0.1118  0.3677
 5172TIP3   OH236930   3.265   2.693  14.071  0.4084  0.2731 -0.1912
 5172TIP3    H136931   3.226   2.667  13.988  2.8693  0.1817 -1.3947
 5172TIP3    H236932   3.211   2.648  14.137 -1.7296  0.5099 -1.6543
 5173TIP3   OH236933   1.083   5.456  15.818  0.0471  0.7703 -0.0757
 5173TIP3    H136934   1.064   5.544  15.784 -1.1817  0.8518  0.7391
 5173TIP3    H236935   1.128   5.472  15.901  1.4708  0.5953 -0.7981
 5174TIP3   OH236936   2.352   0.190   3.778 -0.5572 -0.0518  0.6221
 5174TIP3    H136937   2.439   0.160   3.805  0.2841  2.1058  0.4984
 5174TIP3    H236938   2.359   0.202   3.683 -1.3421 -0.8780  0.4463
 5175TIP3   OH236939   3.389   1.394  12.728 -0.1506 -0.0884  0.3696
 5175TIP3    H136940   3.428   1.315  12.690  1.1805  1.5826 -2.0730
 5175TIP3    H236941   3.463   1.441  12.766 -0.2454  1.5098 -1.2585
 5176TIP3   OH236942   4.016   4.635   1.224 -0.3684 -0.9700 -0.1980
 5176TIP3    H136943   4.018   4.633   1.319  0.6309 -1.5664 -0.2139
 5176TIP3    H236944   4.099   4.676   1.199 -1.9163  2.1256 -0.7888
 5177TIP3   OH236945   5.361   1.234  12.092 -0.8862 -0.0410 -0.1769
 5177TIP3    H136946   5.407   1.159  12.130 -0.7783 -0.0186 -0.2636
 5177TIP3    H236947   5.313   1.199  12.018  1.1840  0.4048 -1.8127
 5178TIP3   OH236948   5.904   5.082  13.983 -0.7142 -0.0382 -0.2372
 5178TIP3    H136949   5.819   5.123  13.963 -2.1195 -2.5393  0.2514
 5178TIP3    H236950   5.906   5.075  14.078  0.5123  0.8531 -0.1724
 5179TIP3   OH236951   0.629   1.054  16.509 -0.1822  0.2773  0.5850
 5179TIP3    H136952   0.668   1.122  16.564  1.2450 -0.2168  0.2468
 5179TIP3    H236953   0.659   1.075  16.421 -0.7469 -0.1059  0.2978
 5180TIP3   OH236954   5.532   1.581  12.171  0.0091  0.4918  0.1758
 5180TIP3    H136955   5.578   1.601  12.089 -0.5436 -1.1252 -0.5739
 5180TIP3    H236956   5.461   1.646  12.175 -2.3390 -1.6270 -2.6814
 5181TIP3   OH236957   2.728   6.152   1.185  0.0911 -0.1967  0.4400
 5181TIP3    H136958   2.817   6.120   1.199  0.1761  0.0883  0.5595
 5181TIP3    H236959   2.712   6.211   1.258 -0.5184 -0.9141  0.9015
 5182TIP3   OH236960   6.497   0.039   4.981 -0.1674  0.1294  0.0891
 5182TIP3    H136961   6.589   0.013   4.970 -0.5926 -1.1686 -0.5244
 5182TIP3    H236962   6.492   0.070   5.072  0.9125  0.3901  0.0745
 5183TIP3   OH236963   5.623   1.878  14.592 -0.6129 -0.4649  0.0707
 5183TIP3    H136964   5.576   1.843  14.668  0.5579 -0.8035  0.6649
 5183TIP3    H236965   5.575   1.845  14.516 -1.3687 -0.7275  0.6550
 5184TIP3   OH236966   0.017   1.860   3.023 -0.3016  0.7426 -0.0002
 5184TIP3    H136967  -0.047   1.929   3.005 -2.6573 -0.9911  1.1624
 5184TIP3    H236968  -0.016   1.784   2.977  2.4491  0.3562 -1.5779
 5185TIP3   OH236969   6.086   6.528   3.837 -0.1930  0.1606 -0.2209
 5185TIP3    H136970   6.076   6.482   3.920  1.4617 -1.1069 -0.6614
 5185TIP3    H236971   6.172   6.499   3.804 -0.4485  1.2551 -1.9790
 5186TIP3   OH236972   1.014   4.075  13.270  0.2722 -0.0099  0.2707
 5186TIP3    H136973   1.072   4.009  13.233 -2.4750 -0.9444 -2.8557
 5186TIP3    H236974   0.989   4.130  13.195 -4.2715 -0.8733  0.8461
 5187TIP3   OH236975   0.530   5.163   3.229 -0.0435 -0.7155 -0.1651
 5187TIP3    H136976   0.565   5.115   3.304 -1.1313  0.5006  1.2018
 5187TIP3    H236977   0.597   5.156   3.162  1.9223 -0.1377  1.6429
 5188TIP3   OH236978   0.832   2.101   6.072 -0.1864  0.1425  0.0303
 5188TIP3    H136979   0.920   2.062   6.068  0.2566  0.6719  2.7430
 5188TIP3    H236980   0.839   2.170   6.139 -1.9487  2.2562 -1.7993
 5189TIP3   OH236981   2.310   2.708   3.553 -0.1402 -0.3264  0.1349
 5189TIP3    H136982   2.283   2.715   3.645 -1.6076  2.0130 -0.4050
 5189TIP3    H236983   2.228   2.692   3.505 -0.1624  2.9638 -1.1466
 5190TIP3   OH236984   5.590   4.255  11.191 -0.2318 -0.4676 -0.6739
 5190TIP3    H136985   5.643   4.176  11.186  0.0463 -0.3441  0.2230
 5190TIP3    H236986   5.632   4.316  11.130  2.1171  0.4610  1.6736
 5191TIP3   OH236987   5.436   0.630  14.916  0.0273 -0.2101 -0.5934
 5191TIP3    H136988   5.477   0.703  14.869  0.9791 -1.6917 -2.1886
 5191TIP3    H236989   5.435   0.658  15.007  0.1431  1.8884 -1.1787
 5192TIP3   OH236990   4.906   1.042  12.140  0.6222 -0.7439 -0.6180
 5192TIP3    H136991   4.931   1.077  12.226  0.5509 -0.8168 -0.5683
 5192TIP3    H236992   4.817   1.073  12.126  1.2704  0.9096 -1.5187
 5193TIP3   OH236993   2.879   0.168   4.425 -0.6336  0.2784  0.1619
 5193TIP3    H136994   2.931   0.152   4.346 -0.5691 -3.1310  0.7507
 5193TIP3    H236995   2.791   0.139   4.402 -1.0613  1.0390  0.7987
 5194TIP3   OH236996   3.353   2.903  15.734  0.2439 -0.5864  0.2080
 5194TIP3    H136997   3.366   2.904  15.639 -0.8777  1.7483  0.0063
 5194TIP3    H236998   3.418   2.840  15.766  0.2885 -1.8505 -2.1240
 5195TIP3   OH236999   0.781   4.043  10.550  0.6013  0.6679  0.4222
 5195TIP3    H137000   0.747   3.954  10.554 -0.2076  0.9620  0.2121
 5195TIP3    H237001   0.705   4.097  10.528  1.3751  1.2241 -0.9964
 5196TIP3   OH237002   3.062   3.353   3.218 -0.0047 -0.0345  0.8762
 5196TIP3    H137003   3.061   3.404   3.137 -2.2506 -0.1154  0.8004
 5196TIP3    H237004   3.096   3.413   3.284 -2.0480  1.4494  0.6770
 5197TIP3   OH237005   0.870   2.514   0.983  0.9297  0.5661  0.2872
 5197TIP3    H137006   0.940   2.579   0.997  1.3886  0.2870 -0.6305
 5197TIP3    H237007   0.840   2.492   1.071  2.4267  0.2335  0.7361
 5198TIP3   OH237008   3.463   2.075   3.041 -0.1649  0.3131  0.0396
 5198TIP3    H137009   3.475   2.168   3.060 -0.7493  0.4701 -0.3319
 5198TIP3    H237010   3.512   2.030   3.110 -1.2227  0.8758  1.1914
 5199TIP3   OH237011   5.054   6.324  11.028 -0.8904 -0.8747  0.2961
 5199TIP3    H137012   5.003   6.276  10.963 -1.0230 -1.5394  0.8832
 5199TIP3    H237013   4.993   6.389  11.063 -1.0552 -1.0479  0.3321
 5200TIP3   OH237014   0.930   5.228  17.308  0.7699 -0.2957  0.1408
 5200TIP3    H137015   0.999   5.163  17.301  1.4623  0.3565  0.8072
 5200TIP3    H237016   0.867   5.204  17.239  1.3781 -1.2139 -0.1035
 5201TIP3   OH237017   5.525   0.207   3.447  0.5092  0.4417 -0.4000
 5201TIP3    H137018   5.561   0.263   3.378  1.4210  0.4399  0.0609
 5201TIP3    H237019   5.504   0.266   3.519  0.6506  0.3039 -0.2434
 5202TIP3   OH237020   0.575   6.300  12.265 -0.0038  0.0002 -0.6083
 5202TIP3    H137021   0.485   6.280  12.240 -1.0972  2.2714  1.1064
 5202TIP3    H237022   0.588   6.390  12.234  1.2607  0.1090  0.1920
 5203TIP3   OH237023   6.333   0.408   5.936 -0.1896 -0.2817  0.3950
 5203TIP3    H137024   6.285   0.448   5.864  0.4259  1.1216  0.7177
 5203TIP3    H237025   6.267   0.360   5.986 -1.1888  1.2428  0.5975
 5204TIP3   OH237026   4.449   5.839  12.849  0.0325  0.1532  0.0597
 5204TIP3    H137027   4.356   5.817  12.847 -0.5079  2.0097  1.8094
 5204TIP3    H237028   4.467   5.860  12.940  1.6898  1.7262 -0.5728
 5205TIP3   OH237029   3.263   5.221  12.112 -0.0202 -0.1920 -0.4139
 5205TIP3    H137030   3.219   5.136  12.108  1.7625 -1.2994  1.3796
 5205TIP3    H237031   3.347   5.206  12.067 -0.5044  1.2389 -1.8769
 5206TIP3   OH237032   2.541   3.930   3.423 -0.3364 -0.3544  0.4199
 5206TIP3    H137033   2.538   4.005   3.483 -0.3685  0.2404 -0.3073
 5206TIP3    H237034   2.451   3.897   3.421 -0.2179 -0.7259  1.1252
 5207TIP3   OH237035   3.039   2.158   5.126 -0.0744  0.2356 -0.4820
 5207TIP3    H137036   3.057   2.085   5.067 -1.0405  0.3244 -0.9057
 5207TIP3    H237037   2.948   2.144   5.154  0.2776  0.3406  0.7861
 5208TIP3   OH237038   1.320   5.129   5.146 -0.5725 -0.2184  0.5469
 5208TIP3    H137039   1.279   5.213   5.124 -0.5754 -0.5857 -0.9251
 5208TIP3    H237040   1.388   5.118   5.079 -0.5604 -1.3929  0.7438
 5209TIP3   OH237041   6.536   5.993  14.456 -0.1930  0.1567 -0.4174
 5209TIP3    H137042   6.591   5.948  14.391  1.5814  0.6559  0.6472
 5209TIP3    H237043   6.486   6.057  14.405 -0.1375 -0.6401 -1.5025
 5210TIP3   OH237044   0.806   5.750  13.185 -0.2485 -0.5051 -0.1646
 5210TIP3    H137045   0.719   5.774  13.218 -0.4384 -0.4693 -0.6960
 5210TIP3    H237046   0.865   5.766  13.259 -0.8499 -1.6731  0.6092
 5211TIP3   OH237047   3.965   0.730  15.208  0.0461 -0.0081 -0.3537
 5211TIP3    H137048   3.998   0.818  15.188  0.1803  0.0467  0.1057
 5211TIP3    H237049   4.039   0.672  15.189  1.2257  0.2999  2.7551
 5212TIP3   OH237050   3.167   2.957  16.007 -0.2651 -0.6678 -0.3795
 5212TIP3    H137051   3.204   2.930  15.923 -4.0730 -0.6575 -2.2956
 5212TIP3    H237052   3.145   3.050  15.994  3.2897  0.8119  2.4628
 5213TIP3   OH237053   2.838   2.234  15.357 -0.3758  0.5959  0.1124
 5213TIP3    H137054   2.870   2.314  15.398  2.5709  0.4755 -1.6473
 5213TIP3    H237055   2.786   2.263  15.282  3.9793  1.2613 -3.0584
 5214TIP3   OH237056   1.404   5.232  14.998  0.3106 -0.1835  0.0900
 5214TIP3    H137057   1.424   5.171  15.070  1.8139  0.2793  0.0930
 5214TIP3    H237058   1.382   5.175  14.925 -1.0848 -0.6660  0.8295
 5215TIP3   OH237059   0.261   3.177  13.289  0.2455  0.0222 -0.1469
 5215TIP3    H137060   0.243   3.083  13.298  0.9192 -0.0093  1.0885
 5215TIP3    H237061   0.356   3.182  13.283  0.2178  0.6383 -0.0932
 5216TIP3   OH237062   5.199   0.417   3.957 -0.2306 -0.4528  0.3939
 5216TIP3    H137063   5.118   0.417   4.008 -0.5849  0.5074 -0.1367
 5216TIP3    H237064   5.234   0.329   3.966 -0.3336 -0.3369  2.2115
 5217TIP3   OH237065   4.331   2.716  12.161  0.0023 -0.4953 -0.0983
 5217TIP3    H137066   4.259   2.750  12.215 -1.3872 -1.1830 -1.4488
 5217TIP3    H237067   4.398   2.785  12.165 -1.3262  0.8388  0.0231
 5218TIP3   OH237068   4.891   3.825  11.753 -0.0417  0.3876  0.0719
 5218TIP3    H137069   4.913   3.738  11.718 -1.3055 -0.2266  0.7418
 5218TIP3    H237070   4.919   3.822  11.845  0.9507  1.1079 -0.1894
 5219TIP3   OH237071   4.123   1.394   0.152 -0.2201  0.0341  0.2171
 5219TIP3    H137072   4.150   1.481   0.184 -1.5636  0.0820  1.3255
 5219TIP3    H237073   4.163   1.387   0.065  1.9431  0.7353  1.0927
 5220TIP3   OH237074   5.794   2.535   2.540  0.8151  0.2758 -0.4433
 5220TIP3    H137075   5.771   2.608   2.483  2.0638  0.6968 -0.4433
 5220TIP3    H237076   5.843   2.475   2.484 -0.6726 -0.8695 -0.5855
 5221TIP3   OH237077   1.409   1.227   6.181  0.3748  0.0288  0.3194
 5221TIP3    H137078   1.499   1.239   6.149 -0.2016 -1.4746 -2.0454
 5221TIP3    H237079   1.414   1.151   6.239  0.7631  0.5071  0.9290
 5222TIP3   OH237080   0.593   4.589  12.289  0.4274  0.6036 -0.6106
 5222TIP3    H137081   0.608   4.653  12.219  0.2989  1.4142  0.0771
 5222TIP3    H237082   0.574   4.508  12.244  2.2629  0.6255 -1.5289
 5223TIP3   OH237083   5.614   0.974  16.624 -0.0901  0.1885  0.2054
 5223TIP3    H137084   5.643   1.041  16.562  1.1437  0.2600  0.8293
 5223TIP3    H237085   5.626   0.891  16.577 -1.4347  0.3689 -0.4970
 5224TIP3   OH237086   0.287   4.939  16.436  0.3281  0.5510  0.2731
 5224TIP3    H137087   0.313   4.849  16.415  1.1942  1.1825 -1.5778
 5224TIP3    H237088   0.369   4.982  16.463  0.7311  1.7138 -2.4929
 5225TIP3   OH237089   5.216   3.022  10.819  0.1049 -0.2412  0.2138
 5225TIP3    H137090   5.296   2.970  10.810 -0.0509 -0.1147 -2.6512
 5225TIP3    H237091   5.230   3.097  10.761 -0.7099  1.6700  2.3618
 5226TIP3   OH237092   1.396   1.493  12.858  0.1676  0.2510 -0.1648
 5226TIP3    H137093   1.490   1.492  12.873 -0.2143 -0.0875  3.0096
 5226TIP3    H237094   1.386   1.479  12.764  3.2446 -0.1850 -0.5276
 5227TIP3   OH237095   2.612   6.388   5.882 -0.4333 -0.2605  0.1068
 5227TIP3    H137096   2.626   6.467   5.934 -0.6400 -0.4731  0.4910
 5227TIP3    H237097   2.586   6.322   5.945 -0.1517 -0.6689 -0.1984
 5228TIP3   OH237098   4.470   4.243   0.935 -1.0761  0.2657 -0.1365
 5228TIP3    H137099   4.565   4.255   0.933 -0.9180 -0.3899  1.8460
 5228TIP3    H237100   4.436   4.318   0.886  0.4555  0.3462 -1.1545
 5229TIP3   OH237101   5.565   0.705   5.807  0.4501 -0.0428  0.1040
 5229TIP3    H137102   5.644   0.751   5.778  0.4616 -0.7776 -1.1007
 5229TIP3    H237103   5.595   0.617   5.829 -0.0169 -0.3094 -0.3089
 5230TIP3   OH237104   5.296   6.682   4.834 -0.0571 -0.3140 -0.1640
 5230TIP3    H137105   5.224   6.619   4.842  0.6761 -1.2061 -0.4400
 5230TIP3    H237106   5.268   6.741   4.765 -0.9859 -0.0074  0.4573
 5231TIP3   OH237107   5.514   1.432   3.257 -0.4761 -0.0541  0.2259
 5231TIP3    H137108   5.480   1.520   3.240  0.6994  0.4152  0.1847
 5231TIP3    H237109   5.569   1.442   3.335 -0.7095 -0.8609  0.5078
 5232TIP3   OH237110   3.973   0.633   1.052  0.5174 -0.3008 -0.0219
 5232TIP3    H137111   4.007   0.719   1.076 -0.1761 -0.0911  0.2233
 5232TIP3    H237112   3.994   0.625   0.958 -0.3016  0.5692 -0.2957
 5233TIP3   OH237113   0.857   5.362   1.553  0.0709  0.1811  0.1316
 5233TIP3    H137114   0.824   5.319   1.474  0.1322  0.8890 -0.2907
 5233TIP3    H237115   0.942   5.398   1.526  0.6495 -0.5951  0.8624
 5234TIP3   OH237116   5.172   0.793  14.899 -0.1192 -0.2054 -0.4964
 5234TIP3    H137117   5.225   0.855  14.950 -2.2170  2.4147 -1.2680
 5234TIP3    H237118   5.185   0.818  14.808 -1.9629 -0.0234 -0.7570
 5235TIP3   OH237119   0.856   3.367  14.263 -0.1033  0.7846  0.2284
 5235TIP3    H137120   0.812   3.290  14.300  1.9122 -1.1380 -1.1441
 5235TIP3    H237121   0.925   3.387  14.326  0.2470  0.5775 -0.0852
 5236TIP3   OH237122   0.306   3.156   6.237  0.4745 -0.4178 -0.0031
 5236TIP3    H137123   0.236   3.221   6.233  1.0962  0.2267 -0.6240
 5236TIP3    H237124   0.361   3.183   6.310  1.1635  0.2171 -0.7381
 5237TIP3   OH237125   0.241   6.240   0.820 -0.3497  0.0206 -0.6070
 5237TIP3    H137126   0.272   6.212   0.906  1.7464  2.6749 -0.3444
 5237TIP3    H237127   0.148   6.258   0.833 -0.0185  0.6657  1.2467
 5238TIP3   OH237128   0.057   6.264  11.881  0.1904  0.1713  0.2212
 5238TIP3    H137129   0.045   6.300  11.969 -0.4102  0.4572  0.0306
 5238TIP3    H237130   0.151   6.272  11.864  0.1457  1.2240  0.3761
 5239TIP3   OH237131   5.639   1.773   2.530 -0.1731  0.0506 -0.2546
 5239TIP3    H137132   5.592   1.811   2.604 -1.4149  0.7727 -1.3778
 5239TIP3    H237133   5.571   1.756   2.464  0.9945  0.1848 -1.5469
 5240TIP3   OH237134   4.125   0.073  12.873 -0.1240 -0.1345 -0.3774
 5240TIP3    H137135   4.129   0.163  12.840 -3.3151 -0.7050 -2.7749
 5240TIP3    H237136   4.128   0.018  12.795  0.7088 -2.1303  0.9698
 5241TIP3   OH237137   3.421   0.991   4.504  0.1214 -0.0157  0.3424
 5241TIP3    H137138   3.445   0.899   4.508 -0.0457 -0.0481  3.8037
 5241TIP3    H237139   3.503   1.038   4.519 -0.1821  0.2858  1.0959
 5242TIP3   OH237140   6.214   2.575  16.339 -0.0289  0.3110  0.7033
 5242TIP3    H137141   6.249   2.637  16.404 -0.2010  1.7571 -0.5167
 5242TIP3    H237142   6.167   2.631  16.276 -0.1749 -1.0754 -0.4696
 5243TIP3   OH237143   2.945   2.579  12.210  0.3011 -0.3769 -0.2597
 5243TIP3    H137144   2.977   2.667  12.193  0.3219 -0.6155 -1.5347
 5243TIP3    H237145   3.023   2.524  12.212  0.1077 -0.9656 -3.4168
 5244TIP3   OH237146   0.197   4.961   6.289 -0.1406 -0.2729  0.3698
 5244TIP3    H137147   0.255   4.995   6.222  0.4091  1.0007  1.4476
 5244TIP3    H237148   0.247   4.966   6.370 -0.6203 -2.1915  0.8522
 5245TIP3   OH237149   1.444   3.178   3.305 -0.2755  0.2157  0.3885
 5245TIP3    H137150   1.523   3.181   3.251 -0.1394 -1.6894  0.4199
 5245TIP3    H237151   1.453   3.253   3.364  1.5940 -0.0180  0.4774
 5246TIP3   OH237152   2.830   0.588   4.309  0.1035  0.0751 -0.2210
 5246TIP3    H137153   2.908   0.644   4.308 -0.3756  0.7564 -0.3099
 5246TIP3    H237154   2.843   0.531   4.384  0.6976  0.1715 -0.2412
 5247TIP3   OH237155   0.565   0.904   2.117  0.0589 -0.3742 -0.1412
 5247TIP3    H137156   0.508   0.877   2.189  0.4838 -1.2509 -0.1192
 5247TIP3    H237157   0.510   0.897   2.039 -0.8494  1.9685  0.2101
 5248TIP3   OH237158   0.271   0.335   6.207 -0.4402 -0.7118 -0.1515
 5248TIP3    H137159   0.212   0.409   6.193  0.8543  0.4682  0.4174
 5248TIP3    H237160   0.288   0.335   6.301  0.3186 -1.1213 -0.2811
 5249TIP3   OH237161   3.380   2.660   0.120 -0.3532 -0.1124 -0.3297
 5249TIP3    H137162   3.390   2.566   0.137  0.5388  0.0706  0.2240
 5249TIP3    H237163   3.348   2.696   0.203 -1.0534  0.0278 -0.6530
 5250TIP3   OH237164   0.870   0.987  12.998 -0.8186 -0.5848 -0.0573
 5250TIP3    H137165   0.777   0.982  13.020 -1.6599 -0.0551 -2.9831
 5250TIP3    H237166   0.895   1.077  13.020 -1.2992 -0.4038 -0.2340
 5251TIP3   OH237167   2.899   6.116  10.513  0.2234 -0.2832 -0.4943
 5251TIP3    H137168   2.834   6.166  10.465  0.6784  0.1376 -0.6786
 5251TIP3    H237169   2.976   6.114  10.456  0.9848  0.7580  0.4468
 5252TIP3   OH237170   2.219   6.345  17.412  0.6179 -0.0328 -0.2695
 5252TIP3    H137171   2.299   6.293  17.407  0.7638  0.2552 -1.0812
 5252TIP3    H237172   2.245   6.431  17.380 -0.4811 -0.5056 -2.6575
 5253TIP3   OH237173   3.190   0.429  13.639  0.3522 -0.8147 -0.5218
 5253TIP3    H137174   3.225   0.409  13.726  0.8516  0.7719 -0.3270
 5253TIP3    H237175   3.142   0.511  13.651  0.3657 -0.6182 -1.7293
 5254TIP3   OH237176   5.623   2.955  15.628  0.1802 -0.3705 -0.1851
 5254TIP3    H137177   5.669   2.871  15.638 -0.3048 -0.5360  0.7560
 5254TIP3    H237178   5.617   2.989  15.717  0.5484  0.7700 -0.5819
 5255TIP3   OH237179   0.935   2.117  14.183  0.2217 -1.1131  0.3966
 5255TIP3    H137180   1.009   2.146  14.238  1.7852 -3.0773 -0.5222
 5255TIP3    H237181   0.864   2.102  14.245  0.4915  0.9792  1.3015
 5256TIP3   OH237182   0.250   2.656  13.285  0.6637 -0.3272  0.1493
 5256TIP3    H137183   0.345   2.646  13.282  0.7112 -0.1251  0.9215
 5256TIP3    H237184   0.225   2.622  13.371 -0.1109 -1.5828 -0.5451
 5257TIP3   OH237185   1.756   6.011  12.514  0.5462 -0.2198  0.6957
 5257TIP3    H137186   1.807   6.009  12.433  2.0191 -1.4598  1.6006
 5257TIP3    H237187   1.676   5.963  12.493  1.0101 -0.7191  0.0332
 5258TIP3   OH237188   3.932   3.956   1.399 -0.1322 -0.2011 -0.3975
 5258TIP3    H137189   3.876   3.955   1.321 -0.5585 -0.4502 -0.0976
 5258TIP3    H237190   4.017   3.925   1.367 -0.6072 -1.4418 -0.5574
 5259TIP3   OH237191   3.196   1.908   6.231 -0.7463 -0.4597  0.2254
 5259TIP3    H137192   3.283   1.874   6.212 -0.7336 -0.3688  0.1198
 5259TIP3    H237193   3.141   1.831   6.240 -0.6819 -0.5123  0.1614
 5260TIP3   OH237194   2.489   2.812   1.309  0.2671  0.2116  0.0851
 5260TIP3    H137195   2.425   2.879   1.335  0.5039  0.4216  0.1273
 5260TIP3    H237196   2.492   2.751   1.383 -0.2405 -0.0641 -0.1153
 5261TIP3   OH237197   6.103   0.095   5.229  0.4315 -0.4296 -0.1556
 5261TIP3    H137198   6.047   0.088   5.306  1.2778  1.1223  0.6496
 5261TIP3    H237199   6.154   0.175   5.243  1.0686 -0.4505 -2.0342
 5262TIP3   OH237200   1.185   4.870   4.883  0.3468  0.6702 -0.0933
 5262TIP3    H137201   1.188   4.793   4.939 -1.3491  1.4135  1.1006
 5262TIP3    H237202   1.096   4.903   4.893  1.6027  4.0451  1.1705
 5263TIP3   OH237203   6.010   4.880   4.019  0.2353  1.1515 -0.4013
 5263TIP3    H137204   6.017   4.807   4.080 -0.4168  1.9190  0.6147
 5263TIP3    H237205   6.077   4.942   4.048  0.6180  1.0782 -1.1049
 5264TIP3   OH237206   3.763   6.337   5.432 -0.1736  0.0641  0.9504
 5264TIP3    H137207   3.744   6.318   5.340 -0.8633  0.6341  0.9738
 5264TIP3    H237208   3.859   6.330   5.438 -0.0383  0.8786 -0.0074
 5265TIP3   OH237209   5.996   6.309  14.731 -0.1178 -0.2854  0.6510
 5265TIP3    H137210   6.011   6.401  14.750 -1.7906 -0.3107  2.4413
 5265TIP3    H237211   6.016   6.264  14.814  1.0110 -1.5939 -0.2898
 5266TIP3   OH237212   4.656   5.686  12.746  0.1425  0.3496  0.6259
 5266TIP3    H137213   4.574   5.722  12.779  0.2918 -0.2201  1.6745
 5266TIP3    H237214   4.691   5.753  12.688 -0.2860  1.2631  1.4047
 5267TIP3   OH237215   6.354   4.061  15.333  0.1477 -0.6880  0.3943
 5267TIP3    H137216   6.386   4.121  15.401 -0.8731 -0.1022  0.3719
 5267TIP3    H237217   6.425   4.058  15.269  0.6945 -0.4315  0.9698
 5268TIP3   OH237218   0.361   2.061  12.340  0.0462 -0.0223  0.2691
 5268TIP3    H137219   0.348   1.994  12.273 -1.2351  1.4320 -1.0418
 5268TIP3    H237220   0.277   2.065  12.386  0.1985  0.4770  0.5171
 5269TIP3   OH237221   0.328   2.397   6.621 -0.4139 -0.1746 -0.1307
 5269TIP3    H137222   0.299   2.428   6.707  0.9360 -0.4582  0.4460
 5269TIP3    H237223   0.381   2.469   6.587  0.7775 -0.8717  0.1942
 5270TIP3   OH237224   5.425   2.796   2.074  0.2620  0.0451  0.2189
 5270TIP3    H137225   5.332   2.800   2.053  0.0819 -0.6590  0.8380
 5270TIP3    H237226   5.431   2.831   2.163  0.5601 -0.0758  0.2478
 5271TIP3   OH237227   2.812   2.764  13.479 -0.1216  0.4522  0.1476
 5271TIP3    H137228   2.827   2.824  13.407 -1.8846 -0.9680 -1.5067
 5271TIP3    H237229   2.900   2.734  13.504  0.5201  0.6405 -1.7388
 5272TIP3   OH237230   2.530   4.970  14.192 -0.0131 -0.5941 -0.2681
 5272TIP3    H137231   2.546   4.894  14.248 -0.1240  0.3480  1.0842
 5272TIP3    H237232   2.570   5.043  14.239 -0.7589  0.3496 -1.0654
 5273TIP3   OH237233   0.747   0.461  11.189  0.2588 -0.1123  0.3544
 5273TIP3    H137234   0.735   0.546  11.230 -0.7218 -0.5966  1.1094
 5273TIP3    H237235   0.842   0.447  11.189  0.6409  1.8391 -1.6165
 5274TIP3   OH237236   0.826   4.355  13.356  0.9518 -0.1982  0.5630
 5274TIP3    H137237   0.746   4.327  13.400  0.3255  0.3094 -0.2151
 5274TIP3    H237238   0.810   4.339  13.263  1.3154  0.8921  0.2866
 5275TIP3   OH237239   0.794   2.310  16.521  0.3754 -0.0297  0.1689
 5275TIP3    H137240   0.793   2.214  16.525 -0.8824 -0.0005  2.4477
 5275TIP3    H237241   0.824   2.337  16.608 -1.0453  1.6254  0.2041
 5276TIP3   OH237242   0.712   3.410   4.268 -0.3962  0.2249 -0.3674
 5276TIP3    H137243   0.800   3.419   4.230 -0.0190 -1.1036  0.1548
 5276TIP3    H237244   0.670   3.342   4.216  0.2605 -1.9152  1.7151
 5277TIP3   OH237245   1.095   2.364  15.040 -0.0888 -0.2764 -0.2289
 5277TIP3    H137246   1.017   2.415  15.018 -0.4014 -0.8706 -0.5188
 5277TIP3    H237247   1.074   2.322  15.123  1.2762  2.3526  1.6091
 5278TIP3   OH237248   1.497   0.845   4.779 -0.5333 -0.0696 -0.1511
 5278TIP3    H137249   1.521   0.792   4.855  0.5521  1.6453  0.7662
 5278TIP3    H237250   1.407   0.871   4.796  0.7135  3.3068  2.5715
 5279TIP3   OH237251   2.882   6.080  15.687 -0.0042  0.2044 -0.1006
 5279TIP3    H137252   2.904   6.015  15.753 -0.4638 -0.2060 -0.3443
 5279TIP3    H237253   2.806   6.127  15.724 -0.4594 -0.2326 -0.4614
 5280TIP3   OH237254   3.767   0.790   3.215  0.2460  0.7962 -0.0015
 5280TIP3    H137255   3.756   0.764   3.124  1.9942 -0.7820  0.1893
 5280TIP3    H237256   3.765   0.886   3.213 -1.4196  0.7849 -1.4224
 5281TIP3   OH237257   1.039   5.505  17.456  0.5254 -0.6547  0.2874
 5281TIP3    H137258   1.094   5.498  17.534  0.8206 -0.3393  0.1042
 5281TIP3    H237259   1.070   5.435  17.398 -1.1373 -2.3851  1.3338
 5282TIP3   OH237260   5.074   5.169  12.577 -0.3074  0.2660 -0.5285
 5282TIP3    H137261   4.989   5.143  12.611 -0.0773  0.3265  0.1118
 5282TIP3    H237262   5.087   5.115  12.499  0.0463 -1.3989  0.6180
 5283TIP3   OH237263   4.982   5.531  15.596  0.1853 -0.0998 -0.1727
 5283TIP3    H137264   4.949   5.449  15.557 -0.3248  0.1189 -0.2118
 5283TIP3    H237265   5.053   5.503  15.654  0.5844 -0.4856 -0.8379
 5284TIP3   OH237266   6.569   4.055  11.975  0.4699  0.2617 -0.4078
 5284TIP3    H137267   6.608   4.031  11.891  1.5912  2.1124 -0.4870
 5284TIP3    H237268   6.476   4.062  11.958  0.8046  1.9326 -1.9162
 5285TIP3   OH237269   5.910   1.551  13.675 -0.2564 -0.2024 -0.2288
 5285TIP3    H137270   6.004   1.539  13.660 -0.3894 -1.0385 -0.4380
 5285TIP3    H237271   5.885   1.477  13.730 -1.2288 -1.2999 -2.0549
 5286TIP3   OH237272   0.299   1.000  15.431 -0.2053 -0.3214 -0.2585
 5286TIP3    H137273   0.252   0.943  15.370 -0.3419 -1.0605  0.5240
 5286TIP3    H237274   0.391   0.994  15.405 -0.1747 -1.1500 -0.0062
 5287TIP3   OH237275   5.853   5.489  14.689  0.0758  0.0591  0.3292
 5287TIP3    H137276   5.853   5.473  14.595 -1.1650 -1.9677  0.6225
 5287TIP3    H237277   5.926   5.435  14.722 -0.0047  0.1301  0.6197
 5288TIP3   OH237278   6.139   4.139  12.928 -0.4265 -0.0875  0.1964
 5288TIP3    H137279   6.060   4.192  12.943  0.2369  1.2053 -0.6355
 5288TIP3    H237280   6.208   4.203  12.913  0.4488 -1.2042 -0.7355
 5289TIP3   OH237281   2.309   4.322  16.856  0.4728  0.2672  0.2875
 5289TIP3    H137282   2.360   4.244  16.837  1.1559  0.0320  2.6559
 5289TIP3    H237283   2.245   4.294  16.922 -1.2668  1.0805 -0.9725
 5290TIP3   OH237284   3.804   0.964  16.981 -0.3272 -0.3033  0.4416
 5290TIP3    H137285   3.836   0.874  16.970  0.4122  0.0513 -0.4517
 5290TIP3    H237286   3.796   0.998  16.892  0.3027  0.8152  0.7907
 5291TIP3   OH237287   1.518   3.100  13.288 -0.3503  0.3482 -0.2123
 5291TIP3    H137288   1.588   3.072  13.229  1.2401  0.9819  1.3100
 5291TIP3    H237289   1.487   3.183  13.251  0.7615  0.8375 -0.0609
 5292TIP3   OH237290   0.086   5.344   3.477 -0.2229  0.5518  0.1067
 5292TIP3    H137291   0.016   5.408   3.486 -0.8714 -0.0708 -0.4532
 5292TIP3    H237292   0.128   5.342   3.563  0.6845  2.7085 -0.2163
 5293TIP3   OH237293   4.609   0.384   2.658 -0.1119  0.0911  0.4375
 5293TIP3    H137294   4.575   0.296   2.672 -0.0713  0.1800  1.1384
 5293TIP3    H237295   4.601   0.399   2.564  1.3274 -1.2546  0.0684
 5294TIP3   OH237296   3.258   3.686   3.704 -0.8140 -1.0417 -0.9467
 5294TIP3    H137297   3.302   3.604   3.726  1.0695  0.1026 -0.1515
 5294TIP3    H237298   3.286   3.705   3.614  1.6334  0.3782  0.0153
 5295TIP3   OH237299   2.390   4.773   5.361  0.1327 -0.5597 -0.0781
 5295TIP3    H137300   2.345   4.821   5.430  0.7781  0.2329 -0.1840
 5295TIP3    H237301   2.438   4.704   5.406 -0.5724 -0.9262  0.1110
 5296TIP3   OH237302   5.864   2.417   4.856  0.3112  0.3756 -0.2057
 5296TIP3    H137303   5.827   2.496   4.817  1.0148  0.0570 -1.5742
 5296TIP3    H237304   5.840   2.422   4.949 -2.3091  0.6608 -0.8215
 5297TIP3   OH237305   1.399   5.503   6.199 -0.2652  0.0840  0.5096
 5297TIP3    H137306   1.389   5.577   6.140  1.1135 -0.2398 -0.1869
 5297TIP3    H237307   1.424   5.542   6.283 -1.3188  0.4961  0.6356
 5298TIP3   OH237308   4.682   4.784   2.746 -0.1228 -0.1149 -0.6252
 5298TIP3    H137309   4.586   4.784   2.755 -0.1811  0.6138 -1.1943
 5298TIP3    H237310   4.697   4.773   2.652  0.3795 -1.1477 -0.4385
 5299TIP3   OH237311   1.862   3.355   5.223  0.1062  0.0953  0.0384
 5299TIP3    H137312   1.928   3.288   5.241 -0.1735 -0.6327 -1.5284
 5299TIP3    H237313   1.779   3.308   5.226 -0.2617  0.7635  0.7783
 5300TIP3   OH237314   4.047   6.202  11.742  0.1460  0.3121  0.6198
 5300TIP3    H137315   4.098   6.175  11.665  1.4046  0.7798  1.2575
 5300TIP3    H237316   4.016   6.290  11.721 -0.2574  0.1004  0.3076
 5301TIP3   OH237317   0.034   6.239   2.209 -0.0147  0.1855 -0.1153
 5301TIP3    H137318   0.059   6.168   2.149 -0.0799  0.8851 -0.9948
 5301TIP3    H237319   0.095   6.231   2.282  1.5395  0.6706 -1.3182
 5302TIP3   OH237320   2.517   4.210  15.938  0.5390 -0.3084  0.2862
 5302TIP3    H137321   2.485   4.194  15.850  0.5429  1.9778 -0.1971
 5302TIP3    H237322   2.605   4.171  15.940  0.0542 -1.4573 -0.2898
 5303TIP3   OH237323   5.736   6.659   0.764  0.7850  0.0785 -0.3443
 5303TIP3    H137324   5.743   6.631   0.673  0.0527 -0.0818 -0.3582
 5303TIP3    H237325   5.643   6.676   0.777  0.7611 -0.6733  0.5933
 5304TIP3   OH237326   2.178   2.110   5.888  0.1578 -0.1587 -0.4233
 5304TIP3    H137327   2.147   2.199   5.871  0.9101 -0.1334 -1.7754
 5304TIP3    H237328   2.179   2.103   5.984 -0.6422  1.0114 -0.3046
 5305TIP3   OH237329   3.197   3.923  13.904  0.0982 -0.4492 -0.0756
 5305TIP3    H137330   3.277   3.870  13.895 -0.4856 -1.4217  0.3019
 5305TIP3    H237331   3.177   3.951  13.815  1.8237  1.3048  0.0109
 5306TIP3   OH237332   0.324   1.572  14.870  0.5759  0.3847  0.3441
 5306TIP3    H137333   0.288   1.505  14.927  0.7184  0.2770  0.3076
 5306TIP3    H237334   0.386   1.525  14.814 -1.0115  0.0770 -1.2841
 5307TIP3   OH237335   3.614   5.513  13.305  0.4240  0.3012  0.0779
 5307TIP3    H137336   3.685   5.531  13.365 -0.7651  2.0510  1.0747
 5307TIP3    H237337   3.601   5.596  13.259 -0.3079 -0.2888 -0.8212
 5308TIP3   OH237338   2.050   5.789   4.046  0.7790  1.0249 -0.3729
 5308TIP3    H137339   1.968   5.742   4.035  1.0626  0.1334  1.0471
 5308TIP3    H237340   2.024   5.880   4.064  0.1445  0.9298 -0.7782
 5309TIP3   OH237341   6.216   4.684  14.973 -0.6472 -0.1383  0.2936
 5309TIP3    H137342   6.202   4.712  14.882  0.1731  0.4973  0.3525
 5309TIP3    H237343   6.311   4.685  14.984 -0.7718  1.0627  1.5306
 5310TIP3   OH237344   5.405   2.126   5.534  0.0324  0.3149  0.0825
 5310TIP3    H137345   5.402   2.049   5.590  0.3345  1.6609  2.0625
 5310TIP3    H237346   5.336   2.183   5.567 -0.3174  0.8501 -1.4677
 5311TIP3   OH237347   6.478   5.728   1.757  0.8008 -0.5560 -0.2861
 5311TIP3    H137348   6.423   5.694   1.687  0.0676 -0.5868  0.2846
 5311TIP3    H237349   6.566   5.698   1.736  0.2175 -2.7801  0.1462
 5312TIP3   OH237350   1.878   1.642  15.285  0.5326  0.2263 -0.2527
 5312TIP3    H137351   1.939   1.705  15.249  0.7505  0.0505 -0.1921
 5312TIP3    H237352   1.844   1.683  15.365  0.4370  0.3967 -0.3797
 5313TIP3   OH237353   5.597   6.456  12.420 -0.6889 -0.2149  0.3104
 5313TIP3    H137354   5.654   6.504  12.481 -0.0860 -0.3253 -0.1620
 5313TIP3    H237355   5.653   6.433  12.347 -1.3137 -0.4437 -0.1087
 5314TIP3   OH237356   4.266   5.004   2.561  0.1453  0.0966  0.1787
 5314TIP3    H137357   4.199   5.063   2.595 -0.1711  0.8545 -1.6471
 5314TIP3    H237358   4.340   5.061   2.541  0.7156 -0.4861  0.5722
 5315TIP3   OH237359   0.614   1.004  12.526 -0.0916  0.2273  0.0441
 5315TIP3    H137360   0.524   0.995  12.558 -0.6848  1.6565 -1.1307
 5315TIP3    H237361   0.622   1.096  12.502  0.9298 -0.3490 -2.0494
 5316TIP3   OH237362   6.133   6.054   3.292  0.1406 -0.4574 -0.2174
 5316TIP3    H137363   6.145   5.995   3.366  0.9895  1.3528  1.1620
 5316TIP3    H237364   6.220   6.091   3.276 -0.0495 -0.6873 -2.0402
 5317TIP3   OH237365   4.729   5.648   6.282  0.6854 -0.0732 -0.1461
 5317TIP3    H137366   4.802   5.585   6.274  0.6476 -0.0799 -0.4749
 5317TIP3    H237367   4.766   5.722   6.330  0.9150 -0.0717 -0.3241
 5318TIP3   OH237368   0.301   2.367  12.085  0.0924  0.0212 -0.4170
 5318TIP3    H137369   0.304   2.276  12.053 -0.1547  0.3039 -1.2659
 5318TIP3    H237370   0.214   2.398  12.058  0.2515  0.5759 -0.2909
 5319TIP3   OH237371   6.257   3.247  14.751 -0.1812 -0.5611 -0.0003
 5319TIP3    H137372   6.270   3.341  14.745 -0.3123 -0.2817  2.7579
 5319TIP3    H237373   6.345   3.210  14.753 -0.1307 -0.5523 -1.2597
 5320TIP3   OH237374   0.832   4.344  11.864 -0.0658  0.0503  0.5166
 5320TIP3    H137375   0.927   4.337  11.859 -0.1109 -0.7406  0.7016
 5320TIP3    H237376   0.813   4.430  11.827  0.7267  0.2583  0.5688
 5321TIP3   OH237377   2.524   3.293   3.535  0.0977  0.3418  0.7872
 5321TIP3    H137378   2.545   3.367   3.478 -0.1391  0.9724  1.5031
 5321TIP3    H237379   2.538   3.216   3.480  0.7793  0.8933  0.1627
 5322TIP3   OH237380   0.249   3.366   3.684 -0.6513 -0.3597  0.4113
 5322TIP3    H137381   0.301   3.289   3.663 -0.0680  0.3441 -0.8695
 5322TIP3    H237382   0.160   3.344   3.655 -0.5956 -0.7196  0.5075
 5323TIP3   OH237383   3.509   6.148   5.623  0.2060 -0.1107 -0.0023
 5323TIP3    H137384   3.448   6.203   5.574  0.1456  1.2720  1.5419
 5323TIP3    H237385   3.575   6.122   5.559 -1.3258 -0.6601 -1.4353
 5324TIP3   OH237386   0.128   6.336  14.932  0.3246 -0.1355  0.5085
 5324TIP3    H137387   0.054   6.327  14.993 -0.6579 -0.6499 -0.6938
 5324TIP3    H237388   0.194   6.386  14.980 -0.6733  0.0376  1.7481
 5325TIP3   OH237389   6.546   4.102   1.861 -0.3643  0.0449  0.4335
 5325TIP3    H137390   6.473   4.117   1.801 -0.9342  1.5813  1.4611
 5325TIP3    H237391   6.613   4.165   1.834  0.7682 -1.5703 -0.7118
 5326TIP3   OH237392   1.446   1.562   3.545 -0.0027  0.6793  0.3145
 5326TIP3    H137393   1.394   1.608   3.611 -0.3488 -1.1626  1.3878
 5326TIP3    H237394   1.523   1.617   3.533 -0.6468  1.8082  1.1307
 5327TIP3   OH237395   0.909   6.312   4.286 -0.0463  0.3720  0.0379
 5327TIP3    H137396   0.841   6.365   4.245  0.7416  1.9153  0.6330
 5327TIP3    H237397   0.920   6.351   4.373 -0.9465 -2.1434  1.3729
 5328TIP3   OH237398   1.753   0.512  11.615 -0.6951  0.0271  0.0705
 5328TIP3    H137399   1.762   0.470  11.530  0.1671  0.2657  0.0277
 5328TIP3    H237400   1.816   0.467  11.671 -1.5657 -0.4231  0.7162
 5329TIP3   OH237401   0.082   2.657   6.070 -0.2174 -0.1722  0.1391
 5329TIP3    H137402   0.105   2.747   6.091  0.5034 -0.2733 -0.1913
 5329TIP3    H237403  -0.008   2.647   6.101 -0.8943  1.1617 -1.2898
 5330TIP3   OH237404   6.460   3.652   3.400 -0.0202 -0.1950 -0.0545
 5330TIP3    H137405   6.417   3.649   3.485 -1.0228  2.5606 -0.3819
 5330TIP3    H237406   6.390   3.666   3.337  1.0870  3.2075 -0.7257
 5331TIP3   OH237407   4.231   3.393  15.261 -0.3704  0.6253 -0.0867
 5331TIP3    H137408   4.219   3.358  15.349  1.3779  0.2460  0.0310
 5331TIP3    H237409   4.272   3.479  15.275 -1.7161  1.3602 -0.4878
 5332TIP3   OH237410   4.279   6.028   5.240  0.0944  0.3496  0.0197
 5332TIP3    H137411   4.370   5.998   5.237  0.9058  2.5681  0.6255
 5332TIP3    H237412   4.254   6.018   5.331 -0.3545 -0.4354 -0.1825
 5333TIP3   OH237413   6.467   0.500  14.045 -0.2215  0.2187 -0.0183
 5333TIP3    H137414   6.525   0.426  14.027  0.2033  0.4866  0.2334
 5333TIP3    H237415   6.473   0.554  13.967 -1.6069 -0.6847 -0.7975
 5334TIP3   OH237416   0.587   4.262  16.347  0.6053  0.3784  0.4156
 5334TIP3    H137417   0.504   4.262  16.299 -0.0093  3.1950  1.2471
 5334TIP3    H237418   0.653   4.282  16.281  0.4042 -0.2907  0.0087
 5335TIP3   OH237419   3.834   0.782   0.142  0.1174  0.3008  0.7358
 5335TIP3    H137420   3.888   0.861   0.149 -1.8064  1.6807  0.8995
 5335TIP3    H237421   3.747   0.815   0.122 -0.6655 -1.8423  0.3968
 5336TIP3   OH237422   1.751   2.993   2.496 -0.9461 -0.3984  0.5605
 5336TIP3    H137423   1.743   2.898   2.502 -2.1715 -0.2734  1.3886
 5336TIP3    H237424   1.715   3.025   2.579  1.4897  0.7294  1.2635
 5337TIP3   OH237425   2.092   0.253  12.393 -0.0218  0.2685  0.7089
 5337TIP3    H137426   2.111   0.275  12.485 -0.6446  0.0788  0.8852
 5337TIP3    H237427   2.138   0.169  12.379 -1.7965 -0.8982  1.5441
 5338TIP3   OH237428   1.165   3.046  12.342 -0.2777 -0.0664 -0.5351
 5338TIP3    H137429   1.120   2.980  12.288 -0.3138 -0.5637  0.1042
 5338TIP3    H237430   1.136   3.130  12.304 -1.0493 -0.3935 -0.6966
 5339TIP3   OH237431   5.429   2.484   3.768  0.0230 -0.3677 -0.1519
 5339TIP3    H137432   5.346   2.437   3.779  0.9175 -2.1757 -0.8070
 5339TIP3    H237433   5.427   2.514   3.677  0.1367 -0.4971 -0.1964
 5340TIP3   OH237434   1.848   1.010  15.207 -0.3255  0.0011 -0.0414
 5340TIP3    H137435   1.832   1.089  15.257 -0.5490 -0.4008  0.5298
 5340TIP3    H237436   1.873   0.944  15.272  0.3251 -0.2781 -0.5556
 5341TIP3   OH237437   0.054   5.393  11.411  0.3000  0.6906  0.1401
 5341TIP3    H137438   0.081   5.397  11.503  2.4371 -2.2097 -0.2162
 5341TIP3    H237439  -0.041   5.380  11.414  0.5725 -1.6153  2.1314
 5342TIP3   OH237440   0.812   3.920  15.252  0.2243 -0.0034  0.3452
 5342TIP3    H137441   0.796   3.916  15.346  3.4247 -0.0020  0.9934
 5342TIP3    H237442   0.761   3.996  15.222 -1.4838 -0.4877  1.8736
 5343TIP3   OH237443   2.963   5.417  11.815 -0.6746 -0.5049 -0.4282
 5343TIP3    H137444   3.052   5.383  11.819 -0.7845 -0.7090  1.7066
 5343TIP3    H237445   2.908   5.345  11.844 -1.2760  0.2993  0.5137
 5344TIP3   OH237446   1.146   0.459   5.730 -0.1288  0.4016 -0.0401
 5344TIP3    H137447   1.239   0.479   5.724  0.6063 -2.0494  1.5956
 5344TIP3    H237448   1.140   0.365   5.713 -2.0128  0.1317  1.6705
 5345TIP3   OH237449   3.116   6.115  16.080  0.3064  0.2884 -0.0361
 5345TIP3    H137450   3.035   6.144  16.123 -0.8723  0.6089 -2.3224
 5345TIP3    H237451   3.156   6.196  16.048  0.4475 -0.0492 -0.7172
 5346TIP3   OH237452   5.525   6.655   3.342 -0.4454 -0.1194  0.0338
 5346TIP3    H137453   5.559   6.744   3.346  1.1025 -0.7278  1.1603
 5346TIP3    H237454   5.597   6.600   3.371 -0.8304 -1.9094 -2.1451
 5347TIP3   OH237455   3.678   0.561   3.749 -0.4177  0.4795 -0.1436
 5347TIP3    H137456   3.727   0.622   3.694 -2.0136  1.1947 -0.8241
 5347TIP3    H237457   3.599   0.542   3.699 -0.9902 -0.4056  1.0560
 5348TIP3   OH237458   4.202   6.697  14.795  0.3427 -0.2337 -0.9398
 5348TIP3    H137459   4.161   6.775  14.833 -3.1675 -2.0965 -0.4816
 5348TIP3    H237460   4.236   6.649  14.870 -0.0189 -0.4642 -0.9228
 5349TIP3   OH237461   4.503   4.298   3.303 -0.4661 -0.6511  0.5040
 5349TIP3    H137462   4.494   4.390   3.278 -5.1817 -0.9431  0.3021
 5349TIP3    H237463   4.518   4.252   3.221 -1.2870 -0.2956  0.1394
 5350TIP3   OH237464   5.564   2.147  12.088 -0.1879 -0.0426 -0.3597
 5350TIP3    H137465   5.615   2.102  12.156 -0.7969  0.0191  0.1490
 5350TIP3    H237466   5.587   2.102  12.007 -1.2346 -1.7164  0.2143
 5351TIP3   OH237467   3.188   1.186  12.880  0.2523 -0.2173  0.2073
 5351TIP3    H137468   3.276   1.206  12.912 -0.1698 -0.7196  1.7581
 5351TIP3    H237469   3.150   1.271  12.859  1.2081 -0.0179 -0.8042
 5352TIP3   OH237470   2.071   1.514   0.993 -0.2780  0.0285 -0.4245
 5352TIP3    H137471   2.037   1.514   1.082 -0.6990  0.8930 -0.5656
 5352TIP3    H237472   2.059   1.424   0.962 -1.7934  0.1214 -0.2124
 5353TIP3   OH237473   1.774   5.581  15.112 -0.2858 -0.4817  0.0519
 5353TIP3    H137474   1.864   5.589  15.079 -0.8953  1.4563 -1.2937
 5353TIP3    H237475   1.729   5.527  15.046 -0.4895 -0.0755 -0.1469
 5354TIP3   OH237476   4.994   3.728   1.869  0.0948 -0.6469  0.2898
 5354TIP3    H137477   4.925   3.682   1.822 -0.4186  0.4396 -0.0554
 5354TIP3    H237478   5.004   3.811   1.822  1.2326 -0.5456  0.6852
 5355TIP3   OH237479   2.752   0.038  12.748  0.8457  0.5696 -0.0099
 5355TIP3    H137480   2.727  -0.024  12.817  0.4992  0.1833 -0.4767
 5355TIP3    H237481   2.813   0.098  12.791  0.0342  0.8096  0.8364
 5356TIP3   OH237482   5.257   5.834   1.411  0.3599 -0.2337 -0.1860
 5356TIP3    H137483   5.313   5.767   1.450  0.2643 -0.8676 -1.0876
 5356TIP3    H237484   5.170   5.792   1.406 -0.1523  0.6598  1.0071
 5357TIP3   OH237485   2.199   5.249  11.814  0.1742 -0.1119  0.1124
 5357TIP3    H137486   2.243   5.219  11.735 -0.7839 -0.3957 -0.3243
 5357TIP3    H237487   2.137   5.180  11.835  0.4512 -0.0588  1.1443
 5358TIP3   OH237488   1.014   3.806   5.528  0.5957 -0.1064 -0.3752
 5358TIP3    H137489   0.931   3.792   5.573  0.9340 -0.6514  0.0981
 5358TIP3    H237490   1.077   3.753   5.577  1.1847  0.1447 -0.8447
 5359TIP3   OH237491   3.634   5.596  14.712  0.0594 -0.3645  0.0459
 5359TIP3    H137492   3.705   5.549  14.669  0.7052  0.5944  0.0269
 5359TIP3    H237493   3.677   5.643  14.784 -0.9824 -1.8857  1.7413
 5360TIP3   OH237494   3.030   2.397  15.035  0.3030  0.0272  0.5301
 5360TIP3    H137495   3.090   2.370  15.105  1.0162 -0.3393 -0.1976
 5360TIP3    H237496   2.957   2.438  15.080  0.5574 -0.5634  1.5092
 5361TIP3   OH237497   4.013   5.828  14.662 -0.0580 -0.1675  0.1146
 5361TIP3    H137498   4.076   5.772  14.707 -0.7435  0.2324  1.6572
 5361TIP3    H237499   3.992   5.782  14.581  0.9893 -1.0824  0.3481
 5362TIP3   OH237500   1.394   5.062   0.431 -0.0729  0.1852 -0.0709
 5362TIP3    H137501   1.439   5.084   0.349 -0.4440  1.2760  0.0045
 5362TIP3    H237502   1.413   4.969   0.444  0.5810  0.1672 -1.0230
 5363TIP3   OH237503   4.989   0.880   1.509 -0.1984 -0.0904  0.7232
 5363TIP3    H137504   4.945   0.893   1.593  0.0626 -0.3962  0.9086
 5363TIP3    H237505   4.943   0.939   1.449 -0.9023 -0.4375  0.9036
 5364TIP3   OH237506   0.848   5.161  16.508 -0.1618 -0.1336 -0.1904
 5364TIP3    H137507   0.943   5.171  16.509 -0.2667  0.9382 -0.0681
 5364TIP3    H237508   0.819   5.210  16.431 -0.5652 -1.0689 -0.6527
 5365TIP3   OH237509   3.693   4.151  11.407 -0.6967 -0.0134  0.6931
 5365TIP3    H137510   3.781   4.171  11.372 -1.6954  0.9918 -1.4399
 5365TIP3    H237511   3.709   4.119  11.496  1.7420  1.2340  0.7743
 5366TIP3   OH237512   1.718   6.469   2.020  0.1115 -0.0638  0.4513
 5366TIP3    H137513   1.788   6.403   2.019  0.5097  0.3618 -0.0175
 5366TIP3    H237514   1.744   6.533   1.954 -0.4352  0.4022  0.6793
 5367TIP3   OH237515   6.701   2.861   3.096 -0.1025 -0.0798  0.4536
 5367TIP3    H137516   6.706   2.867   3.001  0.2432  0.2908  0.4895
 5367TIP3    H237517   6.642   2.932   3.121 -1.6588 -1.2980  0.3967
 5368TIP3   OH237518   0.802   6.193   0.422 -0.5666  0.4485  0.1836
 5368TIP3    H137519   0.894   6.176   0.403 -0.8058  0.2708 -0.8757
 5368TIP3    H237520   0.795   6.289   0.424 -0.4712  0.4663 -0.3197
 5369TIP3   OH237521   1.642   3.527  17.408  0.1602 -0.4607 -0.4571
 5369TIP3    H137522   1.689   3.587  17.466  0.1874 -1.8693  1.0232
 5369TIP3    H237523   1.595   3.468  17.466 -1.2461 -0.8350 -1.8959
 5370TIP3   OH237524   3.149   2.633   4.585  0.3529  0.3019 -0.2133
 5370TIP3    H137525   3.163   2.666   4.674  0.5840  2.0226 -0.8435
 5370TIP3    H237526   3.224   2.666   4.536 -0.1720  0.0469 -1.2116
 5371TIP3   OH237527   2.151   0.008  12.033 -0.0404  0.6769 -0.2962
 5371TIP3    H137528   2.194   0.046  12.110  1.2142  1.3535 -1.2860
 5371TIP3    H237529   2.118   0.084  11.985  0.7149  0.4059 -1.2836
 5372TIP3   OH237530   2.610   0.207   2.065  0.0924 -0.5582  0.6485
 5372TIP3    H137531   2.667   0.282   2.048  0.2277 -0.8597 -0.2655
 5372TIP3    H237532   2.545   0.211   1.995 -1.1451 -0.1088  1.7847
 5373TIP3   OH237533   5.673   4.369  15.343  0.1838  0.3085 -1.0360
 5373TIP3    H137534   5.626   4.364  15.426  1.0292 -0.4191 -0.5924
 5373TIP3    H237535   5.696   4.462  15.335 -0.9806  0.6046 -1.0765
 5374TIP3   OH237536   6.445   6.057   0.217  0.2783  0.6163 -0.6101
 5374TIP3    H137537   6.520   5.999   0.207 -1.2334 -1.9450  1.4828
 5374TIP3    H237538   6.481   6.145   0.214  3.1294 -0.4761 -0.9913
 5375TIP3   OH237539   5.135   3.137  15.807 -0.1707 -0.3705  0.7530
 5375TIP3    H137540   5.133   3.227  15.841 -0.2613 -0.5819  1.3275
 5375TIP3    H237541   5.210   3.097  15.851  0.3755 -0.3379 -0.1325
 5376TIP3   OH237542   2.548   4.171  14.717 -0.3127  0.2360 -0.4206
 5376TIP3    H137543   2.499   4.157  14.636  1.7621 -0.3795 -1.6455
 5376TIP3    H237544   2.610   4.099  14.721  1.6278  1.8310  0.1594
 5377TIP3   OH237545   1.187   5.401  11.346 -0.1363 -0.5209  0.3355
 5377TIP3    H137546   1.198   5.465  11.276 -0.7961 -1.5581 -0.7612
 5377TIP3    H237547   1.093   5.405  11.367  0.1543  0.1893  1.5837
 5378TIP3   OH237548   4.068   6.441  12.338  0.2325 -0.0669 -0.2196
 5378TIP3    H137549   3.997   6.505  12.345  0.8658  0.9185 -2.1080
 5378TIP3    H237550   4.106   6.438  12.426 -2.6696 -1.3386  1.1163
 5379TIP3   OH237551   1.958   2.541  16.797 -0.1880 -0.1312  0.2728
 5379TIP3    H137552   1.987   2.627  16.829  0.5263 -0.4929  0.6079
 5379TIP3    H237553   1.923   2.558  16.710 -1.1686  0.7000  0.8105
 5380TIP3   OH237554   3.978   2.276  17.200 -0.0209  0.1718 -0.2873
 5380TIP3    H137555   4.015   2.341  17.260  0.0849 -0.1680  0.0174
 5380TIP3    H237556   3.896   2.316  17.169  0.2697  0.6458 -0.4590
 5381TIP3   OH237557   5.372   4.520  17.160 -0.1381  0.3038  0.7562
 5381TIP3    H137558   5.466   4.504  17.153 -0.3821 -1.0697  0.2643
 5381TIP3    H237559   5.349   4.569  17.082 -0.0463 -0.5834  0.1551
 5382TIP3   OH237560   5.227   1.915   0.835 -0.1629  0.2872 -0.1304
 5382TIP3    H137561   5.188   1.846   0.781 -0.2744  0.7703 -0.6848
 5382TIP3    H237562   5.310   1.934   0.792 -0.4627  1.0019 -0.4141
 5383TIP3   OH237563   1.096   0.686   2.479 -0.0340  0.2641  0.7466
 5383TIP3    H137564   1.108   0.770   2.436  0.3437  0.5522  1.3915
 5383TIP3    H237565   1.181   0.667   2.520 -0.3564 -0.0259  1.2980
 5384TIP3   OH237566   0.543   4.176  10.970 -0.2384 -0.2409 -0.2917
 5384TIP3    H137567   0.548   4.082  10.952  1.1835 -0.0351 -1.1757
 5384TIP3    H237568   0.525   4.182  11.064 -0.0512 -1.3972 -0.1685
 5385TIP3   OH237569   2.106   2.802  14.774 -0.4600 -0.5514 -0.6160
 5385TIP3    H137570   2.174   2.742  14.805  1.3133  0.4279 -2.3602
 5385TIP3    H237571   2.087   2.858  14.850 -0.0195 -1.4505  0.1739
 5386TIP3   OH237572   4.404   4.147  17.438  0.0473 -0.3723  0.4577
 5386TIP3    H137573   4.366   4.193  17.513 -1.0418 -1.2259  0.4400
 5386TIP3    H237574   4.346   4.168  17.365  1.9270  1.7315 -0.5830
 5387TIP3   OH237575   5.342   3.640  13.616  0.2148  0.6018 -0.0132
 5387TIP3    H137576   5.432   3.631  13.586  0.0152 -2.0593 -0.1290
 5387TIP3    H237577   5.348   3.678  13.703  1.3472  1.4789 -0.4621
 5388TIP3   OH237578   2.678   5.842  15.900  0.5583  0.1196 -0.7870
 5388TIP3    H137579   2.768   5.842  15.865  0.9692  2.5492  0.1300
 5388TIP3    H237580   2.659   5.934  15.918 -0.6804 -0.6773  2.6748
 5389TIP3   OH237581   4.551   2.941  11.493  0.1633  0.5273  0.0884
 5389TIP3    H137582   4.493   2.887  11.439  0.2220  0.8982 -0.3561
 5389TIP3    H237583   4.639   2.923  11.459  0.1946  0.8069  0.0116
 5390TIP3   OH237584   4.432   6.644  15.883  0.5307  0.1245  0.9689
 5390TIP3    H137585   4.427   6.666  15.790 -0.4874 -0.9847  0.7405
 5390TIP3    H237586   4.525   6.652  15.905  0.9424 -0.6743 -0.4151
 5391TIP3   OH237587   2.946   5.161   4.162  0.1795  0.0143 -0.2953
 5391TIP3    H137588   2.883   5.178   4.092 -0.6871 -1.8624 -0.0355
 5391TIP3    H237589   2.960   5.067   4.159  1.4419  0.1263  0.9851
 5392TIP3   OH237590   3.123   0.767  14.113  0.2613  0.1115 -0.0736
 5392TIP3    H137591   3.097   0.698  14.053  0.8241  0.3512 -0.6025
 5392TIP3    H237592   3.175   0.723  14.180 -1.6096 -0.4054  1.1048
 5393TIP3   OH237593   6.049   3.665   0.323  0.2569 -0.2761 -0.4219
 5393TIP3    H137594   6.007   3.581   0.304 -2.7410  1.0770 -0.3596
 5393TIP3    H237595   6.088   3.653   0.409 -2.7273 -0.8500  0.9860
 5394TIP3   OH237596   1.649   4.244   4.875 -0.1238  0.0278 -0.2757
 5394TIP3    H137597   1.713   4.254   4.804 -0.0548  2.8534  0.0742
 5394TIP3    H237598   1.673   4.162   4.918  3.5777  1.1429  0.0970
 5395TIP3   OH237599   1.618   4.688  16.858 -0.3481 -0.2472 -0.0333
 5395TIP3    H137600   1.607   4.627  16.785  0.4549 -0.1678 -0.2351
 5395TIP3    H237601   1.676   4.642  16.919 -0.9242 -0.2705  0.5123
 5396TIP3   OH237602   2.133   1.273  12.548 -0.4685  0.2422  0.0663
 5396TIP3    H137603   2.050   1.242  12.513 -0.4380 -0.5592  0.6634
 5396TIP3    H237604   2.178   1.194  12.576  0.6026  0.6474 -0.4703
 5397TIP3   OH237605   0.360   1.302  16.747 -0.4521 -0.4909 -0.3160
 5397TIP3    H137606   0.436   1.263  16.790 -0.9970  0.3244  1.4778
 5397TIP3    H237607   0.363   1.268  16.658  1.0349 -1.8319  0.1997
 5398TIP3   OH237608   3.661   5.384  11.855 -0.1931  0.4547 -0.5530
 5398TIP3    H137609   3.640   5.312  11.914  0.5834  0.3233 -0.4265
 5398TIP3    H237610   3.675   5.459  11.913  0.0940  0.4388 -0.5980
 5399TIP3   OH237611   2.267   4.449  13.434  0.0355  0.1441 -0.0479
 5399TIP3    H137612   2.219   4.530  13.453 -0.5767 -0.1805 -0.1787
 5399TIP3    H237613   2.323   4.437  13.511  1.1688  1.4157 -0.6287
 5400TIP3   OH237614   1.449   2.399   2.303  0.1144  0.5681 -0.0470
 5400TIP3    H137615   1.396   2.332   2.260  0.2860  0.8877 -0.7736
 5400TIP3    H237616   1.385   2.452   2.350 -0.2182  0.8688 -0.8080
 5401TIP3   OH237617   5.070   2.497  15.163  0.5272  0.2397 -0.3679
 5401TIP3    H137618   5.028   2.416  15.192  0.9205  0.1258 -0.1088
 5401TIP3    H237619   5.150   2.468  15.119 -0.3993  0.3600 -2.2269
 5402TIP3   OH237620   5.464   3.302  15.978  0.8278  0.0321  0.2954
 5402TIP3    H137621   5.395   3.239  15.961 -0.9507  1.9218  0.0389
 5402TIP3    H237622   5.532   3.253  16.025 -0.6492 -1.9225  0.4736
 5403TIP3   OH237623   4.991   2.040   0.546  0.0724  0.0804 -0.0806
 5403TIP3    H137624   5.055   2.112   0.551  0.5860 -0.3793  0.0811
 5403TIP3    H237625   4.967   2.036   0.453 -1.2532  1.5581  0.1574
 5404TIP3   OH237626   2.618   5.600  16.412  0.3531  0.2391  0.2789
 5404TIP3    H137627   2.542   5.658  16.419  1.3579  2.1613 -2.8629
 5404TIP3    H237628   2.597   5.541  16.340  1.7257  0.6502 -0.4814
 5405TIP3   OH237629   1.049   6.580  14.680  0.0043  0.3880 -0.1132
 5405TIP3    H137630   0.988   6.613  14.746 -0.3382  0.9830 -0.7067
 5405TIP3    H237631   1.125   6.637  14.687  0.5479 -0.4156  0.6934
 5406TIP3   OH237632   1.337   5.660  13.868  0.0985  0.2049  0.1811
 5406TIP3    H137633   1.387   5.584  13.898  2.2110  1.9588  1.4451
 5406TIP3    H237634   1.279   5.681  13.941 -1.0121 -0.5606 -0.4496
 5407TIP3   OH237635   5.154   5.885   5.015  0.1077 -0.1545 -0.4061
 5407TIP3    H137636   5.081   5.943   4.994  1.0026  0.7979 -0.9797
 5407TIP3    H237637   5.176   5.844   4.931 -1.3211 -2.3646  0.1918
 5408TIP3   OH237638   4.342   2.725   4.740  0.3105 -0.1301  0.2714
 5408TIP3    H137639   4.313   2.758   4.824  0.2998  0.2027  0.1370
 5408TIP3    H237640   4.404   2.790   4.708 -0.3866  0.2267 -0.4077
 5409TIP3   OH237641   2.700   0.030   1.359 -0.1524 -0.0640 -0.2497
 5409TIP3    H137642   2.652  -0.027   1.419 -0.4615 -0.5932 -0.9850
 5409TIP3    H237643   2.792   0.008   1.373 -0.1942  0.1395  0.3487
 5410TIP3   OH237644   1.902   3.043  13.917  0.0358 -0.1438 -0.4742
 5410TIP3    H137645   1.851   3.115  13.881 -0.7891 -0.3904  0.1929
 5410TIP3    H237646   1.988   3.081  13.935 -0.6284  0.8873  0.6319
 5411TIP3   OH237647   4.118   4.077  16.481 -0.1552 -0.1245 -0.5345
 5411TIP3    H137648   4.132   4.019  16.406  1.0169  0.4672 -0.7977
 5411TIP3    H237649   4.168   4.156  16.459 -1.9628  1.1414 -0.3370
 5412TIP3   OH237650   1.274   1.026  11.720  0.3573 -0.2808  0.6399
 5412TIP3    H137651   1.240   1.071  11.643  0.9402  1.1764  1.1978
 5412TIP3    H237652   1.255   0.934  11.704 -2.2707  0.2638  0.1488
 5413TIP3   OH237653   4.205   0.130  15.576 -0.0340  0.1214  0.7425
 5413TIP3    H137654   4.281   0.165  15.621 -0.1914  1.1761  0.2143
 5413TIP3    H237655   4.174   0.201  15.520 -1.5436 -0.2024  1.0999
 5414TIP3   OH237656   0.152   3.636   3.091  0.4435 -0.2917  0.4360
 5414TIP3    H137657   0.101   3.618   3.171  1.0634  0.7412  1.0801
 5414TIP3    H237658   0.228   3.578   3.098  0.4858 -0.2185  0.5895
 5415TIP3   OH237659   1.411   3.914  11.521 -0.0460  0.8116 -0.2139
 5415TIP3    H137660   1.451   3.854  11.585 -0.0556  1.9363  0.8785
 5415TIP3    H237661   1.476   3.922  11.451  0.2351  0.0531 -0.0502
 5416TIP3   OH237662   2.659   1.521   3.358 -0.1269 -0.5553 -0.1511
 5416TIP3    H137663   2.698   1.555   3.439 -1.1135  0.7179 -0.1750
 5416TIP3    H237664   2.725   1.463   3.322  0.6739 -0.4822  1.1365
 5417TIP3   OH237665   3.371   3.443   2.524  0.3691  0.6534 -0.3436
 5417TIP3    H137666   3.382   3.468   2.616 -0.6364 -0.9027  0.2314
 5417TIP3    H237667   3.456   3.406   2.499  0.7556  1.3916 -0.1646
 5418TIP3   OH237668   0.553   0.249  14.288 -0.5102  0.1714 -0.2457
 5418TIP3    H137669   0.541   0.291  14.203 -0.9759 -1.1106 -0.8387
 5418TIP3    H237670   0.618   0.181  14.273 -1.6467 -1.0370  0.0488
 5419TIP3   OH237671   3.118   5.036  14.186 -0.1192  0.4149  0.2051
 5419TIP3    H137672   3.134   4.945  14.159 -0.0889  0.3454  0.4518
 5419TIP3    H237673   3.146   5.088  14.112 -1.1236  0.1773 -0.3560
 5420TIP3   OH237674   4.985   6.063  17.046 -0.2085  1.1455  0.1372
 5420TIP3    H137675   4.942   6.001  17.105  1.1380  1.6427  1.7046
 5420TIP3    H237676   4.946   6.148  17.068  1.6460  1.6549  1.7925
 5421TIP3   OH237677   3.424   4.923   2.396 -0.0875 -0.2390  0.4262
 5421TIP3    H137678   3.397   4.975   2.320  0.2920 -0.7463 -0.0639
 5421TIP3    H237679   3.344   4.906   2.444 -0.1192  1.5337  1.0668
 5422TIP3   OH237680   2.622   0.748   0.758 -0.3667  0.3057 -0.2541
 5422TIP3    H137681   2.543   0.744   0.812  0.0007  3.2502  0.6631
 5422TIP3    H237682   2.639   0.842   0.746  2.5312 -0.2215 -1.1210
 5423TIP3   OH237683   5.598   2.952   1.362 -0.2150 -0.2638 -0.4789
 5423TIP3    H137684   5.628   2.866   1.332  1.7536 -0.7842  2.5515
 5423TIP3    H237685   5.505   2.939   1.382  0.5248 -2.4700  2.1013
 5424TIP3   OH237686   5.310   3.704  15.248 -0.7989  0.2296 -0.2270
 5424TIP3    H137687   5.248   3.634  15.266  0.8516 -1.7904 -1.8977
 5424TIP3    H237688   5.274   3.748  15.171 -1.5386  0.9254  0.4848
 5425TIP3   OH237689   3.295   3.236   2.296  0.5951  0.3813 -0.0776
 5425TIP3    H137690   3.239   3.306   2.264 -0.9955 -0.5162  0.6486
 5425TIP3    H237691   3.352   3.278   2.361 -0.2280  1.0289  0.2334
 5426TIP3   OH237692   4.750   1.806   2.781  0.4916  0.1865  0.1362
 5426TIP3    H137693   4.677   1.859   2.814  0.5865 -0.6288  1.7921
 5426TIP3    H237694   4.717   1.717   2.780  1.5860 -0.2864  1.4794
 5427TIP3   OH237695   0.067   5.311  14.134  0.0919  0.0502 -0.1752
 5427TIP3    H137696   0.094   5.401  14.114 -1.0111  0.2733 -0.7588
 5427TIP3    H237697   0.090   5.261  14.056  1.2639 -0.3101  0.3881
 5428TIP3   OH237698   3.233   3.066  13.628  0.2163 -0.2035 -0.0520
 5428TIP3    H137699   3.148   3.077  13.583  0.6455  3.5725 -0.3006
 5428TIP3    H237700   3.212   3.015  13.706 -1.5107 -2.5910 -1.9122
 5429TIP3   OH237701   0.207   0.425   3.475 -0.1414  0.1984 -0.3556
 5429TIP3    H137702   0.300   0.439   3.456  0.0337 -0.2042  0.1732
 5429TIP3    H237703   0.198   0.448   3.568 -0.8779  1.6492 -0.7553
 5430TIP3   OH237704   4.608   2.521   5.267 -0.0555 -0.1193  0.3947
 5430TIP3    H137705   4.652   2.585   5.324 -1.1661 -0.4198  1.6666
 5430TIP3    H237706   4.610   2.561   5.180  2.4285 -0.0148  0.4308
 5431TIP3   OH237707   1.708   6.324  15.834  0.4619 -0.6354 -0.4557
 5431TIP3    H137708   1.692   6.295  15.924 -0.9097  0.7086 -0.2252
 5431TIP3    H237709   1.765   6.400  15.843 -0.0772 -0.1995 -0.6736
 5432TIP3   OH237710   3.481   2.912  16.797 -0.1254 -0.3610  0.7436
 5432TIP3    H137711   3.454   2.990  16.748 -1.5906  0.1246  2.2276
 5432TIP3    H237712   3.575   2.924  16.812 -0.3193  1.1103  0.9060
 5433TIP3   OH237713   2.952   5.217   5.185 -0.1786  0.0803 -0.0005
 5433TIP3    H137714   3.030   5.269   5.167 -0.4195  0.2103 -0.6950
 5433TIP3    H237715   2.986   5.136   5.224  0.2103  0.6537  0.9005
 5434TIP3   OH237716   1.796   3.891   2.862 -0.0202 -0.1914 -0.6405
 5434TIP3    H137717   1.814   3.869   2.771 -1.2755 -1.7000 -0.5582
 5434TIP3    H237718   1.716   3.943   2.860  0.5157  0.6526 -0.4697
 5435TIP3   OH237719   1.834   3.017   0.495  0.0176 -0.6501  0.3276
 5435TIP3    H137720   1.841   3.031   0.590 -0.6091 -0.4436  0.3453
 5435TIP3    H237721   1.900   2.951   0.476  1.7720  0.9340  0.5447
 5436TIP3   OH237722   6.733   2.430   3.716 -0.2991 -0.5753 -0.4960
 5436TIP3    H137723   6.736   2.335   3.706 -0.1008 -0.6157 -0.1016
 5436TIP3    H237724   6.658   2.458   3.663 -1.1185 -1.0884  0.3632
 5437TIP3   OH237725   0.654   2.768   3.904  0.3599 -0.5288 -0.2765
 5437TIP3    H137726   0.691   2.774   3.992  1.9140  0.6743 -0.9696
 5437TIP3    H237727   0.645   2.674   3.888 -2.3650 -0.7966  2.0679
 5438TIP3   OH237728   2.648   2.851  13.688  0.0414  0.0766 -0.0611
 5438TIP3    H137729   2.709   2.839  13.615  0.3687  1.1203  0.0259
 5438TIP3    H237730   2.704   2.853  13.766 -0.1749  0.2851  0.0914
 5439TIP3   OH237731   0.489   2.690  16.405  0.2558 -0.1124  0.4792
 5439TIP3    H137732   0.535   2.616  16.447 -0.5398 -0.3813  0.8972
 5439TIP3    H237733   0.481   2.755  16.475  0.3770  0.1081  0.2871
 5440TIP3   OH237734   0.612   3.298  13.675 -0.1882 -0.1388 -0.8353
 5440TIP3    H137735   0.528   3.267  13.709  0.2128  0.7533  1.1300
 5440TIP3    H237736   0.654   3.220  13.639 -0.9877 -1.0223  0.0808
 5441TIP3   OH237737   4.899   2.616  13.896  0.2601 -0.5795  0.0591
 5441TIP3    H137738   4.879   2.524  13.876  1.2176 -1.3497  2.2268
 5441TIP3    H237739   4.917   2.615  13.990  1.8729  1.5510 -0.1741
 5442TIP3   OH237740   4.346   6.276  13.838 -0.6138 -0.2947 -0.1293
 5442TIP3    H137741   4.349   6.291  13.933 -0.1819 -1.0697 -0.0095
 5442TIP3    H237742   4.255   6.293  13.815 -0.4810  0.9902  0.2249
 5443TIP3   OH237743   1.252   2.418   5.240 -0.0399 -0.0166 -0.2742
 5443TIP3    H137744   1.338   2.453   5.258 -0.5202  1.8970 -1.4791
 5443TIP3    H237745   1.191   2.485   5.271 -1.0044  0.0737 -2.2251
 5444TIP3   OH237746   0.125   4.491   3.817  0.2263  0.1391  0.0892
 5444TIP3    H137747   0.035   4.465   3.800  0.4548 -0.6191 -0.0013
 5444TIP3    H237748   0.167   4.412   3.851  0.7324  0.6141  0.6083
 5445TIP3   OH237749   2.303   5.177  13.635  0.2307  0.0194 -0.6807
 5445TIP3    H137750   2.213   5.210  13.640 -0.9338 -2.9936  0.4365
 5445TIP3    H237751   2.301   5.117  13.560  0.0566 -3.1541  1.6869
 5446TIP3   OH237752   6.610   2.906  17.271 -0.7671 -0.0020 -0.5556
 5446TIP3    H137753   6.610   2.981  17.330 -0.3189 -0.2665 -0.2178
 5446TIP3    H237754   6.589   2.832  17.326 -1.0247 -0.1550 -0.8560
 5447TIP3   OH237755   0.559   4.535   1.402 -0.3725 -0.0553  0.3965
 5447TIP3    H137756   0.632   4.557   1.460  0.2386 -1.0375  0.0211
 5447TIP3    H237757   0.589   4.459   1.353 -1.0740  0.4349 -0.8520
 5448TIP3   OH237758   5.674   5.623   6.764  0.6875  0.6158  0.9001
 5448TIP3    H137759   5.736   5.612   6.692  0.6039  1.6562  0.6624
 5448TIP3    H237760   5.670   5.717   6.779 -3.8438  1.1118 -1.7462
 5449TIP3   OH237761   3.405   1.154   4.966 -0.1520 -0.0301 -0.1463
 5449TIP3    H137762   3.392   1.067   4.928  0.6203 -0.2306  0.0396
 5449TIP3    H237763   3.317   1.183   4.990 -0.2267 -1.6560  1.8053
 5450TIP3   OH237764   3.669   0.231   4.561 -0.3121 -0.0855 -0.6442
 5450TIP3    H137765   3.636   0.269   4.643  2.6145  0.6214  0.3601
 5450TIP3    H237766   3.642   0.140   4.565  1.2880 -0.5755  2.1624
 5451TIP3   OH237767   0.255   2.866  15.164  0.3670  0.1941  0.0579
 5451TIP3    H137768   0.279   2.773  15.167  1.9159  0.5581 -0.1957
 5451TIP3    H237769   0.257   2.894  15.256 -3.3380 -0.7246  0.5709
 5452TIP3   OH237770   4.066   3.719  16.113 -0.3400 -0.2680  0.3442
 5452TIP3    H137771   4.056   3.765  16.030 -0.5993 -1.2839 -0.1923
 5452TIP3    H237772   4.149   3.673  16.106  1.5568  2.5246  2.0907
 5453TIP3   OH237773   6.708   2.593  14.684  0.2105  0.7482  0.1724
 5453TIP3    H137774   6.764   2.546  14.622 -0.9135  1.3328 -1.3454
 5453TIP3    H237775   6.671   2.665  14.633 -4.4765 -1.4086  0.0855
 5454TIP3   OH237776   3.378   5.087  16.809  0.5449 -0.2689  0.5955
 5454TIP3    H137777   3.382   5.137  16.728  0.5836 -2.3249 -0.7639
 5454TIP3    H237778   3.285   5.083  16.831  0.2025 -1.8116 -0.8488
 5455TIP3   OH237779   5.619   5.451  12.943  0.3331 -0.2401  0.5615
 5455TIP3    H137780   5.673   5.529  12.955 -0.8010  0.9143 -1.3422
 5455TIP3    H237781   5.681   5.385  12.912  1.0406  0.3776  0.6264
 5456TIP3   OH237782   3.090   1.629  16.700  0.3025  0.3169  0.0309
 5456TIP3    H137783   3.099   1.570  16.775  0.6343  0.0893 -0.1839
 5456TIP3    H237784   3.171   1.616  16.650  0.1062  0.5080 -0.3383
 5457TIP3   OH237785   3.174   0.494  14.696 -0.0973  0.2669  0.4171
 5457TIP3    H137786   3.137   0.476  14.782 -0.9627  1.4170  0.3085
 5457TIP3    H237787   3.244   0.430  14.686 -2.1776 -2.2014  0.5311
 5458TIP3   OH237788   5.148   5.002   3.458 -0.9427 -0.0781 -0.2846
 5458TIP3    H137789   5.118   4.964   3.541  1.0938  0.7959  0.9605
 5458TIP3    H237790   5.175   4.927   3.405  1.2470 -0.5940  1.3869
 5459TIP3   OH237791   5.965   0.850  14.442  0.0437 -0.1965  0.0178
 5459TIP3    H137792   5.954   0.835  14.348 -0.7083  1.2743 -0.1670
 5459TIP3    H237793   5.955   0.763  14.481 -0.0580 -0.7748 -1.2244
 5460TIP3   OH237794   0.305   0.411   6.868  0.3229  0.1453 -0.5182
 5460TIP3    H137795   0.333   0.433   6.957 -1.5617  0.2436  0.0903
 5460TIP3    H237796   0.369   0.454   6.812  1.9108 -0.4222  0.7716
 5461TIP3   OH237797   3.996   4.270  11.658 -0.4642  0.3935  0.8453
 5461TIP3    H137798   4.067   4.214  11.626 -0.1099  2.1452 -1.8488
 5461TIP3    H237799   4.027   4.304  11.742 -0.5918 -3.0760  2.4484
 5462TIP3   OH237800   1.828   0.792   3.653 -0.2989  0.0728 -0.7804
 5462TIP3    H137801   1.758   0.736   3.621 -0.5548 -0.9154  1.3213
 5462TIP3    H237802   1.841   0.765   3.744  1.9721  1.0689 -0.7274
 5463TIP3   OH237803   4.838   1.148   4.045 -0.0232 -0.7606 -0.1792
 5463TIP3    H137804   4.857   1.070   3.991  1.1462  0.4895 -1.6813
 5463TIP3    H237805   4.924   1.179   4.072 -0.3087  1.0781 -1.2247
 5464TIP3   OH237806   3.273   3.048  13.021 -0.4641  0.5659  0.7677
 5464TIP3    H137807   3.234   3.014  13.102 -1.2318 -2.9359 -0.8866
 5464TIP3    H237808   3.360   3.008  13.018 -0.7246  0.0400 -0.4413
 5465TIP3   OH237809   3.885   4.354  13.527  0.4144  0.1287  0.7171
 5465TIP3    H137810   3.924   4.316  13.448 -0.3084  2.9281 -1.1617
 5465TIP3    H237811   3.835   4.283  13.567  2.5168 -1.9430 -0.1128
 5466TIP3   OH237812   1.776   2.145  16.422 -0.5473  0.0988  0.4822
 5466TIP3    H137813   1.826   2.124  16.501 -0.2606 -1.4649 -0.0866
 5466TIP3    H237814   1.712   2.073  16.415  2.3898 -2.5439 -3.1838
 5467TIP3   OH237815   6.511   3.057   3.124  0.3594 -0.2547  0.0923
 5467TIP3    H137816   6.437   3.042   3.064 -2.1475  0.1700  2.8407
 5467TIP3    H237817   6.534   3.149   3.111 -0.4271 -0.0544  0.0519
 5468TIP3   OH237818   1.334   2.942   6.780 -0.1032  0.5788 -0.5958
 5468TIP3    H137819   1.349   2.863   6.832  1.2029  0.7201 -0.7007
 5468TIP3    H237820   1.243   2.937   6.753 -0.2983 -0.4126  0.1905
 5469TIP3   OH237821   0.961   1.223  14.823 -0.0895 -0.3673 -0.4198
 5469TIP3    H137822   0.937   1.227  14.730  0.7907  0.5310 -0.6319
 5469TIP3    H237823   0.892   1.271  14.868  1.1616  2.2024 -1.0224
 5470TIP3   OH237824   2.952   4.077  13.286 -0.5987  0.5724  0.1135
 5470TIP3    H137825   2.928   4.059  13.377  1.3643  0.1986  0.6115
 5470TIP3    H237826   2.970   3.991  13.249 -0.2048  0.8051 -0.2468
 5471TIP3   OH237827   6.056   3.039  11.364 -0.0456  0.2912  0.4382
 5471TIP3    H137828   6.037   2.946  11.371 -0.2402  0.2026 -0.9451
 5471TIP3    H237829   6.043   3.059  11.271  0.5989  1.5627  0.6026
 5472TIP3   OH237830   1.612   3.624  15.306  0.0694  0.3906  0.1540
 5472TIP3    H137831   1.706   3.610  15.322 -0.2133 -1.6103  0.3413
 5472TIP3    H237832   1.584   3.544  15.260 -1.7228  0.5526  0.8910
 5473TIP3   OH237833   6.136   4.145   1.465 -0.1624 -0.5050 -0.0953
 5473TIP3    H137834   6.049   4.183   1.450  0.3179  0.4074 -0.6426
 5473TIP3    H237835   6.144   4.076   1.399  0.0857  0.3709 -0.9949
 5474TIP3   OH237836   2.146   5.404  17.148 -0.4785 -0.4066  0.2330
 5474TIP3    H137837   2.068   5.453  17.122 -0.3380 -0.3811 -0.1391
 5474TIP3    H237838   2.164   5.346  17.075 -0.0337 -0.2751  0.2371
 5475TIP3   OH237839   5.301   0.741   4.517  0.7113  0.4978 -0.2103
 5475TIP3    H137840   5.344   0.826   4.513  0.8133  0.5657  1.6679
 5475TIP3    H237841   5.221   0.756   4.568 -1.4531  0.2767 -3.2067
 5476TIP3   OH237842   5.416   4.179  12.947  0.5666 -0.8449 -0.0531
 5476TIP3    H137843   5.336   4.208  12.990  0.3004 -0.3740 -0.8545
 5476TIP3    H237844   5.471   4.257  12.942  0.1273 -0.5915 -1.5811
 5477TIP3   OH237845   4.607   5.122  16.931 -0.0331 -0.2175  0.2897
 5477TIP3    H137846   4.697   5.120  16.901  0.0320  1.5379  0.2623
 5477TIP3    H237847   4.614   5.123  17.027  0.1089  1.9950  0.3039
 5478TIP3   OH237848   5.059   2.741  13.674 -0.0876  0.1895  0.4141
 5478TIP3    H137849   5.058   2.699  13.760  0.6105  1.7624  1.2221
 5478TIP3    H237850   5.140   2.711  13.633 -0.2422 -0.2684  0.4308
 5479TIP3   OH237851   0.283   3.272   4.109 -0.2737  0.1583 -0.0822
 5479TIP3    H137852   0.288   3.216   4.031  1.2651 -0.6236  0.5235
 5479TIP3    H237853   0.335   3.349   4.087  0.9173 -0.4659  0.4469
 5480TIP3   OH237854   3.557   2.002   2.763 -0.3249 -0.0567 -0.2515
 5480TIP3    H137855   3.509   2.024   2.843 -0.6169 -1.3916 -0.0429
 5480TIP3    H237856   3.648   2.026   2.783 -0.6881  1.4425 -0.2526
 5481TIP3   OH237857   6.427   4.202  14.893  0.3726  0.6453 -0.3906
 5481TIP3    H137858   6.384   4.203  14.979 -0.8989 -0.4273 -0.9789
 5481TIP3    H237859   6.453   4.293  14.878 -1.4465  1.3061  0.1525
 5482TIP3   OH237860   2.376   6.171   0.375  0.0573  0.2566  0.4791
 5482TIP3    H137861   2.421   6.242   0.329 -0.7046  0.3209 -0.1864
 5482TIP3    H237862   2.440   6.100   0.379  0.3796  0.5171 -0.0264
 5483TIP3   OH237863   0.544   5.965   6.756  0.5184 -0.0554  0.0850
 5483TIP3    H137864   0.483   6.032   6.787 -1.7097 -1.0567 -1.8082
 5483TIP3    H237865   0.603   6.011   6.697  0.0986  0.5402  0.1259
 5484TIP3   OH237866   3.054   0.848   0.806 -0.2330  0.0634  0.6685
 5484TIP3    H137867   3.102   0.927   0.833  0.2092 -0.1474  0.5062
 5484TIP3    H237868   3.102   0.816   0.730 -1.2252  0.4177 -0.1292
 5485TIP3   OH237869   1.798   4.209   2.749 -0.3520  0.0385 -0.1568
 5485TIP3    H137870   1.758   4.293   2.726 -1.4336 -0.7654 -1.3264
 5485TIP3    H237871   1.883   4.210   2.703  0.1491  0.9273  0.7430
 5486TIP3   OH237872   1.870   1.594  12.339  0.1374  1.0911 -0.8158
 5486TIP3    H137873   1.843   1.554  12.257  0.6079  0.0526 -0.4841
 5486TIP3    H237874   1.788   1.625  12.378 -0.4007 -0.4359 -0.6348
 5487TIP3   OH237875   4.760   5.718   5.403  0.0014 -0.1924  0.0913
 5487TIP3    H137876   4.809   5.641   5.376 -1.8331 -1.7307  0.8988
 5487TIP3    H237877   4.813   5.757   5.473  1.6584  0.1993 -1.2979
 5488TIP3   OH237878   6.287   0.088  16.073  0.0091 -0.2644 -0.1430
 5488TIP3    H137879   6.267   0.001  16.109  0.1483 -0.1089  0.3147
 5488TIP3    H237880   6.383   0.088  16.064 -0.0658 -0.5055 -1.0447
 5489TIP3   OH237881   0.323   2.419   5.627 -0.0387 -0.2446 -0.9192
 5489TIP3    H137882   0.288   2.342   5.671  0.4169  0.6139  1.0115
 5489TIP3    H237883   0.411   2.429   5.662  0.7591 -0.1168 -2.8407
 5490TIP3   OH237884   1.524   1.623   6.650  0.0794  0.2489  0.1337
 5490TIP3    H137885   1.618   1.608   6.639  0.4072  0.6837  2.0125
 5490TIP3    H237886   1.491   1.630   6.561  1.5779 -1.3520 -0.6316
 5491TIP3   OH237887   1.509   1.729   4.877  0.0124  0.2964  0.5660
 5491TIP3    H137888   1.564   1.793   4.923  1.3098 -0.6486  0.3968
 5491TIP3    H237889   1.438   1.781   4.840  1.6537  1.8658 -0.5722
 5492TIP3   OH237890   2.632   3.169   1.114 -0.6385  0.4293  0.4791
 5492TIP3    H137891   2.679   3.238   1.068 -0.1098 -0.1841  0.0766
 5492TIP3    H237892   2.556   3.151   1.059 -2.1378  2.3695  1.8139
 5493TIP3   OH237893   0.494   0.416  17.152 -0.1845 -0.5177  0.6802
 5493TIP3    H137894   0.543   0.493  17.124 -1.4372  0.5313  1.2759
 5493TIP3    H237895   0.518   0.404  17.244 -0.7483 -0.2302  0.8678
 5494TIP3   OH237896   5.298   3.975  16.184 -0.2169 -0.1620  0.4519
 5494TIP3    H137897   5.321   4.062  16.217 -0.4566  0.0176  0.1438
 5494TIP3    H237898   5.304   3.918  16.261 -0.6888  0.2392  0.7878
 5495TIP3   OH237899   6.528   4.264   2.487  0.5000 -0.1575  0.2785
 5495TIP3    H137900   6.461   4.196   2.484  0.7672 -0.4847  1.4285
 5495TIP3    H237901   6.545   4.284   2.395 -0.8330 -0.3914 -0.0470
 5496TIP3   OH237902   3.375   0.542   2.930 -0.0741  0.1898 -0.1191
 5496TIP3    H137903   3.428   0.497   2.864  0.7421  0.3240  0.4373
 5496TIP3    H237904   3.437   0.568   2.998 -0.8959  0.0461  0.7187
 5497TIP3   OH237905   2.178   3.717   2.634 -0.5730  0.3996 -0.0984
 5497TIP3    H137906   2.231   3.761   2.567 -2.0526  0.2668 -1.4255
 5497TIP3    H237907   2.227   3.728   2.715  1.3820  0.4208 -1.2287
 5498TIP3   OH237908   1.497   6.422   1.472  0.4573  0.0803  0.1602
 5498TIP3    H137909   1.469   6.346   1.421  1.2034  1.1021 -1.9033
 5498TIP3    H237910   1.592   6.414   1.476  0.3520 -0.5275  2.3856
 5499TIP3   OH237911   2.663   1.683   6.218 -0.6961 -0.5359 -0.5047
 5499TIP3    H137912   2.609   1.633   6.156  0.2223 -1.0437 -0.9080
 5499TIP3    H237913   2.618   1.672   6.302 -0.0239 -2.8542 -0.3825
 5500TIP3   OH237914   5.816   4.872  16.656 -0.0570 -0.0128 -0.1494
 5500TIP3    H137915   5.833   4.888  16.749  0.6011 -0.7071 -0.1370
 5500TIP3    H237916   5.725   4.842  16.653  0.1181 -0.6293  0.3602
 5501TIP3   OH237917   6.586   4.987   2.471  0.3790 -0.2154 -0.6180
 5501TIP3    H137918   6.637   4.926   2.525 -0.2636  0.7407  1.1453
 5501TIP3    H237919   6.512   4.935   2.441 -1.6732  0.2249  3.1214
 5502TIP3   OH237920   2.923   1.275   2.520 -0.0890 -0.0003  0.5360
 5502TIP3    H137921   2.927   1.367   2.546  1.1118  0.4095 -0.8850
 5502TIP3    H237922   2.973   1.272   2.438  0.8641 -2.1259  1.1259
 5503TIP3   OH237923   6.091   5.667   1.980 -0.7517 -0.2904  0.1006
 5503TIP3    H137924   6.009   5.662   1.931 -1.3667 -0.6980  1.1378
 5503TIP3    H237925   6.156   5.696   1.916 -1.4914 -0.9771 -0.9850
 5504TIP3   OH237926   5.005   3.406   1.703  0.3798 -0.7426 -0.4353
 5504TIP3    H137927   4.991   3.451   1.620  2.5232 -1.1214 -1.0673
 5504TIP3    H237928   4.919   3.373   1.728 -1.4057  3.6321  0.0963
 5505TIP3   OH237929   4.601   3.780  11.633 -0.1667 -0.2748  0.1001
 5505TIP3    H137930   4.611   3.763  11.539 -0.5340 -1.0363  0.1915
 5505TIP3    H237931   4.646   3.707  11.675  0.8136  0.5477  0.5370
 5506TIP3   OH237932   1.968   0.218   6.459 -0.4543 -0.2190 -0.1761
 5506TIP3    H137933   1.930   0.224   6.547 -0.7469  0.3180 -0.3347
 5506TIP3    H237934   1.924   0.288   6.409  0.1961 -0.0807 -0.5654
 5507TIP3   OH237935   5.736   0.751   2.464  0.1264  0.0664  0.6487
 5507TIP3    H137936   5.765   0.674   2.512 -0.1660 -0.9434 -0.7263
 5507TIP3    H237937   5.688   0.803   2.529 -2.1705 -2.2880  1.0130
 5508TIP3   OH237938   0.536   1.537  15.619  0.4540 -0.2321  0.0509
 5508TIP3    H137939   0.491   1.596  15.559 -1.2968 -0.7865  0.7704
 5508TIP3    H237940   0.590   1.594  15.674  0.1892  0.5033 -0.4476
 5509TIP3   OH237941   1.425   6.011   5.468 -0.3216  0.6329 -0.3082
 5509TIP3    H137942   1.387   6.055   5.544 -2.2075  0.9072 -1.3428
 5509TIP3    H237943   1.472   6.080   5.421  0.6866  0.5020  0.4747
 5510TIP3   OH237944   0.694   5.716   3.769  0.0560 -0.0039  0.0305
 5510TIP3    H137945   0.651   5.632   3.786  0.3401 -0.0947  0.3311
 5510TIP3    H237946   0.624   5.780   3.770 -0.1717 -0.2452 -0.2501
 5511TIP3   OH237947   4.607   3.656  17.110  0.1777 -0.4001 -0.1714
 5511TIP3    H137948   4.669   3.722  17.080 -0.4061 -0.6203 -2.0428
 5511TIP3    H237949   4.527   3.705  17.129  0.1988 -0.3997 -0.0818
 5512TIP3   OH237950   3.006   5.682  15.651 -0.2835  0.4948  0.0999
 5512TIP3    H137951   3.079   5.655  15.595 -1.4951 -2.2911 -0.2565
 5512TIP3    H237952   2.959   5.747  15.599  1.3938  1.7419  0.0164
 5513TIP3   OH237953   3.593   1.231  12.606  0.0511  0.6606 -0.3616
 5513TIP3    H137954   3.580   1.151  12.556  1.4377  0.2057 -0.0289
 5513TIP3    H237955   3.635   1.291  12.544 -0.1555  0.8245 -0.3439
 5514TIP3   OH237956   1.548   5.432   3.580  0.1363 -0.0793 -0.2026
 5514TIP3    H137957   1.530   5.338   3.585 -1.4199  0.1896 -0.1340
 5514TIP3    H237958   1.607   5.449   3.654 -0.3900 -0.8397  0.4150
 5515TIP3   OH237959   0.972   0.940   1.250  0.3778  0.5055  0.9125
 5515TIP3    H137960   0.892   0.991   1.240 -0.1094 -0.3975 -0.0871
 5515TIP3    H237961   0.954   0.882   1.325  0.7238  1.3934  1.6985
 5516TIP3   OH237962   1.717   1.494  13.418  0.3282 -0.8059 -0.0046
 5516TIP3    H137963   1.627   1.522  13.431  0.6009 -0.3085  0.9535
 5516TIP3    H237964   1.757   1.565  13.367  0.8708  0.3679  1.9379
 5517TIP3   OH237965   3.557   1.175   0.017 -0.0697  0.1214  0.5398
 5517TIP3    H137966   3.550   1.102   0.079  0.0841  0.6590  1.2088
 5517TIP3    H237967   3.621   1.234   0.057 -2.0951  1.9030  1.3529
 5518TIP3   OH237968   1.160   1.324  14.109  0.3877 -0.3862 -0.3353
 5518TIP3    H137969   1.171   1.371  14.192  0.4683 -0.6203 -0.2124
 5518TIP3    H237970   1.241   1.274  14.099  0.7035  0.2458 -0.9489
 5519TIP3   OH237971   6.146   4.749   2.788 -0.5655 -0.0619 -0.5801
 5519TIP3    H137972   6.128   4.842   2.776  0.4051 -0.0217 -1.9356
 5519TIP3    H237973   6.077   4.705   2.738 -0.9206 -0.0698 -0.0854
 5520TIP3   OH237974   0.432   0.129   3.405 -0.0518  0.2748 -0.4920
 5520TIP3    H137975   0.452   0.114   3.498 -0.4937  0.7259 -0.3192
 5520TIP3    H237976   0.410   0.043   3.371  1.0892 -0.0588 -0.4219
 5521TIP3   OH237977   4.175   3.462  13.233  0.0142  0.4058 -0.6573
 5521TIP3    H137978   4.235   3.507  13.291 -0.1376 -0.3999  0.1547
 5521TIP3    H237979   4.216   3.376  13.218 -1.2887 -0.4928  0.6005
 5522TIP3   OH237980   6.618   0.328  13.606  0.6426 -0.5096  0.6680
 5522TIP3    H137981   6.569   0.397  13.651  1.0750 -0.0536  0.4643
 5522TIP3    H237982   6.569   0.248  13.623 -0.0230 -0.1091  0.6831
 5523TIP3   OH237983   3.391   3.330   0.924 -0.1395 -0.0731  0.0639
 5523TIP3    H137984   3.423   3.416   0.899 -0.4301  0.2832  0.8680
 5523TIP3    H237985   3.373   3.285   0.841  1.5141  0.0495 -0.4009
 5524TIP3   OH237986   2.281   3.943   3.870 -0.0549  0.0293 -0.5523
 5524TIP3    H137987   2.230   3.863   3.861 -0.2451  0.1286 -0.3762
 5524TIP3    H237988   2.273   3.966   3.962  0.2744  0.0701 -0.5332
 5525TIP3   OH237989   3.411   5.425  14.658  0.2606  0.0532  0.2276
 5525TIP3    H137990   3.495   5.471  14.657 -0.3046  1.1152  0.7105
 5525TIP3    H237991   3.389   5.417  14.751 -0.2322 -0.1048  0.1002
 5526TIP3   OH237992   6.619   2.677  15.401  0.3337 -0.0821  0.1008
 5526TIP3    H137993   6.579   2.707  15.320  0.0218  0.4269  0.4377
 5526TIP3    H237994   6.609   2.582  15.399  0.3384 -0.0726 -0.4561
 5527TIP3   OH237995   4.927   0.334  16.054 -0.0815 -0.1175  0.0026
 5527TIP3    H137996   4.958   0.250  16.020 -1.0041 -0.0747 -0.9903
 5527TIP3    H237997   4.935   0.395  15.981 -1.1893  0.2032  0.1205
 5528TIP3   OH237998   4.322   3.853  15.087 -0.1180  0.3300  0.1613
 5528TIP3    H137999   4.248   3.875  15.030 -1.8714 -1.4670  1.6382
 5528TIP3    H238000   4.299   3.889  15.172 -0.5559 -2.3634  1.2802
 5529TIP3   OH238001   1.416   0.549   1.317  0.2297  0.1443 -0.3917
 5529TIP3    H138002   1.347   0.519   1.376  2.9265 -1.7803  2.0774
 5529TIP3    H238003   1.429   0.641   1.340  0.4195 -0.2652  1.2358
 5530TIP3   OH238004   3.614   4.805  11.591 -0.1965 -0.2616  0.4122
 5530TIP3    H138005   3.620   4.807  11.495 -0.4118  0.1460  0.4031
 5530TIP3    H238006   3.641   4.717  11.615  1.2106  0.0532  0.0691
 5531TIP3   OH238007   3.064   0.490  12.191 -0.2932 -0.3655  0.4628
 5531TIP3    H138008   3.158   0.497  12.206 -0.1587 -1.0683 -0.0109
 5531TIP3    H238009   3.043   0.563  12.133 -0.1194  0.0423  0.9127
 5532TIP3   OH238010   2.920   1.686  16.002 -0.4896 -0.1463  0.4776
 5532TIP3    H138011   2.854   1.632  15.957 -0.1609  0.8479 -1.3119
 5532TIP3    H238012   2.875   1.767  16.023 -0.5301 -0.4630  1.6376
 5533TIP3   OH238013   0.870   5.766  11.456 -1.1171  0.4587  0.5427
 5533TIP3    H138014   0.859   5.702  11.386 -1.3144  0.4441  0.5857
 5533TIP3    H238015   0.785   5.810  11.462 -0.8181  1.0932  0.1564
 5534TIP3   OH238016   2.773   2.039  13.478  0.5389  0.3038 -0.3926
 5534TIP3    H138017   2.753   2.122  13.522 -2.2494  0.3237 -1.5612
 5534TIP3    H238018   2.765   1.973  13.547  3.4435  0.9259  0.7150
 5535TIP3   OH238019   0.713   6.566   2.587 -0.3503 -0.5842  0.4963
 5535TIP3    H138020   0.641   6.513   2.554 -0.8981  0.7073 -0.4571
 5535TIP3    H238021   0.680   6.656   2.583  1.5952  0.1227 -0.7751
 5536TIP3   OH238022   5.845   2.693   0.089 -0.3545 -0.6041  0.7174
 5536TIP3    H138023   5.794   2.724   0.015 -0.4748  0.2967  1.1637
 5536TIP3    H238024   5.927   2.743   0.084  1.4882 -3.4510 -1.2099
 5537TIP3   OH238025   5.145   3.540   3.484 -0.0287  0.3521  0.4263
 5537TIP3    H138026   5.149   3.608   3.551  1.6003  0.4084  0.3025
 5537TIP3    H238027   5.064   3.493   3.503 -0.0012  0.8558  1.9594
 5538TIP3   OH238028   0.713   2.080   2.209 -0.3336 -0.2869  1.1811
 5538TIP3    H138029   0.719   2.121   2.295 -0.6641 -0.2841  1.2010
 5538TIP3    H238030   0.622   2.090   2.183  0.3335  2.5128 -0.5415
 5539TIP3   OH238031   2.436   1.139  16.833 -0.5705 -0.2635 -0.6680
 5539TIP3    H138032   2.401   1.065  16.782  0.9755 -0.6616 -1.2063
 5539TIP3    H238033   2.393   1.216  16.796 -0.0219 -0.6188 -2.1452
 5540TIP3   OH238034   5.375   0.685  13.254 -0.3630 -0.2335  0.2831
 5540TIP3    H138035   5.379   0.780  13.265  0.7787 -0.2233 -0.0596
 5540TIP3    H238036   5.463   0.655  13.277 -0.6626 -1.1870  0.2123
 5541TIP3   OH238037   2.985   1.505   5.117 -0.0794  0.1004 -0.6019
 5541TIP3    H138038   2.924   1.566   5.075 -0.5392 -1.6522 -2.7024
 5541TIP3    H238039   3.056   1.560   5.150 -1.0563  1.8574 -1.2889
 5542TIP3   OH238040   2.802   1.080   1.318 -0.1270  0.2634 -0.4783
 5542TIP3    H138041   2.735   1.048   1.257  1.8431  0.4861 -2.9077
 5542TIP3    H238042   2.757   1.148   1.368 -2.0797 -0.5439 -1.0139
 5543TIP3   OH238043   4.843   1.253  11.450 -0.2151 -0.6261  0.2580
 5543TIP3    H138044   4.808   1.224  11.366 -0.1177 -1.4312  0.4912
 5543TIP3    H238045   4.934   1.223  11.449 -0.1562 -0.4551  0.5654
 5544TIP3   OH238046   0.149   0.700   1.613 -0.5695  0.2927 -0.2425
 5544TIP3    H138047   0.242   0.677   1.623 -0.5306  0.4701 -0.1928
 5544TIP3    H238048   0.108   0.620   1.580 -0.6927 -0.3086  1.2952
 5545TIP3   OH238049   5.049   2.238  12.632 -0.2047  0.2290  0.1188
 5545TIP3    H138050   5.145   2.241  12.636 -0.1693  0.5757 -0.6656
 5545TIP3    H238051   5.030   2.218  12.540 -0.8816 -0.2049  0.3531
 5546TIP3   OH238052   2.899   2.979   5.384  0.0479 -0.3523  0.7760
 5546TIP3    H138053   2.906   2.899   5.436  1.2842  0.2313  1.5222
 5546TIP3    H238054   2.984   2.988   5.342  0.3559  1.2287  1.6805
 5547TIP3   OH238055   1.973   0.129  11.851  0.0308  0.7646 -0.6233
 5547TIP3    H138056   1.886   0.119  11.890  0.1899 -0.8285 -0.6093
 5547TIP3    H238057   1.969   0.079  11.770  0.6026  1.6390 -1.2098
 5548TIP3   OH238058   1.983   0.889  12.434 -0.0066  0.5629  0.2545
 5548TIP3    H138059   1.975   0.972  12.387  0.8901 -0.2437 -1.4233
 5548TIP3    H238060   1.896   0.849  12.425 -0.3946  1.2259  0.9320
 5549TIP3   OH238061   2.046   6.730   4.281 -1.0094  0.6322  0.2557
 5549TIP3    H138062   2.025   6.792   4.211  0.5163  1.6433  0.6462
 5549TIP3    H238063   1.961   6.699   4.312 -1.7363  0.6126 -1.6273
 5550TIP3   OH238064   2.102   4.873  12.783 -0.2385 -0.1150  1.0135
 5550TIP3    H138065   2.132   4.926  12.709  1.2409 -0.0308  1.6182
 5550TIP3    H238066   2.017   4.910  12.806 -0.5764  0.0726 -0.4185
 5551TIP3   OH238067   0.052   2.013  13.422 -0.0510 -0.0667 -0.4252
 5551TIP3    H138068   0.019   2.020  13.512  1.4187  0.1006  0.1323
 5551TIP3    H238069   0.142   2.047  13.427  0.0380 -0.0071 -1.9761
 5552TIP3   OH238070   6.271   0.636   3.371  0.0955  0.0253 -0.0260
 5552TIP3    H138071   6.263   0.545   3.396  2.7641 -0.3792 -0.3782
 5552TIP3    H238072   6.222   0.642   3.288 -0.9378 -0.8028  0.4979
 5553TIP3   OH238073   5.217   5.625   2.240  0.1272  0.3297 -0.2611
 5553TIP3    H138074   5.182   5.537   2.224 -0.7562  0.7905 -1.0439
 5553TIP3    H238075   5.139   5.681   2.242  0.7166  1.1759 -0.4103
 5554TIP3   OH238076   5.803   5.712   5.250  0.0096  0.0531  0.1889
 5554TIP3    H138077   5.837   5.654   5.318  1.9339  0.5150 -0.3164
 5554TIP3    H238078   5.783   5.654   5.177 -0.4184 -0.2460  0.5419
 5555TIP3   OH238079   2.238   1.039   4.399 -0.1231 -0.2565 -0.1665
 5555TIP3    H138080   2.221   0.979   4.327 -2.3511 -1.9532  1.6377
 5555TIP3    H238081   2.170   1.106   4.391  1.0564  0.9096 -0.9197
 5556TIP3   OH238082   6.414   0.045   4.249  0.0466  0.0328  0.3921
 5556TIP3    H138083   6.386  -0.030   4.196  0.4608 -0.2280  0.5328
 5556TIP3    H238084   6.339   0.104   4.249 -0.2179 -0.2979  0.1220
 5557TIP3   OH238085   5.714   1.218  15.219 -0.9266 -0.4356 -0.2246
 5557TIP3    H138086   5.717   1.144  15.279  0.6627 -0.5417 -0.4055
 5557TIP3    H238087   5.641   1.271  15.251 -0.1620 -0.4980  1.8053
 5558TIP3   OH238088   2.442   2.258  12.482  0.0679 -0.0482 -0.2678
 5558TIP3    H138089   2.429   2.164  12.468  1.7759 -0.0752 -2.2914
 5558TIP3    H238090   2.413   2.298  12.400  0.3506  1.0954  0.1716
 5559TIP3   OH238091   6.313   4.109  13.910 -0.2004  0.4748 -0.0993
 5559TIP3    H138092   6.264   4.048  13.965 -0.4499 -1.1567 -1.9988
 5559TIP3    H238093   6.280   4.196  13.935 -2.3358 -0.4008  0.3483
 5560TIP3   OH238094   0.420   4.100  15.466  0.5020  0.2646  0.5856
 5560TIP3    H138095   0.505   4.121  15.504  0.4189  0.7576  0.5085
 5560TIP3    H238096   0.437   4.026  15.408  1.0041  0.7742  0.0730
 5561TIP3   OH238097   0.524   2.727  12.036  0.2513  0.1269 -0.2803
 5561TIP3    H138098   0.452   2.702  12.093 -0.4634 -1.1741 -1.6675
 5561TIP3    H238099   0.522   2.662  11.966  2.7001  0.1453 -0.4400
 5562TIP3   OH238100   0.922   5.090  14.807  0.2983 -0.2262  0.0470
 5562TIP3    H138101   0.940   5.184  14.796  0.3193 -0.0563  1.3987
 5562TIP3    H238102   0.951   5.051  14.725 -0.2859  1.0234 -0.7971
 5563TIP3   OH238103   4.987   2.139  12.362  0.3932 -0.1660 -0.6538
 5563TIP3    H138104   4.969   2.046  12.346 -1.1677 -0.0193  0.0077
 5563TIP3    H238105   5.056   2.162  12.301 -0.9564 -1.1522 -2.6550
 5564TIP3   OH238106   2.721   4.247   2.756 -0.2264 -0.0969  0.5450
 5564TIP3    H138107   2.670   4.304   2.698 -0.5602  0.6817  1.5675
 5564TIP3    H238108   2.807   4.242   2.715 -0.3314  0.7763  0.1982
 5565TIP3   OH238109   3.071   3.856   5.635  0.1800  1.0008 -0.1694
 5565TIP3    H138110   3.013   3.783   5.658  0.2218  0.7985 -0.6909
 5565TIP3    H238111   3.050   3.876   5.544 -0.4857  2.2595  0.2366
 5566TIP3   OH238112   0.411   1.720   5.814  0.3506  0.0663 -0.1198
 5566TIP3    H138113   0.383   1.751   5.728  2.1673  0.4881 -0.6108
 5566TIP3    H238114   0.507   1.728   5.812  0.4169  0.4210  2.0712
 5567TIP3   OH238115   0.898   3.377  11.349 -0.3810 -0.1976  0.1971
 5567TIP3    H138116   0.976   3.322  11.351  0.9516  1.6097  0.1841
 5567TIP3    H238117   0.863   3.366  11.260 -0.0835 -0.9159  0.1623
 5568TIP3   OH238118   2.972   2.109  12.880  0.5756  0.1160 -0.0833
 5568TIP3    H138119   2.959   2.163  12.802  1.0677  0.8152  0.3095
 5568TIP3    H238120   3.056   2.138  12.916 -0.2762  0.7639  1.4726
 5569TIP3   OH238121   1.196   3.704  14.874 -0.3149  0.4927 -0.7805
 5569TIP3    H138122   1.140   3.706  14.951 -0.1844 -0.2971 -0.6498
 5569TIP3    H238123   1.189   3.614  14.842  2.8356 -0.4516  0.7469
 5570TIP3   OH238124   3.934   1.048  13.357  0.5484  0.4943 -0.0957
 5570TIP3    H138125   3.948   1.122  13.415 -0.6244  1.6364 -1.2073
 5570TIP3    H238126   3.895   0.980  13.413  1.6845  0.6668  0.9358
 5571TIP3   OH238127   3.040   0.134  15.061 -0.3279  0.6319 -0.0928
 5571TIP3    H138128   3.034   0.041  15.040 -2.1436  0.7119 -0.0553
 5571TIP3    H238129   3.065   0.137  15.153 -1.9274  0.1283  0.3865
 5572TIP3   OH238130   2.150   0.473  14.416  0.6918  0.3459  0.0344
 5572TIP3    H138131   2.201   0.552  14.401  0.5079  0.6673  1.0225
 5572TIP3    H238132   2.208   0.415  14.464  0.1719  0.6941  1.1200
 5573TIP3   OH238133   6.240   0.921  16.269  0.4463  0.0962  0.0837
 5573TIP3    H138134   6.270   1.001  16.226 -1.2935  0.5310 -0.4349
 5573TIP3    H238135   6.282   0.922  16.355  0.9825  1.2227 -0.1665
 5574TIP3   OH238136   4.031   4.465  14.136 -0.4998  0.0698  0.4572
 5574TIP3    H138137   4.044   4.488  14.229  0.6422  1.7893 -0.0767
 5574TIP3    H238138   3.972   4.533  14.103  0.2403  0.3303 -0.3845
 5575TIP3   OH238139   1.405   0.827  13.885  0.0954 -0.9460  0.6942
 5575TIP3    H138140   1.415   0.912  13.842 -0.9383 -1.5774 -0.9084
 5575TIP3    H238141   1.450   0.837  13.969 -1.2728  1.6517  1.2232
 5576TIP3   OH238142   6.445   6.211  15.877  0.3741  0.2234  0.3404
 5576TIP3    H138143   6.497   6.259  15.942 -2.2633  0.6930  2.2834
 5576TIP3    H238144   6.383   6.275  15.844  0.8081 -0.3640 -1.7625
 5577TIP3   OH238145   0.784   0.095   0.993 -0.3422 -0.4488  0.4281
 5577TIP3    H138146   0.729   0.088   1.071  2.3734 -0.2459  2.4799
 5577TIP3    H238147   0.827   0.180   1.002 -0.0235 -0.3851 -1.3647
 5578TIP3   OH238148   5.685   4.898   0.458  0.3266  0.3824  0.6221
 5578TIP3    H138149   5.671   4.857   0.373 -0.8715  1.9904 -0.0202
 5578TIP3    H238150   5.666   4.991   0.443 -0.2453  0.6543  2.7039
 5579TIP3   OH238151   0.033   1.548  13.272 -0.0778 -0.4370  0.0585
 5579TIP3    H138152  -0.027   1.621  13.288 -0.6886 -0.6993 -0.9388
 5579TIP3    H238153   0.116   1.577  13.308 -0.9062 -0.2485  1.9052
 5580TIP3   OH238154   3.061   4.986   2.898 -0.1874  0.3511  0.3830
 5580TIP3    H138155   3.126   4.999   2.967  0.5310  0.3810 -0.3016
 5580TIP3    H238156   3.102   5.017   2.818 -1.3590  1.1888  0.0709
 5581TIP3   OH238157   2.169   2.503  12.082 -0.0592  0.2066 -0.1479
 5581TIP3    H138158   2.207   2.445  12.016  0.0622  0.7189 -0.5355
 5581TIP3    H238159   2.145   2.583  12.034 -0.0038  0.5739  0.4179
 5582TIP3   OH238160   2.804   3.168   3.066 -0.8023  0.3648 -0.3517
 5582TIP3    H138161   2.713   3.191   3.047 -1.5922 -0.3486  2.1604
 5582TIP3    H238162   2.855   3.241   3.031 -2.5090  1.6527 -0.2817
 5583TIP3   OH238163   4.078   4.937   5.366 -0.1497 -0.7039 -0.0669
 5583TIP3    H138164   4.029   4.863   5.332 -0.9061 -0.0464 -0.4381
 5583TIP3    H238165   4.012   5.000   5.393  0.3928  1.2192 -2.7952
 5584TIP3   OH238166   2.292   1.662   3.130  0.1640  0.1916  0.2380
 5584TIP3    H138167   2.275   1.670   3.224 -1.0989 -0.6281  0.0973
 5584TIP3    H238168   2.246   1.583   3.104  2.4743 -0.9544 -0.6280
 5585TIP3   OH238169   3.071   0.531  17.443 -0.0827  0.4587  0.3828
 5585TIP3    H138170   3.043   0.453  17.396  1.7857  0.6996 -1.2272
 5585TIP3    H238171   3.085   0.501  17.533  0.8598 -1.1326 -0.2634
 5586TIP3   OH238172   5.814   4.735  15.790 -0.2447  0.2134  0.2490
 5586TIP3    H138173   5.868   4.750  15.868 -0.6262  1.4517  0.2932
 5586TIP3    H238174   5.803   4.822  15.751  3.1055 -0.7033 -3.3696
 5587TIP3   OH238175   3.483   3.853  17.088 -0.2442  0.3435 -0.0091
 5587TIP3    H138176   3.396   3.818  17.072 -1.2838  1.5721  2.5140
 5587TIP3    H238177   3.469   3.947  17.103  1.1740  0.2331  2.4694
 5588TIP3   OH238178   2.526   2.655   1.527  0.3966 -0.6735 -0.7590
 5588TIP3    H138179   2.610   2.697   1.544  0.3197 -0.4923 -0.8234
 5588TIP3    H238180   2.493   2.629   1.613 -0.8091  1.7974 -0.3860
 5589TIP3   OH238181   1.758   6.060   0.149 -0.4130  0.0367 -0.2818
 5589TIP3    H138182   1.771   6.068   0.243  0.7838 -1.0197 -0.3313
 5589TIP3    H238183   1.829   6.111   0.110 -0.1104 -0.6015 -0.5929
 5590TIP3   OH238184   4.929   5.126   1.658 -0.1967  0.1847  0.7487
 5590TIP3    H138185   4.979   5.105   1.737 -0.5143  1.4467  1.3056
 5590TIP3    H238186   4.937   5.048   1.603 -0.4660 -0.9475  2.2641
 5591TIP3   OH238187   2.206   5.005   6.100 -0.4780 -0.2250  0.0144
 5591TIP3    H138188   2.232   5.051   6.179 -0.7138 -0.7580  0.4063
 5591TIP3    H238189   2.115   5.031   6.086 -0.3117  0.1979 -0.3255
 5592TIP3   OH238190   2.372   1.673   5.376 -0.0663 -0.4156 -0.6466
 5592TIP3    H138191   2.381   1.580   5.396 -0.2943 -0.7319 -1.8968
 5592TIP3    H238192   2.460   1.708   5.383 -0.3966  0.1005  3.3264
 5593TIP3   OH238193   4.589   2.062   1.511  0.1364  0.3218  0.1999
 5593TIP3    H138194   4.537   2.005   1.455  1.3348  0.4963 -1.1641
 5593TIP3    H238195   4.553   2.050   1.599 -0.9411 -0.9813 -0.3901
 5594TIP3   OH238196   2.869   1.524   0.369 -0.5402  0.0169  0.1015
 5594TIP3    H138197   2.949   1.491   0.328 -0.9823 -0.7383 -0.1875
 5594TIP3    H238198   2.801   1.510   0.302 -0.7972  1.2783  0.0765
 5595TIP3   OH238199   2.564   5.073  16.031 -0.2058 -0.0962  0.3868
 5595TIP3    H138200   2.470   5.065  16.043 -0.5736  1.1687 -1.2672
 5595TIP3    H238201   2.578   5.165  16.007  1.6325  0.1015  1.9083
 5596TIP3   OH238202   3.904   5.531   5.842  0.1797 -0.0726  0.5063
 5596TIP3    H138203   3.880   5.514   5.933 -1.9020 -3.5436 -0.4967
 5596TIP3    H238204   3.999   5.523   5.840  0.2169 -0.5026  2.2670
 5597TIP3   OH238205   5.666   5.726   1.330 -0.3892 -0.0098 -0.0223
 5597TIP3    H138206   5.663   5.637   1.366  1.4937  0.0504  0.3910
 5597TIP3    H238207   5.666   5.783   1.406 -1.9542  0.4067 -0.2923
 5598TIP3   OH238208   1.327   1.918  17.158 -0.5768  0.4097  0.6340
 5598TIP3    H138209   1.340   1.916  17.253  0.0464  0.0074  0.5432
 5598TIP3    H238210   1.404   1.964  17.125 -0.3693 -0.2106  0.2521
 5599TIP3   OH238211   1.957   5.635   2.125  0.6990 -0.5447 -0.4705
 5599TIP3    H138212   1.968   5.546   2.159 -0.0308 -0.6272 -0.4301
 5599TIP3    H238213   2.044   5.660   2.095  1.5573 -0.2580  1.9667
 5600TIP3   OH238214   0.801   3.805  15.808  0.4688  0.2465  0.2084
 5600TIP3    H138215   0.725   3.805  15.866 -1.2974  1.3402 -1.9517
 5600TIP3    H238216   0.852   3.730  15.837 -2.3488 -1.6714  0.6505
 5601TIP3   OH238217   1.701   6.627   5.147  0.0578  0.2783 -0.7242
 5601TIP3    H138218   1.606   6.641   5.148 -0.0948 -0.3372 -2.4314
 5601TIP3    H238219   1.738   6.709   5.180 -1.0605  0.6265 -0.2890
 5602TIP3   OH238220   0.488   5.476  15.896 -0.2579  0.1240  0.1466
 5602TIP3    H138221   0.405   5.497  15.938  0.6566  1.1807  1.5468
 5602TIP3    H238222   0.534   5.420  15.959  0.4487  0.3103 -0.1886
 5603TIP3   OH238223   0.022   0.815   1.834 -0.2139 -0.0595 -0.4491
 5603TIP3    H138224  -0.060   0.773   1.858  1.0779 -2.6249 -0.0739
 5603TIP3    H238225   0.055   0.762   1.761  0.5640  1.6542 -1.4124
 5604TIP3   OH238226   5.224   0.334   6.439 -0.7931 -0.8849  0.2383
 5604TIP3    H138227   5.173   0.309   6.516 -0.8314  1.5712  1.1167
 5604TIP3    H238228   5.315   0.335   6.470 -0.9053  1.2196  0.6858
 5605TIP3   OH238229   4.453   2.669  15.004  0.5039 -0.0580  0.3563
 5605TIP3    H138230   4.480   2.752  15.042  0.4562 -0.2252  0.7632
 5605TIP3    H238231   4.397   2.693  14.930 -0.4096  0.2756  1.1320
 5606TIP3   OH238232   3.135   3.071   2.902 -0.3137  0.3321  0.3028
 5606TIP3    H138233   3.064   3.008   2.889 -1.6139  1.1435  2.8387
 5606TIP3    H238234   3.099   3.154   2.870  0.7370  0.2109 -1.3432
 5607TIP3   OH238235   4.661   4.548   2.910  0.0635 -0.5127  0.1953
 5607TIP3    H138236   4.591   4.486   2.887  1.0517 -0.8445 -2.1719
 5607TIP3    H238237   4.674   4.600   2.831 -0.8626  3.0181  2.0887
 5608TIP3   OH238238   2.456   6.505   5.686 -0.5233 -0.0215 -0.3856
 5608TIP3    H138239   2.498   6.451   5.752 -2.2257 -1.3745 -0.3228
 5608TIP3    H238240   2.398   6.563   5.735 -0.7799 -0.0871 -0.6083
 5609TIP3   OH238241   2.099   4.014   4.266 -0.3360 -0.0846 -0.4168
 5609TIP3    H138242   2.174   3.984   4.215 -1.0560 -0.7879 -1.0849
 5609TIP3    H238243   2.041   4.054   4.201 -0.1012  1.3931  0.2332
 5610TIP3   OH238244   3.187   6.351  15.819 -0.0334  0.7096  0.2661
 5610TIP3    H138245   3.267   6.340  15.872 -0.1643 -1.6917  0.1026
 5610TIP3    H238246   3.215   6.330  15.730 -0.6339  0.8489  0.0448
 5611TIP3   OH238247   3.369   2.559  15.493  0.4272 -0.4406  0.2670
 5611TIP3    H138248   3.341   2.563  15.401  2.3286  1.3651 -0.3165
 5611TIP3    H238249   3.397   2.469  15.506 -2.8818 -1.6347  0.1221
 5612TIP3   OH238250   4.867   2.760   0.007 -0.7508  0.3131  0.1711
 5612TIP3    H138251   4.930   2.739  -0.062  1.9184  1.5277  2.0568
 5612TIP3    H238252   4.865   2.855   0.010 -0.5382  0.3033  1.9151
 5613TIP3   OH238253   0.587   1.552  16.887 -0.1162 -0.1196 -0.2894
 5613TIP3    H138254   0.594   1.505  16.970 -0.5069 -0.6990 -0.5788
 5613TIP3    H238255   0.549   1.637  16.910 -0.2187 -0.2763  0.1221
 5614TIP3   OH238256   4.338   1.305   5.367 -0.1831  0.4084  0.2952
 5614TIP3    H138257   4.375   1.392   5.360  0.5593  0.0581 -0.3607
 5614TIP3    H238258   4.354   1.265   5.280 -2.0892  0.2382 -0.0122
 5615TIP3   OH238259   6.368   5.945   5.625  0.2980 -0.3775  0.2723
 5615TIP3    H138260   6.407   5.890   5.556 -0.0695 -1.2965  0.7814
 5615TIP3    H238261   6.394   5.903   5.707 -0.7057 -0.2791  0.6520
 5616TIP3   OH238262   1.499   0.717  13.628 -0.6609 -0.6891  0.1268
 5616TIP3    H138263   1.487   0.747  13.718  0.1084  1.4677 -0.4205
 5616TIP3    H238264   1.435   0.767  13.578  0.5453 -0.0414 -0.8207
 5617TIP3   OH238265   5.010   5.598  14.888 -0.3903 -0.1198  0.4319
 5617TIP3    H138266   4.983   5.688  14.910 -0.2123 -0.2224  1.0930
 5617TIP3    H238267   5.006   5.551  14.971 -0.9918 -0.8648  0.0018
 5618TIP3   OH238268   4.107   6.239  17.038 -0.5953 -0.3023  0.0373
 5618TIP3    H138269   4.187   6.291  17.049 -0.9738  0.0931  1.0372
 5618TIP3    H238270   4.046   6.275  17.102 -1.9007 -0.0009 -1.3093
 5619TIP3   OH238271   0.740   6.510  15.200  0.0191  0.1956 -0.1740
 5619TIP3    H138272   0.799   6.513  15.275 -0.0275 -0.8852 -0.0754
 5619TIP3    H238273   0.740   6.417  15.174  0.4707  0.6280 -1.8486
 5620TIP3   OH238274   2.251   0.479  16.288 -0.1556  0.5882 -0.2498
 5620TIP3    H138275   2.259   0.538  16.213  0.6670  0.3475 -0.3644
 5620TIP3    H238276   2.214   0.534  16.357 -1.6097  0.6254 -1.0214
 5621TIP3   OH238277   3.639   6.122  14.387  0.0578 -0.0159 -0.6943
 5621TIP3    H138278   3.719   6.161  14.351 -0.5763  1.8308 -0.2381
 5621TIP3    H238279   3.665   6.088  14.473  0.1092  1.8073  0.0593
 5622TIP3   OH238280   3.448   3.512  13.869 -0.0283  0.2989 -0.2125
 5622TIP3    H138281   3.376   3.487  13.812 -0.2372  1.2755 -0.3922
 5622TIP3    H238282   3.526   3.480  13.824 -0.1772  1.1961 -1.1600
 5623TIP3   OH238283   3.241   6.466   0.047 -0.1898 -0.3543  0.1563
 5623TIP3    H138284   3.268   6.395   0.106  0.7006  0.9131  1.3429
 5623TIP3    H238285   3.147   6.452   0.034  0.0179 -1.8932  0.1409
 5624TIP3   OH238286   5.511   0.380   4.763  0.5244  0.3068 -0.6781
 5624TIP3    H138287   5.447   0.318   4.727  1.6824  0.1081 -2.5371
 5624TIP3    H238288   5.583   0.326   4.794  1.2750  0.6466 -1.7603
 5625TIP3   OH238289   1.028   1.623  11.572  0.0488 -0.2728  0.0155
 5625TIP3    H138290   1.077   1.662  11.644 -1.7346 -1.8396  2.2479
 5625TIP3    H238291   1.028   1.529  11.591 -1.1164 -0.6450 -1.6145
 5626TIP3   OH238292   0.134   5.072  11.234 -0.1967  0.4633 -0.0286
 5626TIP3    H138293   0.172   5.151  11.194 -1.3910  1.3535  0.5231
 5626TIP3    H238294   0.119   5.013  11.161  1.4479  0.4105 -0.3632
 5627TIP3   OH238295   0.169   1.316  16.425 -0.2186 -0.0063  0.2912
 5627TIP3    H138296   0.160   1.303  16.331  0.0164 -2.5090  0.5680
 5627TIP3    H238297   0.231   1.250  16.453 -1.3160 -0.2264  2.4149
 5628TIP3   OH238298   6.320   4.821   0.938  0.1784 -0.2809  0.3719
 5628TIP3    H138299   6.272   4.859   0.865  1.8589 -0.2031 -0.7620
 5628TIP3    H238300   6.255   4.808   1.007 -1.2310  0.6967 -0.7381
 5629TIP3   OH238301   2.482   2.674  11.384  0.5370 -0.1561  0.1989
 5629TIP3    H138302   2.412   2.705  11.442  0.3004 -1.4881  0.6434
 5629TIP3    H238303   2.450   2.592  11.348  0.1923  1.1419 -2.7568
 5630TIP3   OH238304   5.291   6.520   4.276 -0.2887  0.4242 -0.2820
 5630TIP3    H138305   5.369   6.534   4.222  0.3087  2.2991  0.9347
 5630TIP3    H238306   5.225   6.579   4.239 -0.4608  0.3578 -0.0840
 5631TIP3   OH238307   4.874   4.742  11.997  0.1633 -0.1525 -0.5633
 5631TIP3    H138308   4.895   4.700  12.080  0.8859  1.3783  0.0803
 5631TIP3    H238309   4.946   4.717  11.938  1.5816  1.5493  0.3461
 5632TIP3   OH238310   1.778   0.894   4.782 -0.3248  0.6506  0.0004
 5632TIP3    H138311   1.685   0.875   4.772 -0.2978  0.6561 -0.2583
 5632TIP3    H238312   1.793   0.891   4.877 -0.7687  1.5144  0.1144
 5633TIP3   OH238313   3.884   1.630  12.042  0.8140 -0.5205  0.3282
 5633TIP3    H138314   3.874   1.535  12.039 -2.1753 -0.3289  1.0291
 5633TIP3    H238315   3.824   1.662  11.974  0.5546  0.9000  1.1906
 5634TIP3   OH238316   3.531   5.759  16.314  0.1100 -0.1565 -0.4207
 5634TIP3    H138317   3.449   5.733  16.356 -1.8095 -1.7290 -4.5929
 5634TIP3    H238318   3.574   5.816  16.378 -3.0918 -1.1003  2.8954
 5635TIP3   OH238319   2.493   1.576   0.704 -0.7122  0.5607  0.1191
 5635TIP3    H138320   2.459   1.568   0.794  1.0252 -1.2909  0.6732
 5635TIP3    H238321   2.514   1.487   0.679  1.2174  1.3300 -1.1760
 5636TIP3   OH238322   4.280   4.118  15.579 -0.4949 -0.2845  0.6142
 5636TIP3    H138323   4.290   4.162  15.495 -0.7863 -0.1587  0.6438
 5636TIP3    H238324   4.369   4.112  15.614 -0.5139  0.7726  0.8567
 5637TIP3   OH238325   2.482   1.834  17.054  0.1482 -0.4010  0.3227
 5637TIP3    H138326   2.562   1.851  17.006  0.6265  0.2484  1.3254
 5637TIP3    H238327   2.511   1.809  17.142 -0.6455 -3.0270 -0.0752
 5638TIP3   OH238328   0.740   0.205   0.753 -0.1913 -0.1813  0.3496
 5638TIP3    H138329   0.680   0.130   0.763 -0.8957  0.3616  0.3182
 5638TIP3    H238330   0.751   0.239   0.842 -0.1779 -0.0924  0.3140
 5639TIP3   OH238331   0.308   3.234  14.612 -0.2067  0.3056 -0.7520
 5639TIP3    H138332   0.277   3.299  14.675  0.8687  0.2336 -0.1207
 5639TIP3    H238333   0.273   3.151  14.645 -1.2115  0.4921 -1.3135
 5640TIP3   OH238334   5.655   0.962  14.062  0.1960 -0.0350  0.1029
 5640TIP3    H138335   5.576   0.965  14.115  0.7696 -1.2139  1.0687
 5640TIP3    H238336   5.625   0.940  13.974 -0.3684 -4.1445  1.1185
 5641TIP3   OH238337   0.845   2.722   2.942  0.1856 -0.4254  0.1170
 5641TIP3    H138338   0.873   2.784   2.875  1.6137 -0.9533  0.1901
 5641TIP3    H238339   0.911   2.729   3.011  0.3762 -1.9891  0.1328
 5642TIP3   OH238340   2.354   5.661  12.840  0.8211 -0.4168 -0.3051
 5642TIP3    H138341   2.392   5.741  12.876 -0.9354  0.4137 -0.2177
 5642TIP3    H238342   2.392   5.591  12.893  1.3589  0.4553  0.4901
 5643TIP3   OH238343   3.962   5.064  10.484  0.2491  0.1177 -0.4998
 5643TIP3    H138344   3.986   4.974  10.506 -1.2869 -0.3649 -0.7090
 5643TIP3    H238345   3.879   5.056  10.437 -1.1554  1.8068  1.5291
 5644TIP3   OH238346   0.112   6.647   1.626  0.2845 -0.8635  0.4634
 5644TIP3    H138347   0.036   6.680   1.674  0.0561  0.1625 -0.5622
 5644TIP3    H238348   0.088   6.656   1.533  2.8377  2.6598 -0.0721
 5645TIP3   OH238349   4.765   4.099  16.656  0.3709 -0.3662 -0.1209
 5645TIP3    H138350   4.788   4.074  16.567 -1.9696 -0.9455 -0.6397
 5645TIP3    H238351   4.686   4.153  16.646 -0.3356 -0.9837  1.6003
 5646TIP3   OH238352   5.262   6.093   3.754 -0.4667 -0.5280  0.0803
 5646TIP3    H138353   5.176   6.052   3.766 -0.2723 -0.6047  1.3254
 5646TIP3    H238354   5.263   6.165   3.818 -0.7616  1.4249 -1.9703
 5647TIP3   OH238355   2.441   4.043   2.068  0.1669  0.3536  0.1597
 5647TIP3    H138356   2.392   4.062   1.988  0.5348  0.8702  0.0539
 5647TIP3    H238357   2.379   3.995   2.123 -0.1314  0.1108 -0.3807
 5648TIP3   OH238358   5.235   0.491   5.756 -0.6381 -0.0670 -0.3827
 5648TIP3    H138359   5.274   0.554   5.817 -1.5674  0.0143  0.1437
 5648TIP3    H238360   5.280   0.507   5.673 -0.9747  1.4045 -0.3030
 5649TIP3   OH238361   1.839   0.969  14.576 -0.0771 -0.2756  0.3203
 5649TIP3    H138362   1.828   1.022  14.656  1.1129 -1.2935  1.1799
 5649TIP3    H238363   1.841   1.034  14.505  0.6103  0.7936  1.2748
 5650TIP3   OH238364   5.778   2.699   4.710  0.1911 -0.1770  0.2999
 5650TIP3    H138365   5.790   2.774   4.652  0.1426 -0.5041 -0.1371
 5650TIP3    H238366   5.735   2.736   4.788  0.2340  0.2592  0.1200
 5651TIP3   OH238367   6.042   2.649   4.027 -0.1272 -0.0982  0.3081
 5651TIP3    H138368   6.021   2.720   3.966  1.3361  0.8122  0.8131
 5651TIP3    H238369   6.065   2.575   3.970  1.1692  0.7205 -0.2715
 5652TIP3   OH238370   2.439   3.181   4.226 -0.0669  0.0754 -0.2082
 5652TIP3    H138371   2.436   3.152   4.135 -0.1459  0.8398 -0.4560
 5652TIP3    H238372   2.348   3.186   4.253 -0.0304 -0.5842  0.0635
 5653TIP3   OH238373   5.491   2.462  10.994 -0.4922 -0.8085 -0.5656
 5653TIP3    H138374   5.553   2.535  10.993 -1.1130 -0.1286  2.0891
 5653TIP3    H238375   5.414   2.495  10.949 -1.4030  0.9314  2.0141
 5654TIP3   OH238376   2.812   1.902   5.657 -0.0552 -0.0569  0.0250
 5654TIP3    H138377   2.787   1.983   5.612 -0.0043 -0.4107 -0.6658
 5654TIP3    H238378   2.877   1.929   5.721 -2.4835  0.9887  2.2532
 5655TIP3   OH238379   0.820   1.397   2.024  0.2462  0.0425 -0.0425
 5655TIP3    H138380   0.742   1.341   2.019  0.4004 -0.1736 -0.0354
 5655TIP3    H238381   0.858   1.377   2.109  1.1599 -0.9930 -0.6569
 5656TIP3   OH238382   2.274   2.341  11.884  0.3627  0.2751  0.2034
 5656TIP3    H138383   2.366   2.319  11.893  0.6170  1.3726  0.4054
 5656TIP3    H238384   2.251   2.311  11.796  1.2816  1.2480 -0.3840
 5657TIP3   OH238385   5.182   1.319   3.226 -0.4650  0.1718 -0.6876
 5657TIP3    H138386   5.113   1.295   3.289  1.1684 -1.5154  0.5838
 5657TIP3    H238387   5.177   1.414   3.221 -1.5072  0.2634  1.0177
 5658TIP3   OH238388   1.745   4.542  14.160 -0.1704  0.1770  0.2430
 5658TIP3    H138389   1.767   4.542  14.253 -1.1387  0.1836  0.4753
 5658TIP3    H238390   1.677   4.609  14.151 -0.2714 -0.0081 -0.4281
 5659TIP3   OH238391   4.711   0.253  14.212  0.3465 -0.6511  0.1347
 5659TIP3    H138392   4.699   0.211  14.298 -2.5635  0.3928  0.3625
 5659TIP3    H238393   4.629   0.238  14.166  0.5637  1.6522 -1.1686
 5660TIP3   OH238394   4.568   3.482   4.389 -0.0983  1.0845 -0.6430
 5660TIP3    H138395   4.534   3.425   4.458  1.0051  0.3432 -0.6775
 5660TIP3    H238396   4.643   3.434   4.353 -0.1700  1.8179 -1.8245
 5661TIP3   OH238397   1.815   1.485   2.278 -0.0410 -0.1836 -0.2004
 5661TIP3    H138398   1.755   1.557   2.300  0.1292  0.5552 -2.0142
 5661TIP3    H238399   1.856   1.512   2.196  1.7501 -1.3224  0.2524
 5662TIP3   OH238400   1.286   5.321  13.764 -0.3041 -0.1721 -0.2264
 5662TIP3    H138401   1.233   5.378  13.708 -0.3077  0.0908  0.0415
 5662TIP3    H238402   1.339   5.382  13.817  0.3279 -0.4287 -0.5527
 5663TIP3   OH238403   6.127   6.467   3.184 -0.2613 -0.1940  0.4087
 5663TIP3    H138404   6.059   6.533   3.201 -2.3485 -2.4268  1.2196
 5663TIP3    H238405   6.091   6.386   3.220  2.0356 -1.8867 -0.8894
 5664TIP3   OH238406   0.088   0.145  14.597  0.1339  0.4014 -0.1210
 5664TIP3    H138407   0.080   0.241  14.590 -0.2067  0.3432 -0.5522
 5664TIP3    H238408   0.008   0.112  14.557  0.2819 -0.0712 -0.0257
 5665TIP3   OH238409   0.432   2.336   0.350  0.7384 -0.0100 -0.7104
 5665TIP3    H138410   0.396   2.250   0.329 -0.2780  0.4725 -0.9848
 5665TIP3    H238411   0.399   2.355   0.438 -1.5127  1.3505 -1.7655
 5666TIP3   OH238412   4.341   4.012  17.026 -0.2154 -0.3657 -0.3160
 5666TIP3    H138413   4.340   4.101  17.061 -0.5718 -0.5626  0.1935
 5666TIP3    H238414   4.256   4.003  16.982  0.0668 -0.2551 -0.9004
 5667TIP3   OH238415   0.544   2.313  17.362 -0.0283 -0.4641 -0.3196
 5667TIP3    H138416   0.502   2.228  17.354 -1.5390  0.0952  0.9986
 5667TIP3    H238417   0.620   2.298  17.418 -0.4864 -0.8930  0.1972
 5668TIP3   OH238418   3.618   1.290   0.744  0.7274  0.1542 -0.5791
 5668TIP3    H138419   3.673   1.367   0.746  0.6034  0.2697  1.5719
 5668TIP3    H238420   3.676   1.218   0.768  1.1166 -0.7111 -3.7054
 5669TIP3   OH238421   3.576   6.127   3.303  0.5842  0.2870 -0.3313
 5669TIP3    H138422   3.535   6.110   3.218  1.5956  2.2052 -1.2643
 5669TIP3    H238423   3.541   6.212   3.330  1.4629  0.4215  0.4213
 5670TIP3   OH238424   1.731   1.144  17.326 -0.7003  0.2813  0.3558
 5670TIP3    H138425   1.742   1.061  17.372  0.1125 -1.0056 -1.9889
 5670TIP3    H238426   1.817   1.186  17.331 -0.7728  0.4117  0.5081
 5671TIP3   OH238427   2.330   2.621  12.413 -0.3688  0.2480 -0.2021
 5671TIP3    H138428   2.335   2.544  12.356 -2.7708  0.7472 -1.2071
 5671TIP3    H238429   2.261   2.600  12.475  2.4763 -0.4586  2.9899
 5672TIP3   OH238430   2.511   2.384  11.368 -0.3324 -0.0819 -0.2200
 5672TIP3    H138431   2.485   2.401  11.458 -0.0729 -3.6878  0.6851
 5672TIP3    H238432   2.583   2.322  11.375 -0.1202 -0.2569 -2.9180
 5673TIP3   OH238433   5.192   4.771   1.184  0.4041  0.4280  0.2441
 5673TIP3    H138434   5.242   4.838   1.137  1.0249  1.4659  2.2474
 5673TIP3    H238435   5.258   4.708   1.213  0.3705  0.9886  1.5927
 5674TIP3   OH238436   6.196   5.428  11.179  0.2682 -0.1325 -0.1973
 5674TIP3    H138437   6.279   5.457  11.140  0.1718 -0.7056 -0.8525
 5674TIP3    H238438   6.154   5.377  11.110 -0.8412  0.5206 -0.0436
 5675TIP3   OH238439   0.456   5.862   1.047 -0.1505  0.1336 -1.0934
 5675TIP3    H138440   0.539   5.815   1.035  0.5331  1.1583 -0.5427
 5675TIP3    H238441   0.470   5.946   1.002 -0.2924  0.9587  0.3424
 5676TIP3   OH238442   2.299   0.548  11.452  0.0465 -0.2827  0.1528
 5676TIP3    H138443   2.269   0.484  11.515 -1.6770  1.2538  0.9727
 5676TIP3    H238444   2.395   0.540  11.454  0.0814 -0.2978  2.9891
 5677TIP3   OH238445   3.633   4.083  16.613 -0.2857  0.9307  0.3192
 5677TIP3    H138446   3.613   4.123  16.698  0.3058 -0.1289  0.9711
 5677TIP3    H238447   3.678   4.001  16.635 -2.8916 -0.9705 -0.9111
 5678TIP3   OH238448   3.357   3.905   1.262 -0.0228 -0.2402  0.4760
 5678TIP3    H138449   3.393   3.910   1.351 -1.4883 -2.0017  1.2377
 5678TIP3    H238450   3.404   3.832   1.221  0.2740  0.2257 -0.0216
 5679TIP3   OH238451   5.281   3.430  15.651 -0.3196  0.6671  0.5851
 5679TIP3    H138452   5.368   3.457  15.680  0.6441 -2.8351  1.4079
 5679TIP3    H238453   5.290   3.416  15.557 -0.0637  0.5604  0.6253
 5680TIP3   OH238454   6.184   6.297   2.537 -0.5024  0.1490 -0.4095
 5680TIP3    H138455   6.096   6.267   2.561 -0.8432  0.6643 -0.9907
 5680TIP3    H238456   6.214   6.346   2.613  0.3593 -2.2165  0.8674
 5681TIP3   OH238457   0.206   6.149   2.416  0.3286  0.2421  0.0844
 5681TIP3    H138458   0.189   6.061   2.382 -1.8922  0.6026  0.1401
 5681TIP3    H238459   0.256   6.135   2.496  2.0073 -0.8095 -1.0648
 5682TIP3   OH238460   4.698   5.087   1.282 -0.2909 -0.3635 -0.1174
 5682TIP3    H138461   4.771   5.109   1.225  0.7000 -0.2352  1.1385
 5682TIP3    H238462   4.732   5.018   1.339 -2.1518 -2.5494 -1.5198
 5683TIP3   OH238463   2.597   3.518   3.369 -0.0222 -0.3992 -0.2903
 5683TIP3    H138464   2.670   3.571   3.335  0.2424 -1.3021 -1.1955
 5683TIP3    H238465   2.584   3.549   3.458  0.7354  0.5448 -0.4901
 5684TIP3   OH238466   4.831   4.037  14.262 -0.4335  0.2161  0.0554
 5684TIP3    H138467   4.914   4.084  14.257 -2.0350  3.3105  0.4039
 5684TIP3    H238468   4.800   4.033  14.171 -0.0103 -0.8445 -0.0615
 5685TIP3   OH238469   1.221   0.892   1.134  0.2257 -0.2684  0.3163
 5685TIP3    H138470   1.268   0.963   1.179 -0.9298  1.1669 -0.6460
 5685TIP3    H238471   1.134   0.893   1.173 -0.9651  1.3423 -2.1566
 5686TIP3   OH238472   1.449   3.707   1.712 -0.0178  0.3416 -0.0388
 5686TIP3    H138473   1.397   3.661   1.779 -0.2822  1.0466  0.2569
 5686TIP3    H238474   1.530   3.657   1.706 -0.9591 -1.1388 -0.9462
 5687TIP3   OH238475   2.881   3.883  12.373  0.8339  0.1169 -0.3196
 5687TIP3    H138476   2.860   3.830  12.450 -0.8452 -0.0900 -0.8972
 5687TIP3    H238477   2.820   3.957  12.378  0.9651  0.2919 -1.2613
 5688TIP3   OH238478   4.999   6.150  15.917 -0.0861 -0.6425 -0.5306
 5688TIP3    H138479   5.047   6.156  15.835  1.0424 -0.6922  0.0974
 5688TIP3    H238480   5.067   6.133  15.983 -0.6826  1.4487  0.7063
 5689TIP3   OH238481   5.507   4.452  12.940 -0.6459 -0.6172 -0.1576
 5689TIP3    H138482   5.563   4.524  12.912  1.8443 -2.1452  0.6256
 5689TIP3    H238483   5.421   4.492  12.952  0.5033  2.0772 -0.2741
 5690TIP3   OH238484   2.422   3.640   4.832 -0.1233 -0.0450  0.3386
 5690TIP3    H138485   2.503   3.645   4.781  0.6640 -0.5398  1.5084
 5690TIP3    H238486   2.449   3.653   4.923 -1.4527  0.4746  0.6827
 5691TIP3   OH238487   4.469   0.138   3.692 -0.4682 -0.2230 -0.2826
 5691TIP3    H138488   4.418   0.145   3.773 -1.6576 -0.9502 -0.9428
 5691TIP3    H238489   4.429   0.065   3.645  1.9961 -1.6975 -0.2657
 5692TIP3   OH238490   5.577   4.329   4.456  0.1715 -0.0485 -0.1317
 5692TIP3    H138491   5.505   4.364   4.403  1.2515  0.5538 -1.2451
 5692TIP3    H238492   5.560   4.235   4.460 -1.4666  0.2388  0.8788
 5693TIP3   OH238493   3.168   6.693   6.188  0.3387 -0.3857  0.2366
 5693TIP3    H138494   3.235   6.695   6.256  0.3037 -2.1201  0.3501
 5693TIP3    H238495   3.085   6.702   6.235  0.2259 -2.7821  0.6280
 5694TIP3   OH238496   1.594   5.800   3.453 -0.2348 -0.4523  0.5672
 5694TIP3    H138497   1.614   5.710   3.428  1.3239  0.0677 -0.1363
 5694TIP3    H238498   1.515   5.821   3.404  0.5335 -0.7847 -0.8614
 5695TIP3   OH238499   5.384   6.084  12.198 -0.1502  0.0304 -0.2758
 5695TIP3    H138500   5.302   6.130  12.214 -0.4183 -0.0464 -1.3687
 5695TIP3    H238501   5.382   6.062  12.105  0.7657 -0.6457 -0.1544
 5696TIP3   OH238502   5.377   2.249  14.128 -0.4163  0.1651  0.1414
 5696TIP3    H138503   5.387   2.300  14.208  0.9926  1.4213 -0.7906
 5696TIP3    H238504   5.381   2.158  14.157  0.5912  0.5972  1.4329
 5697TIP3   OH238505   2.726   3.157  15.876  0.7123 -0.1586  0.2505
 5697TIP3    H138506   2.763   3.193  15.956 -1.5910 -0.7544  1.6842
 5697TIP3    H238507   2.632   3.148  15.894 -0.1021  0.6609 -2.9004
 5698TIP3   OH238508   0.444   2.834   3.324 -0.0861 -0.1018 -0.0967
 5698TIP3    H138509   0.498   2.789   3.258  2.6696  0.6926  1.4617
 5698TIP3    H238510   0.356   2.835   3.286  1.3461  0.4496 -3.8317
 5699TIP3   OH238511   4.300   6.198   5.722 -0.0103  0.3589  0.2653
 5699TIP3    H138512   4.383   6.233   5.755 -0.9878  1.4330  1.7114
 5699TIP3    H238513   4.303   6.105   5.743  0.5606  0.5065  0.8696
 5700TIP3   OH238514   5.219   6.149  11.706 -0.4795  0.2945 -0.5128
 5700TIP3    H138515   5.189   6.235  11.734  0.8041  0.4554  0.4624
 5700TIP3    H238516   5.285   6.168  11.639  0.9409  0.1888  0.7863
 5701TIP3   OH238517   2.836   6.720   3.471  0.1062 -0.4765 -0.1570
 5701TIP3    H138518   2.755   6.686   3.507  0.2465 -0.3647  0.2716
 5701TIP3    H238519   2.810   6.765   3.391 -0.0888 -1.5355 -0.7066
 5702TIP3   OH238520   1.816   2.786  12.513  0.3849  0.0641 -0.2210
 5702TIP3    H138521   1.742   2.832  12.550 -0.1911 -0.8125 -0.2541
 5702TIP3    H238522   1.892   2.839  12.536 -0.2229  0.8403  0.0211
 5703TIP3   OH238523   3.272   5.003  15.550  0.0707 -0.2906  0.3460
 5703TIP3    H138524   3.250   4.911  15.540 -1.7013  0.2215 -0.8813
 5703TIP3    H238525   3.233   5.046  15.474  1.8356  1.3364  0.2828
 5704TIP3   OH238526   6.068   1.837   0.625 -0.3234  0.3038  0.8765
 5704TIP3    H138527   6.010   1.763   0.647  0.3107 -0.6593 -0.5401
 5704TIP3    H238528   6.123   1.804   0.554 -1.4449  2.8229 -1.3362
 5705TIP3   OH238529   1.828   0.150   2.651 -1.1418  0.1632  0.5138
 5705TIP3    H138530   1.801   0.098   2.726 -1.8961 -1.0754 -0.5771
 5705TIP3    H238531   1.746   0.168   2.604 -0.5249 -0.3315 -0.7904
 5706TIP3   OH238532   1.812   1.442  13.160 -0.3286 -0.5055  0.2665
 5706TIP3    H138533   1.748   1.382  13.121 -0.4719 -0.1152 -0.1157
 5706TIP3    H238534   1.780   1.456  13.249  0.1903 -1.6775  0.6571
 5707TIP3   OH238535   6.174   1.150   5.590  0.2532 -0.1425  0.2010
 5707TIP3    H138536   6.147   1.239   5.568  1.4631  0.3070  0.4465
 5707TIP3    H238537   6.258   1.138   5.545  0.1845 -1.1032  0.3018
 5708TIP3   OH238538   3.805   3.329  13.059 -0.0803  0.1112 -0.0941
 5708TIP3    H138539   3.809   3.420  13.088  1.8668  0.1402 -0.3382
 5708TIP3    H238540   3.735   3.291  13.111  0.3196  1.2843  1.3771
 5709TIP3   OH238541   6.670   6.305   2.973  0.0430  0.1478  0.6979
 5709TIP3    H138542   6.750   6.328   2.924 -0.1394  1.2000  0.8573
 5709TIP3    H238543   6.603   6.294   2.906 -0.3873  2.3344  0.6908
 5710TIP3   OH238544   3.149   5.466  16.531 -0.4432  0.4792  0.1097
 5710TIP3    H138545   3.125   5.496  16.618  2.0788  1.3335  0.6053
 5710TIP3    H238546   3.069   5.474  16.479 -1.4305  2.1401  1.7756
 5711TIP3   OH238547   1.098   5.840  13.820 -0.4598 -0.5956 -0.3509
 5711TIP3    H138548   1.185   5.802  13.813  0.4070  1.2514 -0.3581
 5711TIP3    H238549   1.075   5.864  13.730  0.5155  1.8831 -0.0346
 5712TIP3   OH238550   1.590   2.073   4.329  0.1983  0.3713  0.7633
 5712TIP3    H138551   1.501   2.080   4.296  0.7574 -0.2236 -0.9738
 5712TIP3    H238552   1.587   2.000   4.391 -0.4321  0.1194  0.4399
 5713TIP3   OH238553   4.696   2.935  14.175 -0.4621 -0.2375 -0.1246
 5713TIP3    H138554   4.740   3.015  14.203 -1.0287 -0.5924  1.9138
 5713TIP3    H238555   4.756   2.896  14.112  2.0310 -0.5094  2.2378
 5714TIP3   OH238556   2.902   0.251   0.724  0.0047 -0.1117 -0.3425
 5714TIP3    H138557   2.981   0.303   0.706  0.1869 -0.7096 -1.3797
 5714TIP3    H238558   2.833   0.295   0.674 -0.4442  0.6691  0.9151
 5715TIP3   OH238559   1.986   4.383  14.423  0.1113  0.5874  0.2429
 5715TIP3    H138560   1.933   4.312  14.387  0.9683  0.7055 -1.3748
 5715TIP3    H238561   1.922   4.445  14.459 -0.6499 -0.9130  1.5948
 5716TIP3   OH238562   3.991   0.350   3.516  0.3922 -0.0013  0.5026
 5716TIP3    H138563   4.008   0.427   3.462  0.7810  0.5032  1.3319
 5716TIP3    H238564   4.068   0.294   3.503  0.7817  0.4087  1.0262
 5717TIP3   OH238565   0.082   1.612   3.347  0.0118 -0.2020  0.0232
 5717TIP3    H138566   0.072   1.518   3.362 -0.1860 -0.7987 -3.2463
 5717TIP3    H238567  -0.007   1.642   3.325  0.5024  0.2259 -1.4213
 5718TIP3   OH238568   1.495   0.170  11.741 -0.0993 -0.1673  0.7773
 5718TIP3    H138569   1.580   0.146  11.706 -0.2750  0.3715 -0.0503
 5718TIP3    H238570   1.471   0.250  11.694 -2.8045 -2.3205 -1.9703
 5719TIP3   OH238571   4.091   0.945   2.150 -0.0532 -0.1473 -0.0299
 5719TIP3    H138572   4.183   0.933   2.124 -0.5678  0.7029 -2.4026
 5719TIP3    H238573   4.043   0.953   2.068 -2.1847  0.1748  1.1747
 5720TIP3   OH238574   2.861   4.933  11.123 -0.0396 -0.1547 -0.1519
 5720TIP3    H138575   2.924   4.987  11.171 -0.7315  0.4513  0.0893
 5720TIP3    H238576   2.776   4.962  11.154 -0.4428 -1.1728 -0.2619
 5721TIP3   OH238577   1.298   1.921  15.596 -0.4703  0.2647 -0.1121
 5721TIP3    H138578   1.377   1.971  15.613 -0.5567  0.4841 -0.3468
 5721TIP3    H238579   1.258   1.965  15.521 -0.5655 -0.1359 -0.2935
 5722TIP3   OH238580   1.581   3.718   3.841 -0.7341  0.6479  0.4335
 5722TIP3    H138581   1.548   3.790   3.895  0.3191  2.0769 -0.7437
 5722TIP3    H238582   1.508   3.697   3.783 -0.7159  1.5427  0.0613
 5723TIP3   OH238583   5.415   2.660   6.602 -0.4013 -0.0548  0.2386
 5723TIP3    H138584   5.416   2.631   6.511 -1.0973  0.4639  0.0601
 5723TIP3    H238585   5.508   2.665   6.626 -0.1599  1.0047 -0.8329
 5724TIP3   OH238586   4.824   3.751   3.491 -0.0597  0.5274 -0.1561
 5724TIP3    H138587   4.811   3.745   3.585 -0.8424 -1.8682 -0.3447
 5724TIP3    H238588   4.916   3.772   3.480  1.0476 -2.8445  1.2260
 5725TIP3   OH238589   4.784   0.013   3.525 -0.1444 -0.6131  0.7843
 5725TIP3    H138590   4.782   0.033   3.619 -1.5456 -0.4257  0.7362
 5725TIP3    H238591   4.874   0.033   3.498 -0.2519  1.3002  1.6662
 5726TIP3   OH238592   1.089   1.923  12.435 -0.4781  0.5432  0.4983
 5726TIP3    H138593   1.179   1.939  12.407  0.0739  0.3556  2.0558
 5726TIP3    H238594   1.053   2.010  12.453 -0.3399  0.5736  0.6311
 5727TIP3   OH238595   5.483   2.571   2.968 -0.5570 -0.0559 -0.0553
 5727TIP3    H138596   5.526   2.538   3.047 -1.8870 -0.0991  0.6927
 5727TIP3    H238597   5.552   2.575   2.902  0.3830 -0.9438  0.8410
 5728TIP3   OH238598   0.970   5.023   3.591  0.3268  0.1018 -0.5806
 5728TIP3    H138599   1.035   5.045   3.524  0.6029  1.5703  0.1291
 5728TIP3    H238600   0.898   5.085   3.575  0.7785  1.0989  1.0010
 5729TIP3   OH238601   6.463   3.947   4.444 -0.3540  0.1684 -0.0391
 5729TIP3    H138602   6.548   3.990   4.440 -0.3846  0.2909  0.5210
 5729TIP3    H238603   6.399   4.018   4.434 -0.4097 -0.1319 -2.4141
 5730TIP3   OH238604   3.370   4.547   5.604  0.0923 -0.0309  0.5386
 5730TIP3    H138605   3.398   4.608   5.672  0.7453  2.3555 -1.6882
 5730TIP3    H238606   3.447   4.538   5.547 -0.9871 -0.3718 -0.9304
 5731TIP3   OH238607   6.195   5.020   2.714 -0.3365 -0.2385  0.3751
 5731TIP3    H138608   6.260   5.058   2.773 -0.0776 -1.5267  0.9378
 5731TIP3    H238609   6.240   5.013   2.630 -0.1705  0.0592  0.4381
 5732TIP3   OH238610   2.176   3.549  16.182  0.7661 -0.0395 -0.4753
 5732TIP3    H138611   2.114   3.477  16.182  0.8673 -0.1392 -1.3246
 5732TIP3    H238612   2.161   3.594  16.265  1.9642 -2.0837  0.9245
 5733TIP3   OH238613   5.272   0.878   5.242 -0.8789 -0.3292 -0.7124
 5733TIP3    H138614   5.193   0.899   5.291  0.0479 -0.4638  0.9108
 5733TIP3    H238615   5.278   0.946   5.175 -1.2359  0.9401  0.5062
 5734TIP3   OH238616   2.071   1.420   1.522 -0.1469 -0.2360  0.2995
 5734TIP3    H138617   1.981   1.454   1.522 -0.6715 -1.5502  0.8295
 5734TIP3    H238618   2.088   1.399   1.430  0.7348  2.7153 -0.3009
 5735TIP3   OH238619   1.243   2.386  16.557  0.3894 -0.7087  0.2254
 5735TIP3    H138620   1.282   2.304  16.587  0.7827 -0.3833  0.6162
 5735TIP3    H238621   1.189   2.361  16.482  2.8342 -0.8991 -1.5570
 5736TIP3   OH238622   0.681   0.360  12.787  0.4385  0.3184  0.1318
 5736TIP3    H138623   0.617   0.413  12.739 -2.0872  0.3656  3.1591
 5736TIP3    H238624   0.730   0.423  12.839  1.0843  0.0640 -0.1672
 5737TIP3   OH238625   5.012   2.816   1.184  0.4353 -0.0356 -0.2996
 5737TIP3    H138626   5.080   2.754   1.212 -0.6870 -0.3173  2.1371
 5737TIP3    H238627   4.964   2.770   1.116  0.2868 -1.4761  0.7246
 5738TIP3   OH238628   1.861   2.514  15.067 -0.3369  0.8972  0.0900
 5738TIP3    H138629   1.854   2.587  15.129  6.0210 -0.4812  3.2829
 5738TIP3    H238630   1.838   2.437  15.120  0.9470  0.0275 -0.5775
 5739TIP3   OH238631   5.357   1.108   0.489 -0.0669 -0.2864  0.3697
 5739TIP3    H138632   5.450   1.110   0.511 -0.0248 -0.6927  0.2537
 5739TIP3    H238633   5.355   1.073   0.399 -0.2764  0.6088  0.0190
 5740TIP3   OH238634   4.179   5.761  15.767  0.0738 -0.0621  0.4302
 5740TIP3    H138635   4.216   5.677  15.740  1.5016  0.2791  1.1866
 5740TIP3    H238636   4.234   5.826  15.724 -0.3669  0.4765  0.6753
 5741TIP3   OH238637   4.776   1.473   0.695  0.5659 -0.2448  0.2562
 5741TIP3    H138638   4.795   1.490   0.603  2.0308 -1.0201  0.3861
 5741TIP3    H238639   4.685   1.499   0.706  0.7474  1.1063 -1.0907
 5742TIP3   OH238640   0.755   6.105   2.295  0.1936  0.0728  0.7062
 5742TIP3    H138641   0.760   6.024   2.243 -0.5864  1.0022 -0.9005
 5742TIP3    H238642   0.662   6.116   2.312  0.0353  1.7665 -1.0240
 5743TIP3   OH238643   0.218   1.257  14.877 -0.4294 -0.3670 -0.4435
 5743TIP3    H138644   0.224   1.289  14.787 -0.2754 -0.9551 -0.6419
 5743TIP3    H238645   0.301   1.212  14.892  0.5609  1.6908  0.7760
 5744TIP3   OH238646   5.391   5.240   4.111  0.0083 -0.0735 -0.2312
 5744TIP3    H138647   5.383   5.160   4.162  2.7472 -0.4926 -0.3498
 5744TIP3    H238648   5.334   5.303   4.156 -0.1897 -1.3374  1.3663
 5745TIP3   OH238649   0.351   1.491   0.941  0.0580  0.2495  0.0896
 5745TIP3    H138650   0.317   1.539   1.016 -0.7606 -0.2527  0.0545
 5745TIP3    H238651   0.437   1.460   0.969  0.2827  1.1116  0.3654
 5746TIP3   OH238652   4.995   0.629  17.210  0.5072  0.3190  0.1685
 5746TIP3    H138653   4.998   0.539  17.176 -2.3539 -0.0040  0.5343
 5746TIP3    H238654   4.991   0.619  17.305 -1.2832  0.7236  0.1606
 5747TIP3   OH238655   4.749   4.450  15.470 -0.1389 -0.1095 -0.0280
 5747TIP3    H138656   4.738   4.430  15.377  0.5730  0.0338 -0.1498
 5747TIP3    H238657   4.721   4.371  15.515  0.6974 -0.6447 -0.4195
 5748TIP3   OH238658   6.616   1.632   2.883 -0.3045  0.4200 -0.0726
 5748TIP3    H138659   6.613   1.561   2.819  1.1165 -0.0550  0.3669
 5748TIP3    H238660   6.533   1.624   2.930 -0.0575 -1.1344  0.1566
 5749TIP3   OH238661   5.063   3.447   5.616  0.6108 -0.0740  0.6030
 5749TIP3    H138662   5.156   3.468   5.614  0.3484  1.1377 -0.3032
 5749TIP3    H238663   5.046   3.406   5.531  0.0332  1.1707  0.0871
 5750TIP3   OH238664   3.513   5.776  14.175  0.2265  0.0501 -0.4294
 5750TIP3    H138665   3.585   5.734  14.129  0.2314 -2.1383  1.3787
 5750TIP3    H238666   3.547   5.796  14.262 -0.7027  1.1051 -0.2745
 5751TIP3   OH238667   0.660   5.641  12.152 -0.7150 -0.3423  0.2408
 5751TIP3    H138668   0.640   5.592  12.072  3.2495 -1.2267 -0.4224
 5751TIP3    H238669   0.638   5.580  12.222  1.8761 -2.3482 -0.5099
 5752TIP3   OH238670   4.005   2.196  15.937 -0.8525  0.5762  0.8230
 5752TIP3    H138671   4.059   2.275  15.932 -1.0798  0.6585 -1.3353
 5752TIP3    H238672   4.049   2.133  15.880 -1.2248 -0.5302  1.7279
 5753TIP3   OH238673   6.201   4.903   2.392  0.2253 -0.2989 -0.1040
 5753TIP3    H138674   6.229   4.965   2.324 -0.2301 -1.0243 -0.9824
 5753TIP3    H238675   6.276   4.844   2.402 -0.3995 -1.4121 -1.4735
 5754TIP3   OH238676   1.710   0.967  15.553  0.0927  0.0862  0.1580
 5754TIP3    H138677   1.724   1.059  15.576 -0.5085  0.3642 -0.5739
 5754TIP3    H238678   1.633   0.967  15.497  0.7149 -0.7405 -0.7341
 5755TIP3   OH238679   2.518   0.235   1.594 -0.1412 -0.3241 -0.7493
 5755TIP3    H138680   2.472   0.256   1.512  0.1637  1.4005 -0.5239
 5755TIP3    H238681   2.587   0.301   1.600  0.6089 -1.1721  0.3072
 5756TIP3   OH238682   2.329   2.178  16.881 -0.0981  0.1345 -0.0302
 5756TIP3    H138683   2.372   2.112  16.826  1.3526  0.2430  0.9188
 5756TIP3    H238684   2.308   2.249  16.821 -0.0722 -0.4442 -0.7408
 5757TIP3   OH238685   4.832   2.932  14.551  0.5917 -0.3458 -0.1242
 5757TIP3    H138686   4.909   2.989  14.553  0.8095 -0.5747 -1.2760
 5757TIP3    H238687   4.788   2.949  14.634  2.3433 -0.8646  0.9621
 5758TIP3   OH238688   4.763   4.968  13.761 -0.1946 -0.1058  0.0652
 5758TIP3    H138689   4.855   4.965  13.735 -0.4404 -2.4383 -0.7674
 5758TIP3    H238690   4.755   4.900  13.828 -1.6013 -1.1908 -1.1160
 5759TIP3   OH238691   1.658   0.394  11.044 -0.5768 -0.0965  0.3411
 5759TIP3    H138692   1.572   0.425  11.017 -0.6270  0.0291  0.6408
 5759TIP3    H238693   1.644   0.302  11.068 -0.5782 -0.1433  0.1621
 5760TIP3   OH238694   1.425   0.455   0.980  0.3793  0.1627  0.7023
 5760TIP3    H138695   1.396   0.545   0.968 -0.4626 -0.2033 -0.0544
 5760TIP3    H238696   1.350   0.402   0.955  0.0982 -0.7436  3.1599
 5761TIP3   OH238697   5.278   5.725  17.285 -0.3276 -0.6401  0.4781
 5761TIP3    H138698   5.208   5.790  17.274 -1.2315 -1.6926 -0.3242
 5761TIP3    H238699   5.309   5.737  17.374 -2.1485 -0.6812  1.1593
 5762TIP3   OH238700   3.004   3.451   3.721 -0.0619  0.1550 -0.5431
 5762TIP3    H138701   2.909   3.443   3.713 -0.1643  0.3452  0.3983
 5762TIP3    H238702   3.038   3.371   3.680 -0.5345  0.8375 -2.3653
 5763TIP3   OH238703   1.991   6.590   5.538 -0.1217 -0.0789  0.2351
 5763TIP3    H138704   2.001   6.585   5.633 -1.3480 -0.5776  0.3662
 5763TIP3    H238705   1.925   6.523   5.517 -0.3142  0.4299 -0.8941
 5764TIP3   OH238706   5.705   3.730   3.046  0.2468 -0.6215  0.0321
 5764TIP3    H138707   5.738   3.712   2.958  0.6215 -0.2539  0.0929
 5764TIP3    H238708   5.682   3.644   3.081  0.7269 -0.8410 -0.1807
 5765TIP3   OH238709   0.896   2.897   2.510 -0.3615  0.4039 -0.1637
 5765TIP3    H138710   0.851   2.950   2.444  0.5154 -1.4755 -2.4395
 5765TIP3    H238711   0.841   2.819   2.519  0.2306  0.0293  0.2697
 5766TIP3   OH238712   0.649   5.639   5.491  0.2747 -0.7040 -0.2549
 5766TIP3    H138713   0.663   5.609   5.401  3.2584 -2.2861  0.5854
 5766TIP3    H238714   0.685   5.728   5.492 -1.3746  0.0097 -0.9630
 5767TIP3   OH238715   0.834   4.224  13.769 -0.5181  0.0011 -0.4961
 5767TIP3    H138716   0.789   4.277  13.834  0.4891  0.5758 -0.2438
 5767TIP3    H238717   0.787   4.140  13.769 -2.1247  0.8658 -0.9034
 5768TIP3   OH238718   5.356   6.338   2.258 -0.1564  0.1042  0.2582
 5768TIP3    H138719   5.408   6.392   2.317  0.6548  0.7803 -1.0348
 5768TIP3    H238720   5.327   6.398   2.189  2.0909 -1.2874 -2.1079
 5769TIP3   OH238721   5.282   3.578   4.556 -0.1277  0.1941 -0.0266
 5769TIP3    H138722   5.195   3.557   4.521 -0.5501 -0.7384  1.4636
 5769TIP3    H238723   5.264   3.622   4.639  0.8075 -0.1644  0.3783
 5770TIP3   OH238724   4.188   5.472   0.299  0.3970 -0.3892 -0.0562
 5770TIP3    H138725   4.194   5.568   0.300  0.5541 -0.3991  0.9440
 5770TIP3    H238726   4.104   5.453   0.339 -0.1750 -0.6497 -1.3461
 5771TIP3   OH238727   3.627   4.287  14.679 -0.0924 -0.4377 -0.3780
 5771TIP3    H138728   3.661   4.205  14.643 -0.4701 -0.4717 -0.6745
 5771TIP3    H238729   3.705   4.339  14.699  0.1923 -1.3032  0.8744
 5772TIP3   OH238730   6.094   1.488  12.537  0.3968 -0.1671 -0.2395
 5772TIP3    H138731   6.046   1.526  12.463 -0.7302 -0.9146  0.0896
 5772TIP3    H238732   6.061   1.398  12.544 -0.3622  0.2253  1.8743
 5773TIP3   OH238733   4.979   2.493   6.335 -0.2792 -0.1212 -0.4625
 5773TIP3    H138734   4.957   2.446   6.415 -0.5064 -0.2196 -0.5801
 5773TIP3    H238735   4.997   2.582   6.363 -1.4056  0.1147 -0.4185
 5774TIP3   OH238736   0.057   1.352  16.146 -0.5592 -0.4163  0.6294
 5774TIP3    H138737  -0.006   1.279  16.144 -0.1855 -0.7239  0.0759
 5774TIP3    H238738   0.087   1.361  16.056 -1.3696  1.1075  0.4764
 5775TIP3   OH238739   2.052   0.632  11.335  0.4563 -0.1648  0.1849
 5775TIP3    H138740   2.003   0.579  11.271  1.2492 -0.9465  0.2095
 5775TIP3    H238741   2.131   0.581  11.353  1.2267  1.0131  0.2495
 5776TIP3   OH238742   6.702   3.713  13.946  0.3204  0.1099  0.1096
 5776TIP3    H138743   6.741   3.766  14.015  1.3365  0.6404 -0.8328
 5776TIP3    H238744   6.608   3.716  13.963  0.5171  0.6522  1.1676
 5777TIP3   OH238745   3.548   2.759   1.809 -0.7148  0.5932 -0.1452
 5777TIP3    H138746   3.506   2.673   1.808 -0.0339  0.2090  1.4071
 5777TIP3    H238747   3.517   2.800   1.889  0.4334  1.0176  0.1090
 5778TIP3   OH238748   5.185   0.070   4.388  0.4101  0.3636  0.4772
 5778TIP3    H138749   5.127   0.054   4.313  0.9523 -0.3257  0.1940
 5778TIP3    H238750   5.138   0.034   4.462 -0.0850  0.9546  0.4554
 5779TIP3   OH238751   3.066   4.697  13.915 -0.1095 -0.2326  0.3302
 5779TIP3    H138752   3.066   4.632  13.845  2.4436 -0.7082  0.6702
 5779TIP3    H238753   3.077   4.781  13.869  1.1100 -0.5013  0.0961
 5780TIP3   OH238754   4.139   6.356  14.672 -0.2609 -0.7243  0.3767
 5780TIP3    H138755   4.048   6.337  14.699 -0.4494  1.3084  1.3669
 5780TIP3    H238756   4.137   6.448  14.645  1.1616 -1.1581 -1.3387
 5781TIP3   OH238757   3.087   6.042  15.505 -0.1826 -0.4340 -0.2594
 5781TIP3    H138758   3.029   6.076  15.437  0.7157 -1.5633 -1.6473
 5781TIP3    H238759   3.038   6.054  15.586 -1.4338  0.6372 -1.1295
 5782TIP3   OH238760   5.975   3.248   2.057 -0.0469  0.7765  0.1637
 5782TIP3    H138761   5.996   3.325   2.004 -1.0612  1.0179  0.0938
 5782TIP3    H238762   5.879   3.245   2.058 -0.0436  0.4703  1.5441
 5783TIP3   OH238763   6.651   1.810  13.258 -0.4110  0.1568  0.2635
 5783TIP3    H138764   6.705   1.838  13.183  1.3924 -1.2498  0.9712
 5783TIP3    H238765   6.675   1.870  13.328 -2.9064  2.1933 -0.4433
 5784TIP3   OH238766   3.459   1.267  17.249 -0.3571 -0.7045  0.0069
 5784TIP3    H138767   3.500   1.206  17.311  2.0897  2.1683  1.4842
 5784TIP3    H238768   3.411   1.329  17.305  0.7069  1.1283 -1.0309
 5785TIP3   OH238769   1.187   5.304  14.081  0.0690 -0.1966 -0.8811
 5785TIP3    H138770   1.232   5.241  14.137 -0.8369  0.2301  0.3655
 5785TIP3    H238771   1.183   5.261  13.996  1.3370 -0.9282 -0.5980
 5786TIP3   OH238772   4.311   2.379  14.150  0.5713 -0.0734 -0.4666
 5786TIP3    H138773   4.390   2.432  14.150  1.0313 -0.7323 -1.4383
 5786TIP3    H238774   4.244   2.436  14.111  1.3816 -0.6039 -2.7941
 5787TIP3   OH238775   0.967   0.344  11.392  0.4186  0.1165  0.4988
 5787TIP3    H138776   0.938   0.264  11.348  0.7077  0.8492 -1.0791
 5787TIP3    H238777   0.907   0.354  11.465 -1.2508 -0.1775 -0.7838
 5788TIP3   OH238778   3.393   3.089   6.207 -0.3817  0.4689 -0.1411
 5788TIP3    H138779   3.375   2.997   6.224  1.9951  0.2057  1.4085
 5788TIP3    H238780   3.333   3.136   6.265 -2.0265 -0.0076 -1.3679
 5789TIP3   OH238781   3.586   1.667   1.808  0.0580 -0.3036  0.3475
 5789TIP3    H138782   3.594   1.647   1.901 -0.0015 -1.7434  0.0767
 5789TIP3    H238783   3.652   1.611   1.766 -1.3874 -1.3669 -0.6407
 5790TIP3   OH238784   0.863   0.892   0.976 -0.8365  0.0213 -0.1182
 5790TIP3    H138785   0.901   0.979   0.980 -1.9682  0.5236  0.2774
 5790TIP3    H238786   0.771   0.907   0.954 -0.7926 -1.1499 -1.1911
 5791TIP3   OH238787   1.972   4.264  14.669 -0.8678 -0.3090  0.0361
 5791TIP3    H138788   1.997   4.273  14.578 -3.3295 -0.2060 -0.7178
 5791TIP3    H238789   2.023   4.329  14.716  0.9258 -0.8186 -1.1399
 5792TIP3   OH238790   3.253   6.182   4.078  0.3772  0.3577  0.4556
 5792TIP3    H138791   3.193   6.163   4.006 -0.1431  0.5445  0.8328
 5792TIP3    H238792   3.203   6.238   4.137  0.5505 -0.3915  1.3248
 5793TIP3   OH238793   0.744   3.576  13.464 -0.0787  0.7616 -0.6884
 5793TIP3    H138794   0.744   3.525  13.545 -1.4097  2.2360  0.2937
 5793TIP3    H238795   0.655   3.569  13.432  0.3786  0.3890 -1.9442
 5794TIP3   OH238796   4.069   6.413   0.154  0.4202 -0.0264  0.0663
 5794TIP3    H138797   3.989   6.466   0.153  0.7690  0.6053  1.9657
 5794TIP3    H238798   4.040   6.326   0.127 -0.7328  0.4065 -0.1619
 5795TIP3   OH238799   0.315   2.694  14.627  0.0383 -0.0068 -0.4075
 5795TIP3    H138800   0.363   2.680  14.709  0.2778 -1.2037 -0.7284
 5795TIP3    H238801   0.262   2.615  14.616 -0.7882  0.5975 -0.8867
 5796TIP3   OH238802   6.695   4.803   0.893  0.1103  0.3854  0.0460
 5796TIP3    H138803   6.765   4.826   0.832 -0.0409 -0.5887 -0.5100
 5796TIP3    H238804   6.735   4.812   0.980  0.6293  0.7844 -0.2289
 5797TIP3   OH238805   2.252   1.879  15.322 -0.2473  0.2968 -0.4657
 5797TIP3    H138806   2.333   1.869  15.272 -1.1879 -0.1768 -1.9831
 5797TIP3    H238807   2.258   1.966  15.360  1.6697 -0.3323  0.8255
 5798TIP3   OH238808   1.987   1.399   0.089  0.3280  0.2527 -0.2619
 5798TIP3    H138809   1.914   1.448   0.128  0.4535 -0.8108  1.3971
 5798TIP3    H238810   1.968   1.399  -0.004 -1.5048  0.4913  0.0710
 5799TIP3   OH238811   3.653   3.754   4.070 -0.1545 -0.6539  0.0028
 5799TIP3    H138812   3.703   3.700   4.010  1.1528 -0.9294  1.2895
 5799TIP3    H238813   3.718   3.807   4.115 -1.1505 -0.0293  0.7665
 5800TIP3   OH238814   5.557   3.607  15.300  0.3622 -0.2323  0.0851
 5800TIP3    H138815   5.580   3.678  15.359  0.8686  1.1981 -1.7202
 5800TIP3    H238816   5.461   3.611  15.292  0.1279 -1.3451  1.8122
 5801TIP3   OH238817   6.259   6.377   0.080  0.3052 -0.4309  0.1316
 5801TIP3    H138818   6.320   6.303   0.082  2.8229  1.2695 -3.1812
 5801TIP3    H238819   6.316   6.455   0.083 -1.8400  1.2904 -1.0700
 5802TIP3   OH238820   0.055   0.138  16.884  0.1638 -0.4426  0.4477
 5802TIP3    H138821   0.092   0.121  16.971  0.2832 -2.2792  0.0832
 5802TIP3    H238822  -0.033   0.170  16.902  0.3867 -0.2385  1.2418
 5803TIP3   OH238823   5.257   5.591   5.959  0.2105 -0.0655  0.0330
 5803TIP3    H138824   5.216   5.561   6.040 -0.7461  1.4974  0.1936
 5803TIP3    H238825   5.299   5.674   5.983  0.3414  0.1683 -0.9495
 5804TIP3   OH238826   1.295   2.727  11.305  0.0983 -0.2614  0.1745
 5804TIP3    H138827   1.272   2.790  11.236 -0.9208 -1.0452 -0.2237
 5804TIP3    H238828   1.329   2.781  11.377  2.2101  0.5134 -1.2920
 5805TIP3   OH238829   5.663   5.802   0.010  0.2036 -0.2653 -0.0562
 5805TIP3    H138830   5.681   5.783   0.102  0.1916  0.7617  0.1712
 5805TIP3    H238831   5.569   5.786   0.000 -0.1930  1.4373  0.6100
 5806TIP3   OH238832   4.963   3.294  16.784  0.0233 -0.6701  0.1160
 5806TIP3    H138833   4.877   3.253  16.796 -0.3569 -0.4270 -1.5379
 5806TIP3    H238834   5.023   3.238  16.833 -0.4926 -3.2394 -2.0012
 5807TIP3   OH238835   1.795   3.388  17.179  0.8246  0.3730  0.3220
 5807TIP3    H138836   1.754   3.438  17.249  0.3891 -0.2737  0.5378
 5807TIP3    H238837   1.758   3.300  17.187  1.7018 -0.0371  0.0576
 5808TIP3   OH238838   4.955   3.183  11.144  1.0587 -0.7806 -0.1350
 5808TIP3    H138839   5.048   3.171  11.124  1.5963  1.4655  0.6772
 5808TIP3    H238840   4.953   3.197  11.239 -0.0495 -0.2990 -0.2181
 5809TIP3   OH238841   4.395   5.439  14.839 -0.4150  0.0491 -0.0360
 5809TIP3    H138842   4.419   5.460  14.749 -2.0047  1.1721 -0.2529
 5809TIP3    H238843   4.446   5.500  14.892 -0.3450  0.1858 -0.2582
 5810TIP3   OH238844   0.348   5.565  14.522  0.1604 -0.1222  0.3893
 5810TIP3    H138845   0.271   5.608  14.485 -1.4050 -2.0031  1.2720
 5810TIP3    H238846   0.379   5.508  14.452  0.0112 -0.2661  0.4405
 5811TIP3   OH238847   3.687   5.880  12.935  0.1382  0.7138  0.6927
 5811TIP3    H138848   3.754   5.947  12.921 -1.4288  2.0963 -0.5904
 5811TIP3    H238849   3.606   5.921  12.905 -0.8692 -1.8333 -0.3092
 5812TIP3   OH238850   1.024   2.922   3.158  0.0888 -0.3563 -0.5241
 5812TIP3    H138851   0.969   2.989   3.201 -1.2598 -0.0373 -2.6256
 5812TIP3    H238852   1.107   2.967   3.141  0.2008 -0.1123  0.5467
 5813TIP3   OH238853   3.501   1.236   4.002  0.1986 -0.5584  0.8188
 5813TIP3    H138854   3.434   1.268   4.063 -0.4184 -1.0843  0.4407
 5813TIP3    H238855   3.582   1.236   4.052 -0.4372 -1.7257  1.9027
 5814TIP3   OH238856   0.870   1.109  15.600  0.2299  0.2155 -0.4228
 5814TIP3    H138857   0.898   1.175  15.663 -1.6595  2.2950 -1.6094
 5814TIP3    H238858   0.776   1.125  15.588 -0.2060 -2.3648 -1.2125
 5815TIP3   OH238859   1.822   0.582   5.820 -0.0846  0.3270 -0.0021
 5815TIP3    H138860   1.818   0.546   5.908  0.7465 -1.2080 -0.5518
 5815TIP3    H238861   1.732   0.576   5.787 -0.1243 -0.4625  0.2364
 5816TIP3   OH238862   3.922   3.110   2.468  0.4508  0.3900 -0.3603
 5816TIP3    H138863   3.839   3.069   2.444  0.0280  0.6415  0.6335
 5816TIP3    H238864   3.921   3.194   2.422 -1.2439  1.7488  1.9464
 5817TIP3   OH238865   1.483   4.424   4.036 -0.2886  0.1898 -0.0012
 5817TIP3    H138866   1.464   4.466   3.952  1.0235 -1.0999 -0.9868
 5817TIP3    H238867   1.422   4.350   4.039  1.3503 -1.2842 -1.0719
 5818TIP3   OH238868   6.647   4.343  15.440 -0.4620 -0.4010  0.2772
 5818TIP3    H138869   6.681   4.400  15.509  1.5459 -1.5933  0.3540
 5818TIP3    H238870   6.570   4.302  15.478 -0.3643  0.2347  1.1874
 5819TIP3   OH238871   4.656   2.134   0.545 -0.2950 -0.8572 -0.1310
 5819TIP3    H138872   4.700   2.131   0.630  0.1939  1.4161 -0.2307
 5819TIP3    H238873   4.718   2.096   0.484  0.9613  0.8713 -0.0056
 5820TIP3   OH238874   2.403   0.130   1.131  0.0299 -0.0144  0.9615
 5820TIP3    H138875   2.347   0.183   1.074  0.9769  0.7315  0.7104
 5820TIP3    H238876   2.491   0.163   1.117  0.5574 -1.2077  1.3308
 5821TIP3   OH238877   3.090   3.966  15.981  0.3335  0.2160  0.7850
 5821TIP3    H138878   3.117   3.882  15.943 -1.8247 -0.5739  0.8897
 5821TIP3    H238879   3.146   4.031  15.938  0.4939 -1.0316 -0.9805
 5822TIP3   OH238880   4.977   1.456   2.297 -0.4866  0.3731  0.1867
 5822TIP3    H138881   4.902   1.468   2.238 -0.3661  1.4030  0.2177
 5822TIP3    H238882   4.942   1.404   2.369 -1.1499  0.7198  0.1309
 5823TIP3   OH238883   5.794   0.698  11.912  0.1902  0.1638  0.4712
 5823TIP3    H138884   5.808   0.765  11.978 -3.3029  0.3133  1.2619
 5823TIP3    H238885   5.705   0.666  11.929  1.4508 -4.3321 -0.1797
 5824TIP3   OH238886   0.182   5.543  16.501 -0.3179 -0.2911 -0.0372
 5824TIP3    H138887   0.136   5.476  16.450 -0.1954 -1.2074  1.0192
 5824TIP3    H238888   0.188   5.507  16.589  0.8639  0.5786  0.2732
 5825TIP3   OH238889   3.624   1.685  12.330 -0.2231 -0.6483 -0.2378
 5825TIP3    H138890   3.695   1.689  12.393 -0.4504 -1.1510  0.0553
 5825TIP3    H238891   3.667   1.667  12.246  0.1445  0.7261 -0.3621
 5826TIP3   OH238892   0.707   4.815  12.438  0.0658 -0.4365  0.4647
 5826TIP3    H138893   0.665   4.729  12.441  2.0855 -1.4654  0.6150
 5826TIP3    H238894   0.762   4.813  12.359  0.9666  0.2910  1.0489
 5827TIP3   OH238895   6.419   3.081   5.709 -0.0145  0.4791  0.3035
 5827TIP3    H138896   6.385   3.106   5.795  0.2519  0.5039  0.4015
 5827TIP3    H238897   6.506   3.046   5.727 -0.0676  0.2251  0.0754
 5828TIP3   OH238898   3.636   6.252   2.401  0.0439 -0.0420  0.1746
 5828TIP3    H138899   3.577   6.283   2.332  1.8139  0.7161 -1.0754
 5828TIP3    H238900   3.702   6.321   2.408  0.2211 -0.3716  2.2746
 5829TIP3   OH238901   6.391   2.355   3.553 -0.1887  0.2431 -0.8837
 5829TIP3    H138902   6.326   2.346   3.623  1.9324 -0.6074  1.1340
 5829TIP3    H238903   6.387   2.271   3.506  0.6536 -0.5815  0.4285
 5830TIP3   OH238904   5.456   3.954  12.406 -0.5433 -0.3692  0.9739
 5830TIP3    H138905   5.477   3.954  12.312 -1.5426 -1.4695  0.7198
 5830TIP3    H238906   5.539   3.973  12.449  0.2647 -1.3392 -0.0784
 5831TIP3   OH238907   3.438   4.978  17.304 -0.0546  0.2867  0.0436
 5831TIP3    H138908   3.533   4.973  17.312 -0.1041 -0.9996 -0.0019
 5831TIP3    H238909   3.408   4.998  17.393  0.2797  1.2371 -0.0469
 5832TIP3   OH238910   3.538   2.977   2.332  0.1168  0.5349 -0.4684
 5832TIP3    H138911   3.596   2.913   2.374 -1.2297 -0.5728 -0.2153
 5832TIP3    H238912   3.594   3.023   2.269  0.9437 -1.5043 -1.2927
 5833TIP3   OH238913   0.069   4.418  14.360  0.3803  0.3703  0.1192
 5833TIP3    H138914   0.001   4.483  14.345 -1.4670 -1.2083  1.1178
 5833TIP3    H238915   0.142   4.466  14.397 -1.3295  1.7593  1.9042
 5834TIP3   OH238916   0.868   3.858   3.583 -0.4466  0.1871  0.2887
 5834TIP3    H138917   0.788   3.874   3.633  1.3317 -0.5981  3.6968
 5834TIP3    H238918   0.912   3.943   3.581 -0.2069  0.0775  0.7137
 5835TIP3   OH238919   0.974   1.469   1.160  0.3556  0.2297  0.1140
 5835TIP3    H138920   0.914   1.394   1.161 -0.5462  0.5589 -4.5395
 5835TIP3    H238921   1.060   1.431   1.142  0.9749  0.0840  2.8859
 5836TIP3   OH238922   1.305   4.550  13.261 -0.4086 -0.1934 -0.2979
 5836TIP3    H138923   1.267   4.568  13.175 -1.2122  0.4802  0.1777
 5836TIP3    H238924   1.235   4.508  13.310 -0.2528  0.2244  0.3016
 5837TIP3   OH238925   2.036   6.399  13.587  0.5437  0.4674 -0.1867
 5837TIP3    H138926   2.057   6.316  13.631  1.0386  0.1671 -0.9722
 5837TIP3    H238927   2.088   6.464  13.635 -0.8578  0.5611  1.2946
 5838TIP3   OH238928   0.161   1.896   6.661 -0.0147 -0.1884 -0.2159
 5838TIP3    H138929   0.170   1.969   6.599 -1.0062 -0.2990 -0.5044
 5838TIP3    H238930   0.161   1.818   6.605  0.5451 -0.3920  0.0553
 5839TIP3   OH238931   0.979   5.933   1.349 -0.1955  0.4758  0.1664
 5839TIP3    H138932   0.932   6.001   1.397  0.7267  0.0921  1.6801
 5839TIP3    H238933   0.926   5.854   1.362  0.5221  0.1672  1.3975
 5840TIP3   OH238934   2.300   2.713  13.556 -0.6604 -0.2666 -0.2913
 5840TIP3    H138935   2.327   2.663  13.633 -0.2720 -1.8626 -1.4274
 5840TIP3    H238936   2.351   2.794  13.561  0.1074 -0.7860  0.5858
 5841TIP3   OH238937   1.260   6.742  13.117 -0.0042 -0.2902  0.2943
 5841TIP3    H138938   1.220   6.782  13.040 -0.6731  0.4408  1.0072
 5841TIP3    H238939   1.238   6.649  13.110  0.8143 -0.4203 -0.9151
 5842TIP3   OH238940   4.213   1.003  12.491  0.0771 -0.7750 -0.2491
 5842TIP3    H138941   4.254   1.081  12.454  1.0966 -1.4971 -0.6991
 5842TIP3    H238942   4.202   0.944  12.416 -2.6041 -0.3131 -0.3144
 5843TIP3   OH238943   3.993   2.083  16.915  0.0454  0.1139  0.1400
 5843TIP3    H138944   3.917   2.135  16.889  0.2074  1.5725  2.2945
 5843TIP3    H238945   4.065   2.146  16.919  0.5491 -0.5078  1.5559
 5844TIP3   OH238946   2.927   3.448   1.940 -0.3650  0.1979  0.4099
 5844TIP3    H138947   3.000   3.406   1.892  0.6996  1.7449  0.6034
 5844TIP3    H238948   2.870   3.481   1.871  0.1394  0.6830  0.2127
 5845TIP3   OH238949   3.914   3.462  12.498  0.4324 -0.2307  0.0104
 5845TIP3    H138950   3.845   3.528  12.490  0.0665 -0.7467 -1.4982
 5845TIP3    H238951   3.985   3.508  12.542  0.6098  1.5867 -1.9753
 5846TIP3   OH238952   5.783   0.641   1.860  0.8763  0.5570 -0.3108
 5846TIP3    H138953   5.839   0.683   1.925  1.1437  1.4814 -1.1201
 5846TIP3    H238954   5.828   0.558   1.841  1.9828  1.2684 -0.9216
 5847TIP3   OH238955   0.271   5.761  13.129  0.1325 -0.2676 -0.1017
 5847TIP3    H138956   0.283   5.681  13.078  0.4781 -0.7679  0.7428
 5847TIP3    H238957   0.189   5.798  13.096 -1.1110 -2.0176  0.8209
 5848TIP3   OH238958   1.393   2.448   1.381 -0.6633 -0.4456  0.1356
 5848TIP3    H138959   1.391   2.390   1.305  0.8072  0.8400 -0.9397
 5848TIP3    H238960   1.329   2.411   1.442 -1.3418 -1.9136 -1.4221
 5849TIP3   OH238961   3.198   2.049   2.879  0.4676  0.1161  0.0303
 5849TIP3    H138962   3.290   2.041   2.904  0.0298 -1.6058  1.3025
 5849TIP3    H238963   3.169   1.959   2.866 -0.8115  0.6846 -1.3299
 5850TIP3   OH238964   4.383   6.608  16.341 -0.6493 -0.3652 -0.2438
 5850TIP3    H138965   4.368   6.688  16.292 -1.2726 -1.9563 -2.8556
 5850TIP3    H238966   4.300   6.590  16.384 -0.1788  0.9024  1.2800
 5851TIP3   OH238967   5.701   3.426   4.659 -0.1721 -0.8253  0.9552
 5851TIP3    H138968   5.778   3.389   4.617 -0.3694  0.1141 -0.2778
 5851TIP3    H238969   5.736   3.476   4.733  0.5997  0.9014 -0.4988
 5852TIP3   OH238970   4.110   6.366  16.179  0.0570 -0.4954 -0.2887
 5852TIP3    H138971   4.173   6.309  16.225  0.7204 -1.2234 -2.0267
 5852TIP3    H238972   4.163   6.413  16.115 -0.0707  3.6360  2.2495
 5853TIP3   OH238973   4.014   3.719  11.798  0.1267 -0.4926  0.0573
 5853TIP3    H138974   3.991   3.628  11.783 -0.5372 -0.5058  1.0669
 5853TIP3    H238975   4.110   3.721  11.792  0.1000 -1.1061 -0.7082
 5854TIP3   OH238976   2.289   2.393   0.899 -0.2957 -0.4637  0.6756
 5854TIP3    H138977   2.378   2.364   0.919  0.7296  1.2436 -1.1503
 5854TIP3    H238978   2.250   2.320   0.851  0.3739 -0.9074  0.7923
 5855TIP3   OH238979   2.576   0.955  12.759 -0.4940  0.4352 -0.6886
 5855TIP3    H138980   2.571   1.042  12.719 -1.3200  0.0738 -1.3976
 5855TIP3    H238981   2.590   0.972  12.852  1.1803  1.3032 -1.0580
 5856TIP3   OH238982   1.464   6.158  15.572 -0.3439 -0.3282 -0.2168
 5856TIP3    H138983   1.509   6.242  15.575 -1.0498  0.0543 -0.2111
 5856TIP3    H238984   1.377   6.178  15.537 -0.1789 -1.2049 -1.2041
 5857TIP3   OH238985   4.505   2.188   1.013  0.2471 -0.4369 -0.1383
 5857TIP3    H138986   4.493   2.282   1.025  1.4668 -0.1368 -1.0583
 5857TIP3    H238987   4.528   2.155   1.099 -0.9728 -0.0396  0.3622
 5858TIP3   OH238988   5.644   4.459  11.504  0.0695 -0.2842 -0.0437
 5858TIP3    H138989   5.635   4.403  11.581 -0.9252  1.2284  1.0066
 5858TIP3    H238990   5.663   4.546  11.539  1.9151  0.0291 -1.6333
 5859TIP3   OH238991   5.091   6.522   4.741  0.4956 -0.3389 -0.5958
 5859TIP3    H138992   5.036   6.571   4.680  0.4531  2.3669  1.4524
 5859TIP3    H238993   5.133   6.454   4.687 -2.4921 -0.6148 -2.7898
 5860TIP3   OH238994   1.928   4.874   0.424 -0.1571 -0.3020 -0.1096
 5860TIP3    H138995   1.964   4.958   0.453  1.0100 -1.3856  1.7994
 5860TIP3    H238996   2.003   4.826   0.391 -0.7639 -0.7245 -0.8996
 5861TIP3   OH238997   2.908   0.217   1.051  0.2255 -0.4275 -0.3939
 5861TIP3    H138998   2.966   0.227   1.126 -0.6656 -1.4311  0.4639
 5861TIP3    H238999   2.967   0.206   0.976  1.1451 -1.6206  0.4805
 5862TIP3   OH239000   6.103   2.241   2.723 -0.2801  0.3191 -0.1544
 5862TIP3    H139001   6.146   2.219   2.640  0.0151 -2.2439  0.6127
 5862TIP3    H239002   6.154   2.315   2.757  1.6909 -0.7177 -0.7046
 5863TIP3   OH239003   1.767   0.088   0.500 -0.1321  0.2460  0.2119
 5863TIP3    H139004   1.702   0.155   0.521 -0.4661 -0.3767  1.2607
 5863TIP3    H239005   1.801   0.113   0.414 -3.4306 -0.6765 -1.5228
 5864TIP3   OH239006   1.208   1.800  15.053  0.1441  0.2879  0.4356
 5864TIP3    H139007   1.231   1.733  14.988 -1.5367  0.3026 -0.2269
 5864TIP3    H239008   1.149   1.755  15.114 -2.0771  1.4273 -0.7653
 5865TIP3   OH239009   4.576   2.561   4.999 -0.5699  0.3327  0.1649
 5865TIP3    H139010   4.602   2.471   4.980 -2.4560  0.0417 -1.2696
 5865TIP3    H239011   4.638   2.615   4.949 -0.0025 -0.1783  0.3020
 5866TIP3   OH239012   2.100   4.618  12.687 -0.1614 -0.1162  0.5107
 5866TIP3    H139013   2.105   4.699  12.738 -1.1821  1.5013 -1.7686
 5866TIP3    H239014   2.006   4.599  12.682 -0.1781  0.3193 -1.4779
 5867TIP3   OH239015   1.077   6.247   0.433  0.4864  0.2955  0.0634
 5867TIP3    H139016   1.119   6.287   0.357  0.2586 -0.2166 -0.3442
 5867TIP3    H239017   1.037   6.320   0.480  2.0672  0.8384  0.6307
 5868TIP3   OH239018   3.347   4.525  15.490  0.0683 -0.2574  0.0754
 5868TIP3    H139019   3.307   4.525  15.403 -1.3190  3.2148  0.5681
 5868TIP3    H239020   3.429   4.574  15.480 -0.2156  0.3743  0.7449
 5869TIP3   OH239021   0.882   2.482   5.276  0.3660  0.5684 -0.0245
 5869TIP3    H139022   0.872   2.395   5.317  0.3345  0.8593  0.6014
 5869TIP3    H239023   0.868   2.466   5.183  2.0732 -0.4053 -0.1529
 5870TIP3   OH239024   1.194   2.995  12.012 -0.1135  0.7020  0.1982
 5870TIP3    H139025   1.106   3.007  11.977 -0.3936 -0.0074  0.6575
 5870TIP3    H239026   1.222   3.084  12.036 -1.9313  0.6502  2.9602
 5871TIP3   OH239027   6.094   0.479   0.734  0.5856 -0.1952  0.5792
 5871TIP3    H139028   6.101   0.384   0.743  0.0062 -0.2164  0.8263
 5871TIP3    H239029   6.184   0.508   0.721  0.6538 -0.9076 -0.7647
 5872TIP3   OH239030   5.683   0.200  16.274 -0.2275  0.2417  0.5703
 5872TIP3    H139031   5.707   0.120  16.321 -2.3792 -0.7522  0.1168
 5872TIP3    H239032   5.649   0.170  16.190 -0.1760  1.7174 -0.0085
 5873TIP3   OH239033   2.699   6.116  15.463 -0.4526 -0.1279 -0.1794
 5873TIP3    H139034   2.698   6.050  15.393 -2.2655 -1.2826  0.8456
 5873TIP3    H239035   2.717   6.198  15.419  0.1955 -1.0640 -1.7448
 5874TIP3   OH239036   1.889   4.308   3.006  0.1006 -0.2874  0.4510
 5874TIP3    H139037   1.844   4.292   2.922 -0.4359  1.6710  0.3112
 5874TIP3    H239038   1.830   4.367   3.053  2.1327  1.7655  0.5763
 5875TIP3   OH239039   5.565   5.987   4.046 -0.6939 -0.6039  0.3893
 5875TIP3    H139040   5.576   6.079   4.070 -1.3484 -0.3776 -0.1203
 5875TIP3    H239041   5.476   5.965   4.075 -2.0788  0.0903 -2.8689
 5876TIP3   OH239042   5.398   0.981   6.677 -0.0618 -0.1134 -0.5348
 5876TIP3    H139043   5.376   0.888   6.681 -1.5188  0.2358 -0.0824
 5876TIP3    H239044   5.493   0.983   6.693 -0.2492 -1.3992  1.0311
 5877TIP3   OH239045   6.400   2.996   0.036 -0.7276  0.1008 -0.2299
 5877TIP3    H139046   6.440   3.055   0.100  1.0528 -0.6975 -0.5396
 5877TIP3    H239047   6.439   2.911   0.054 -1.0289 -0.3658 -1.6649
 5878TIP3   OH239048   4.522   5.631  16.687 -0.3822  0.5079  0.0389
 5878TIP3    H139049   4.533   5.606  16.596 -0.3921 -2.2107  0.6763
 5878TIP3    H239050   4.428   5.648  16.696 -0.8327 -1.6323 -0.0160
 5879TIP3   OH239051   3.509   1.526  17.089 -0.1547 -0.6010 -0.1302
 5879TIP3    H139052   3.505   1.435  17.120  0.5258 -0.6083 -0.0372
 5879TIP3    H239053   3.582   1.564  17.138  2.8796 -1.3541 -3.5352
 5880TIP3   OH239054   1.158   3.448  13.284 -0.2254  0.3883 -0.3802
 5880TIP3    H139055   1.154   3.419  13.193 -2.4069 -1.0042  0.0985
 5880TIP3    H239056   1.093   3.518  13.289 -0.1010  0.4692  0.1231
 5881TIP3   OH239057   1.865   0.151   5.256  0.6554  0.6733  0.0668
 5881TIP3    H139058   1.894   0.231   5.212  1.0596  0.1948 -0.5364
 5881TIP3    H239059   1.944   0.115   5.296  0.6919 -0.0476 -0.6508
 5882TIP3   OH239060   4.798   0.002  11.039 -0.0748 -0.3198 -0.1964
 5882TIP3    H139061   4.810   0.093  11.011 -0.9386 -0.5523 -1.3539
 5882TIP3    H239062   4.712   0.001  11.081  1.0350 -0.0491  2.3397
 5883TIP3   OH239063   1.589   0.797  16.188  0.0201 -0.9795  0.1583
 5883TIP3    H139064   1.504   0.796  16.234 -1.9689 -2.0703 -3.1819
 5883TIP3    H239065   1.580   0.730  16.121  3.0330 -0.0747 -1.2867
 5884TIP3   OH239066   3.817   1.538  17.094  0.1866  0.7125 -0.2769
 5884TIP3    H139067   3.806   1.600  17.022  3.7020  0.7455 -0.9709
 5884TIP3    H239068   3.847   1.591  17.168  0.5867  0.2155 -0.0684
 5885TIP3   OH239069   4.940   5.466   3.351 -0.3138  0.1077 -0.2650
 5885TIP3    H139070   5.035   5.460   3.362 -0.2444 -0.8168 -1.1773
 5885TIP3    H239071   4.915   5.545   3.398  1.1047  1.1719 -1.2099
 5886TIP3   OH239072   3.965   6.096  15.336 -0.4040  0.2017  0.0191
 5886TIP3    H139073   3.988   6.008  15.366 -0.4127 -0.8711 -2.7955
 5886TIP3    H239074   3.963   6.149  15.415  0.6892 -2.0878  1.6841
 5887TIP3   OH239075   6.596   6.381   3.731  0.0499  0.1408 -0.1560
 5887TIP3    H139076   6.658   6.416   3.668  0.7440  0.2479  0.5667
 5887TIP3    H239077   6.510   6.406   3.697  0.4372  0.6813 -0.7566
 5888TIP3   OH239078   1.943   0.846  13.451 -0.0523 -0.1773 -0.4301
 5888TIP3    H139079   1.860   0.892  13.468 -0.0597 -0.5345  0.5687
 5888TIP3    H239080   1.925   0.755  13.474  0.5311 -0.3156 -0.5103
 5889TIP3   OH239081   0.927   3.448   0.905 -0.2370 -0.1792 -0.3159
 5889TIP3    H139082   0.980   3.526   0.890 -1.0750  0.0663 -2.2271
 5889TIP3    H239083   0.843   3.482   0.937 -1.5422  0.0133 -3.5900
 5890TIP3   OH239084   0.630   1.347  11.788  0.0533  0.3795  0.1718
 5890TIP3    H139085   0.635   1.384  11.877  0.6632  1.0078 -0.1138
 5890TIP3    H239086   0.687   1.271  11.791  2.0498  1.7787 -0.3179
 5891TIP3   OH239087   4.228   0.079   4.299  0.1243  0.1790 -0.4446
 5891TIP3    H139088   4.294   0.018   4.266 -1.0164  0.2622 -3.0920
 5891TIP3    H239089   4.145   0.034   4.286 -0.6304  1.7016 -1.0931
 5892TIP3   OH239090   1.594   6.530  14.438  0.4276 -0.4768  0.4965
 5892TIP3    H139091   1.609   6.575  14.520 -2.4848  1.1433  0.2373
 5892TIP3    H239092   1.540   6.454  14.460 -0.9557  0.3507  0.0227
 5893TIP3   OH239093   5.304   6.044  12.868  0.2927  0.1889 -0.6617
 5893TIP3    H139094   5.222   5.994  12.874  0.3822  0.0907 -0.2187
 5893TIP3    H239095   5.293   6.098  12.790  0.2960 -0.6962 -1.2893
 5894TIP3   OH239096   1.655   2.695  16.598  0.6235  0.4208 -0.2066
 5894TIP3    H139097   1.583   2.649  16.554  0.2671 -0.9276  1.6261
 5894TIP3    H239098   1.612   2.768  16.643  0.3738 -0.3253  0.8049
 5895TIP3   OH239099   4.054   6.377   2.507  0.7916  0.1082 -0.2941
 5895TIP3    H139100   4.084   6.289   2.487  0.1007 -0.0570 -0.6555
 5895TIP3    H239101   4.127   6.434   2.483  1.2514 -0.3637 -0.0363
 5896TIP3   OH239102   1.874   6.089  15.904 -0.8120  0.0009 -0.1009
 5896TIP3    H139103   1.810   6.146  15.947 -0.3296 -0.0732  0.7386
 5896TIP3    H239104   1.902   6.029  15.973 -0.6000 -0.6315 -0.7283
 5897TIP3   OH239105   0.348   5.284  15.753 -0.4508  0.0346 -0.3981
 5897TIP3    H139106   0.416   5.313  15.693 -0.0692 -2.2396 -1.1667
 5897TIP3    H239107   0.367   5.329  15.835 -0.1326  2.1053 -1.5199
 5898TIP3   OH239108   2.761   2.213   4.184  0.3015 -0.0424  0.2204
 5898TIP3    H139109   2.717   2.270   4.248  0.5617  1.4327 -0.8656
 5898TIP3    H239110   2.854   2.237   4.191  0.2821  0.4570 -0.9865
 5899TIP3   OH239111   3.290   0.372  11.311 -0.4211  0.4598 -0.5990
 5899TIP3    H139112   3.215   0.428  11.327 -1.5716 -0.7113 -1.6057
 5899TIP3    H239113   3.254   0.297  11.263  1.2268 -0.6089 -0.2529
 5900TIP3   OH239114   1.780   6.538   4.892  0.3449 -0.0181  0.1068
 5900TIP3    H139115   1.823   6.613   4.850  1.2962 -0.5525  0.1114
 5900TIP3    H239116   1.763   6.568   4.982 -0.1193  0.5136 -0.1528
 5901TIP3   OH239117   3.441   0.515   0.972  0.1773  0.1120 -0.4877
 5901TIP3    H139118   3.451   0.423   0.997 -1.2536 -0.1414 -0.7754
 5901TIP3    H239119   3.527   0.554   0.990  0.6894 -1.1843  0.0042
 5902TIP3   OH239120   3.089   6.367   4.216 -0.1642  0.5808 -0.1807
 5902TIP3    H139121   3.000   6.336   4.199  0.7311 -2.2057 -0.3153
 5902TIP3    H239122   3.097   6.368   4.311 -0.1353  0.1177 -0.1754
 5903TIP3   OH239123   0.844   5.743  16.220 -0.1722 -0.4731 -0.2571
 5903TIP3    H139124   0.800   5.811  16.169  1.6145  1.1683  0.2699
 5903TIP3    H239125   0.787   5.731  16.297 -0.1296  1.0848  0.0676
 5904TIP3   OH239126   0.862   3.833   4.986 -0.1659 -0.0696 -0.0196
 5904TIP3    H139127   0.868   3.747   4.944 -0.9661  0.4882 -1.3638
 5904TIP3    H239128   0.932   3.884   4.946  0.7147 -0.2534  1.2406
 5905TIP3   OH239129   4.262   0.154  17.200 -0.0172 -0.9491  0.1026
 5905TIP3    H139130   4.317   0.223  17.236  0.6199 -1.8978  1.0154
 5905TIP3    H239131   4.211   0.197  17.131 -0.7550  0.7900  1.6332
 5906TIP3   OH239132   4.800   3.171  11.712  0.2411 -0.0305 -0.0293
 5906TIP3    H139133   4.807   3.226  11.790  1.1163  1.4835 -1.0966
 5906TIP3    H239134   4.712   3.135  11.716 -0.1101  0.8738  1.1174
 5907TIP3   OH239135   2.967   6.024  16.565 -0.2694  0.5986 -0.5077
 5907TIP3    H139136   2.974   5.961  16.637 -1.9449 -0.4730 -1.2397
 5907TIP3    H239137   3.053   6.020  16.522  0.9022  1.5053  1.5552
 5908TIP3   OH239138   2.876   4.673  14.680 -0.1336  0.2080  0.3849
 5908TIP3    H139139   2.806   4.640  14.737  0.0418  0.4641  0.7558
 5908TIP3    H239140   2.953   4.624  14.706  0.2256  1.1706  1.2315
 5909TIP3   OH239141   2.997   2.927   5.958 -0.2857  0.2591 -0.4685
 5909TIP3    H139142   2.961   2.850   5.914 -2.3661  2.1508 -2.3287
 5909TIP3    H239143   3.030   2.893   6.042 -1.6424 -2.5304 -0.9380
 5910TIP3   OH239144   0.255   3.313   2.766 -0.2862 -0.6485  0.0659
 5910TIP3    H139145   0.213   3.394   2.793 -1.3671 -1.4876  1.0033
 5910TIP3    H239146   0.346   3.337   2.749 -0.8361  0.9650 -0.7874
 5911TIP3   OH239147   6.080   2.477   3.586  0.3609 -0.3444  0.1510
 5911TIP3    H139148   6.041   2.474   3.499 -0.8616 -1.0312  0.6987
 5911TIP3    H239149   6.133   2.398   3.591 -0.3767 -0.8380  0.3767
 5912TIP3   OH239150   5.580   5.975  12.680 -0.0251 -0.1785  0.3200
 5912TIP3    H139151   5.577   5.947  12.589  1.1799 -2.3578  0.8565
 5912TIP3    H239152   5.490   5.969  12.711 -0.4247  0.4834 -0.6952
 5913TIP3   OH239153   1.764   4.381   0.659  0.1909  0.0091 -0.0545
 5913TIP3    H139154   1.723   4.305   0.617  0.0456  0.5454 -0.9039
 5913TIP3    H239155   1.842   4.398   0.606  0.3000  0.3719  0.2188
 5914TIP3   OH239156   2.507   6.170  13.881 -0.5201  0.6440 -0.5481
 5914TIP3    H139157   2.599   6.161  13.904 -0.2046  1.6016 -1.3640
 5914TIP3    H239158   2.470   6.083  13.893  0.3965  0.3394  0.1705
 5915TIP3   OH239159   0.053   6.633  17.284  0.6685 -0.1957 -1.0399
 5915TIP3    H139160   0.137   6.658  17.322 -0.3653 -0.0488  1.3662
 5915TIP3    H239161   0.001   6.713  17.285 -0.8475 -1.0867  1.5710
 5916TIP3   OH239162   0.323   3.304  14.926  0.1486  0.2735  0.2622
 5916TIP3    H139163   0.331   3.210  14.937 -0.3238 -0.1012 -2.0888
 5916TIP3    H239164   0.248   3.328  14.980 -0.8322 -1.0092 -0.4844
 5917TIP3   OH239165   6.054   4.421   4.535 -0.7247 -0.4774 -0.2841
 5917TIP3    H139166   6.067   4.328   4.514  0.3506  0.0537 -2.1997
 5917TIP3    H239167   5.975   4.446   4.487 -0.3923 -0.1485 -0.6637
 5918TIP3   OH239168   2.199   2.478  12.645  0.1026  0.0640 -0.4478
 5918TIP3    H139169   2.158   2.460  12.729  1.0920  0.5251  0.1597
 5918TIP3    H239170   2.290   2.499  12.667  1.0283 -2.1081 -1.8288
 5919TIP3   OH239171   6.336   5.807  11.930 -0.2374 -0.3441 -0.0393
 5919TIP3    H139172   6.322   5.719  11.895 -0.0072 -0.1878 -0.5430
 5919TIP3    H239173   6.431   5.817  11.931 -0.2694  0.0033 -0.2662
 5920TIP3   OH239174   1.067   0.499  10.970 -0.2994 -0.2310  0.0271
 5920TIP3    H139175   1.063   0.506  11.066  0.4062 -0.5862  0.0919
 5920TIP3    H239176   1.156   0.469  10.952 -0.3729 -0.0123 -0.7556
 5921TIP3   OH239177   1.381   2.903  14.380  0.1051 -0.4878 -0.1206
 5921TIP3    H139178   1.310   2.865  14.329 -0.3021  1.7786 -1.3799
 5921TIP3    H239179   1.459   2.891  14.326  0.4931 -1.8103  0.6793
 5922TIP3   OH239180   2.119   1.724  13.418 -0.5616 -0.2098  0.0744
 5922TIP3    H139181   2.138   1.653  13.357  2.8795  2.3716 -2.2922
 5922TIP3    H239182   2.146   1.691  13.503  0.9467 -1.7901 -0.9440
 5923TIP3   OH239183   3.352   2.642  15.158 -0.3132  0.0330  0.1758
 5923TIP3    H139184   3.292   2.571  15.183  1.1263 -1.5483 -0.6184
 5923TIP3    H239185   3.369   2.626  15.065  2.0691 -0.1905  0.5934
 5924TIP3   OH239186   3.146   1.217   5.891 -0.1325  0.3100 -0.1698
 5924TIP3    H139187   3.145   1.144   5.829 -0.3716  0.7232 -0.6686
 5924TIP3    H239188   3.163   1.177   5.976  1.1654 -0.1611 -0.6271
 5925TIP3   OH239189   6.699   5.991   4.436 -0.3201  0.2543 -0.1755
 5925TIP3    H139190   6.617   6.035   4.461 -1.3239 -1.5662 -0.0881
 5925TIP3    H239191   6.671   5.913   4.388  1.4560  1.4453 -3.4647
 5926TIP3   OH239192   4.118   5.854   1.632 -0.4689 -0.0997  0.3293
 5926TIP3    H139193   4.082   5.935   1.595 -2.7633 -0.2004  2.1065
 5926TIP3    H239194   4.067   5.784   1.592  1.3390 -0.7447 -1.0098
 5927TIP3   OH239195   6.484   2.764  15.897 -0.2598  0.4091  0.0458
 5927TIP3    H139196   6.462   2.789  15.807 -0.0365 -0.4742 -0.2666
 5927TIP3    H239197   6.533   2.682  15.888 -2.0212 -0.8282  1.0693
 5928TIP3   OH239198   3.226   5.724  14.238  0.4065 -0.2913  0.4970
 5928TIP3    H139199   3.198   5.780  14.166 -1.9472 -1.5228  0.3439
 5928TIP3    H239200   3.299   5.673  14.202  1.7088  1.6751  0.2361
 5929TIP3   OH239201   4.508   1.913   2.872 -0.6498 -0.0795  0.5721
 5929TIP3    H139202   4.439   1.912   2.805 -0.0672 -0.2964 -0.0340
 5929TIP3    H239203   4.463   1.886   2.952 -0.6662 -3.6050 -0.4409
 5930TIP3   OH239204   3.487   5.881  15.150  0.4309 -0.0729 -0.1585
 5930TIP3    H139205   3.502   5.787  15.139  2.0754  0.1752 -0.4100
 5930TIP3    H239206   3.541   5.921  15.081 -0.0245  1.0628  0.1285
 5931TIP3   OH239207   1.677   1.068  16.122  0.5681  0.6709 -0.3793
 5931TIP3    H139208   1.693   0.980  16.155  1.6173  1.7114  2.1217
 5931TIP3    H239209   1.722   1.071  16.038  0.7608 -1.0731 -0.3699
 5932TIP3   OH239210   0.748   3.869  13.270 -0.5087  0.6429 -0.5636
 5932TIP3    H139211   0.751   3.929  13.344 -0.3493  0.8561 -0.7391
 5932TIP3    H239212   0.834   3.879  13.228 -0.4740  0.2763 -0.5785
 5933TIP3   OH239213   4.083   2.594   1.136  0.4222  0.2686  0.4922
 5933TIP3    H139214   4.084   2.517   1.079 -1.2761  0.4067  0.2359
 5933TIP3    H239215   4.129   2.566   1.215  1.5465 -0.3738 -0.3728
 5934TIP3   OH239216   5.907   3.883   0.465  0.0517  0.3056 -0.4477
 5934TIP3    H139217   5.921   3.796   0.427  0.7256  0.5639 -0.8070
 5934TIP3    H239218   5.987   3.901   0.515 -1.3797 -0.6429  2.3942
 5935TIP3   OH239219   1.376   4.336  15.822  0.1168 -0.0738 -0.0494
 5935TIP3    H139220   1.288   4.306  15.845  0.1304  0.0136  0.1173
 5935TIP3    H239221   1.367   4.430  15.811  0.4324  0.1093  1.1291
 5936TIP3   OH239222   4.129   4.617  11.561 -0.1069 -0.6609  0.2659
 5936TIP3    H139223   4.048   4.567  11.575  0.5680 -2.0325 -0.5930
 5936TIP3    H239224   4.191   4.581  11.624 -0.0013  0.0275  0.5623
 5937TIP3   OH239225   5.002   3.383  13.601 -0.7392 -0.7039  0.7327
 5937TIP3    H139226   4.932   3.449  13.600 -1.0705 -0.9124 -2.8912
 5937TIP3    H239227   4.958   3.301  13.579  0.5015 -0.9213 -1.1556
 5938TIP3   OH239228   1.967   6.553  15.124 -0.0608  0.7374 -0.9408
 5938TIP3    H139229   2.007   6.510  15.049  1.1669 -0.3008  0.2514
 5938TIP3    H239230   2.011   6.638  15.130  0.0465  0.7016 -1.2191
 5939TIP3   OH239231   3.564   5.793   1.223 -0.2040  0.5381 -0.3075
 5939TIP3    H139232   3.495   5.729   1.206  0.2881  0.2724 -1.3677
 5939TIP3    H239233   3.553   5.816   1.316 -0.8894 -0.4691 -0.1241
 5940TIP3   OH239234   1.720   2.462   1.871 -0.6929  0.1899  0.4576
 5940TIP3    H139235   1.693   2.404   1.943 -1.3299 -0.0116  0.0673
 5940TIP3    H239236   1.774   2.529   1.913  0.2069 -0.7860  0.8925
 5941TIP3   OH239237   5.314   3.829  17.304  0.1767 -0.0640 -0.3355
 5941TIP3    H139238   5.328   3.912  17.258  0.7773 -0.8132 -1.5808
 5941TIP3    H239239   5.345   3.763  17.242 -2.7268 -1.4211 -0.4962
 5942TIP3   OH239240   3.780   3.012   6.607 -0.2967 -0.5300  0.0594
 5942TIP3    H139241   3.859   3.060   6.631 -0.2717 -0.6552  0.2267
 5942TIP3    H239242   3.734   3.070   6.546 -2.1330  1.4024  3.0343
 5943TIP3   OH239243   4.181   1.533  14.552 -0.1224  0.2946 -0.5952
 5943TIP3    H139244   4.214   1.616  14.517 -0.2798 -0.3872 -2.4850
 5943TIP3    H239245   4.114   1.559  14.615  0.3802  1.6013 -0.5512
 5944TIP3   OH239246   4.224   1.439  17.369 -0.2096 -0.4871  0.3394
 5944TIP3    H139247   4.269   1.443  17.285  0.6018  0.7512  0.7981
 5944TIP3    H239248   4.132   1.423  17.347  0.3010 -2.3089 -0.6525
 5945TIP3   OH239249   2.568   3.210   1.373  0.2938 -0.0253  0.0340
 5945TIP3    H139250   2.550   3.302   1.354 -0.9543 -0.2517  0.0125
 5945TIP3    H239251   2.610   3.177   1.294 -1.0706  0.0556 -0.7668
 5946TIP3   OH239252   0.629   2.106  15.322  0.6843 -0.3696 -0.4628
 5946TIP3    H139253   0.664   2.054  15.249  0.8445  0.3412 -0.8967
 5946TIP3    H239254   0.705   2.151  15.357  0.2432  1.1312 -1.3611
 5947TIP3   OH239255   5.303   0.131  13.402  0.5328  0.5837  0.3467
 5947TIP3    H139256   5.288   0.137  13.496 -0.8126  0.8066  0.1428
 5947TIP3    H239257   5.342   0.215  13.379 -1.0523  1.3962  0.4180
 5948TIP3   OH239258   2.902   3.766   6.081  0.7286  0.0370 -0.4561
 5948TIP3    H139259   2.925   3.849   6.039 -1.1921  0.5205 -0.6422
 5948TIP3    H239260   2.958   3.762   6.159 -0.3337  2.3769  0.5013
 5949TIP3   OH239261   4.078   4.574   4.835  0.0506  0.6418  0.2510
 5949TIP3    H139262   4.121   4.575   4.750 -1.3405 -1.4076 -0.5568
 5949TIP3    H239263   4.124   4.507   4.885 -2.5713 -2.3283 -0.9749
 5950TIP3   OH239264   4.105   3.896  12.154  0.8029 -0.1547  0.3106
 5950TIP3    H139265   4.057   3.813  12.158 -0.6985  0.5636 -1.3483
 5950TIP3    H239266   4.172   3.881  12.087 -0.4512  0.3970 -1.1123
 5951TIP3   OH239267   5.975   5.322   0.872  0.6531  0.2458  0.2751
 5951TIP3    H139268   5.992   5.399   0.818  0.1211  1.3266  1.5799
 5951TIP3    H239269   5.900   5.347   0.926  0.9248 -0.9244  1.2449
 5952TIP3   OH239270   5.275   4.645  16.922 -0.4997 -0.8194  0.2643
 5952TIP3    H139271   5.198   4.640  16.865 -0.6445 -1.8460  0.5274
 5952TIP3    H239272   5.317   4.727  16.898 -2.1768  0.2392  0.7591
 5953TIP3   OH239273   0.768   3.616  12.452 -0.2842  0.5785 -0.2831
 5953TIP3    H139274   0.843   3.671  12.429  0.4022 -0.1171  0.2287
 5953TIP3    H239275   0.775   3.606  12.547  0.1899 -1.1835 -0.4680
 5954TIP3   OH239276   3.688   3.497   5.465 -0.2564  0.3721 -0.0756
 5954TIP3    H139277   3.647   3.449   5.394  2.6100 -2.0882 -0.2408
 5954TIP3    H239278   3.757   3.548   5.423  1.9671 -1.6797  0.8369
 5955TIP3   OH239279   2.778   4.472   3.589 -0.6621 -0.3832  0.2464
 5955TIP3    H139280   2.709   4.459   3.524  0.6813 -0.9830 -1.1205
 5955TIP3    H239281   2.754   4.554   3.633 -0.2050  1.6539 -2.9253
 5956TIP3   OH239282   6.394   2.016   1.696 -0.7853  0.3707  0.1224
 5956TIP3    H139283   6.380   2.068   1.616 -0.9855  0.7667  0.4090
 5956TIP3    H239284   6.356   2.070   1.766  1.4703  1.1394  0.8470
 5957TIP3   OH239285   3.007   6.022   3.511 -0.1167 -0.9992 -0.6490
 5957TIP3    H139286   2.964   6.097   3.552  0.4944 -1.0598  0.1150
 5957TIP3    H239287   2.951   5.947   3.534 -0.1028 -0.9455 -0.4380
 5958TIP3   OH239288   4.304   2.680  11.645 -0.3048  0.2518 -1.0099
 5958TIP3    H139289   4.230   2.629  11.611  0.3916 -1.3297 -0.2335
 5958TIP3    H239290   4.293   2.767  11.605 -2.0479 -0.2111 -1.6380
 5959TIP3   OH239291   5.444   0.994   6.416 -0.2853  0.2563  0.1887
 5959TIP3    H139292   5.421   0.975   6.508  0.4372 -1.6003  0.0439
 5959TIP3    H239293   5.394   0.930   6.366  0.8312 -0.0920 -0.5285
 5960TIP3   OH239294   1.746   5.019   5.793  0.0619  0.2240 -0.4256
 5960TIP3    H139295   1.675   5.014   5.729 -0.9067 -0.1253  0.6584
 5960TIP3    H239296   1.817   5.062   5.745 -0.6571  0.0400 -1.7155
 5961TIP3   OH239297   2.727   4.919   5.861  0.0875  0.2015  0.0010
 5961TIP3    H139298   2.785   4.914   5.785  0.8860  0.9320  0.5356
 5961TIP3    H239299   2.639   4.912   5.825  0.4780 -0.1541 -0.9147
 5962TIP3   OH239300   0.284   5.934  12.403 -0.0710 -0.1939  0.0781
 5962TIP3    H139301   0.354   5.916  12.340  0.5310 -2.0017  1.1933
 5962TIP3    H239302   0.290   5.863  12.467 -0.1776  1.9420  2.6155
 5963TIP3   OH239303   1.368   2.497   5.849  0.4065  0.1343  0.2850
 5963TIP3    H139304   1.334   2.474   5.936 -3.5525  2.2552 -0.4778
 5963TIP3    H239305   1.458   2.524   5.865  0.7647 -2.2287  3.2037
 5964TIP3   OH239306   5.729   3.531  17.033  0.1285  0.1821 -0.0438
 5964TIP3    H139307   5.794   3.479  16.986  0.9835  1.8202 -0.7533
 5964TIP3    H239308   5.749   3.622  17.010 -1.6223  0.8214  0.7360
 5965TIP3   OH239309   3.997   4.608   3.886 -0.1584  0.1417 -0.4171
 5965TIP3    H139310   3.970   4.518   3.869  0.7983 -0.2025 -0.1687
 5965TIP3    H239311   4.092   4.603   3.898 -0.2130  1.0524  0.4980
 5966TIP3   OH239312   5.680   6.141  13.933 -0.2340  0.3246 -0.6056
 5966TIP3    H139313   5.644   6.162  13.847 -0.0432  0.8311 -0.5625
 5966TIP3    H239314   5.608   6.155  13.994  0.1025  1.6225 -0.4839
 5967TIP3   OH239315   0.731   2.210   3.030  0.2680 -0.4102 -0.7560
 5967TIP3    H139316   0.741   2.292   2.983  0.5138 -0.1636 -0.2765
 5967TIP3    H239317   0.797   2.152   2.991 -0.2679 -0.5566 -1.4639
 5968TIP3   OH239318   5.032   3.679   0.938 -0.2515 -0.0595  0.2492
 5968TIP3    H139319   5.092   3.652   1.008 -2.1506 -1.3682  1.4487
 5968TIP3    H239320   4.952   3.704   0.983 -0.4516  2.3993 -1.2636
 5969TIP3   OH239321   1.849   4.134  15.125  0.0670  0.0302 -0.2143
 5969TIP3    H139322   1.923   4.165  15.073 -0.0435  1.5183  0.4663
 5969TIP3    H239323   1.773   4.150  15.069  0.0816  0.3835 -0.1398
 5970TIP3   OH239324   3.151   4.646  12.372  0.0348 -0.3667 -0.2937
 5970TIP3    H139325   3.236   4.689  12.367 -0.8186  1.2772 -2.3349
 5970TIP3    H239326   3.158   4.586  12.447  2.5220  0.6415  0.3698
 5971TIP3   OH239327   5.445   5.445   5.303 -0.3465  0.1262  0.0827
 5971TIP3    H139328   5.416   5.531   5.272  0.5984  0.6390  0.6026
 5971TIP3    H239329   5.363   5.396   5.315 -0.9544  1.2452  0.6514
 5972TIP3   OH239330   6.648   4.198  17.485 -0.1049 -0.4811  0.9265
 5972TIP3    H139331   6.677   4.172  17.398  0.1676 -0.7042  1.0852
 5972TIP3    H239332   6.561   4.236  17.470  0.3088  0.3128  0.4350
 5973TIP3   OH239333   0.391   4.753  17.126 -0.1854 -0.0173 -0.0585
 5973TIP3    H139334   0.484   4.776  17.129  0.0893 -0.9700 -0.8311
 5973TIP3    H239335   0.359   4.795  17.046 -0.7279  1.3257  0.8235
 5974TIP3   OH239336   3.464   4.039   0.904 -0.4470 -0.2116 -0.6762
 5974TIP3    H139337   3.550   4.011   0.873 -0.3472  0.7102 -1.2698
 5974TIP3    H239338   3.480   4.122   0.948 -1.1557  0.4649 -1.6504
 5975TIP3   OH239339   5.788   0.969  17.039  0.3119  0.1215  0.3156
 5975TIP3    H139340   5.835   0.963  17.122  1.4882 -2.4168 -0.4087
 5975TIP3    H239341   5.856   0.959  16.972 -1.0312 -2.9931 -0.7858
 5976TIP3   OH239342   1.482   2.566  11.909 -0.4988  0.5081 -0.2270
 5976TIP3    H139343   1.508   2.500  11.845  0.0066  0.3588  0.1323
 5976TIP3    H239344   1.564   2.604  11.940 -0.6022 -0.6775  1.6623
 5977TIP3   OH239345   5.417   2.979  11.219  0.3565  0.6092  0.1062
 5977TIP3    H139346   5.402   3.050  11.157  0.9809  0.0657 -0.6780
 5977TIP3    H239347   5.512   2.980  11.234  0.2282  0.6563  0.9627
 5978TIP3   OH239348   4.034   5.503  14.567 -0.1795 -0.6575  0.6432
 5978TIP3    H139349   3.939   5.501  14.563 -0.1514 -0.2849 -1.4337
 5978TIP3    H239350   4.062   5.443  14.498  1.0915 -0.4985  0.9964
 5979TIP3   OH239351   0.447   0.807   0.661  0.4307  0.0681 -0.3241
 5979TIP3    H139352   0.459   0.715   0.637 -2.7598 -0.2245 -1.2742
 5979TIP3    H239353   0.433   0.852   0.577 -0.9570  0.8757  0.3182
 5980TIP3   OH239354   2.191   3.567  11.957  0.0733  0.4448  0.3626
 5980TIP3    H139355   2.196   3.535  12.047  2.6841 -1.0255 -0.2026
 5980TIP3    H239356   2.275   3.609  11.941 -0.4614  0.9968 -1.2947
 5981TIP3   OH239357   2.520   4.657  16.632  0.1592 -0.5055  0.5172
 5981TIP3    H139358   2.534   4.567  16.601 -0.7050 -1.6855  3.2532
 5981TIP3    H239359   2.575   4.664  16.709 -2.5132 -0.0188  2.5008
 5982TIP3   OH239360   5.819   2.287   0.595  0.2380 -0.4241  0.2661
 5982TIP3    H139361   5.847   2.379   0.593 -0.6365 -0.1233  1.0431
 5982TIP3    H239362   5.900   2.237   0.580  0.9362  0.4382  1.0112
 5983TIP3   OH239363   6.215   4.805  16.526 -0.0845 -0.3500  0.2711
 5983TIP3    H139364   6.133   4.832  16.567 -1.2414 -1.9387 -0.8469
 5983TIP3    H239365   6.191   4.730  16.472  2.2772 -1.3579  0.4977
 5984TIP3   OH239366   1.250   5.609   5.781  0.4740  0.1600  0.0336
 5984TIP3    H139367   1.221   5.700   5.775  0.4953  0.0781 -2.5177
 5984TIP3    H239368   1.313   5.608   5.853 -1.0505  1.6828  1.4753
 5985TIP3   OH239369   1.257   0.253   2.044  0.2680 -0.0348  0.3035
 5985TIP3    H139370   1.257   0.218   1.955 -0.7137  0.1918  0.1953
 5985TIP3    H239371   1.264   0.348   2.032 -3.0916  0.3435  0.2267
 5986TIP3   OH239372   0.113   4.910   3.980  0.3999 -0.5888 -0.2068
 5986TIP3    H139373   0.036   4.858   3.957  0.4064 -0.7437  0.1239
 5986TIP3    H239374   0.176   4.891   3.910  0.2599 -0.7238 -0.2976
 5987TIP3   OH239375   4.613   2.757   1.389 -0.2267 -0.1471  0.5059
 5987TIP3    H139376   4.523   2.789   1.382 -0.1281  0.0393  0.0239
 5987TIP3    H239377   4.611   2.695   1.462 -1.3446 -2.1253 -1.0879
 5988TIP3   OH239378   5.239   6.454   3.123 -0.1187 -0.2256  0.4927
 5988TIP3    H139379   5.252   6.524   3.058  0.8708  1.2561  2.1852
 5988TIP3    H239380   5.318   6.402   3.118  0.2474  0.2784  0.9435
 5989TIP3   OH239381   5.915   2.437   3.355 -0.2441  0.5871  0.0613
 5989TIP3    H139382   5.826   2.408   3.339 -0.4571  1.7653 -1.0047
 5989TIP3    H239383   5.967   2.397   3.285 -0.1457  0.8424 -0.0157
 5990TIP3   OH239384   5.449   2.433   2.589 -0.2260  0.4738  0.1912
 5990TIP3    H139385   5.516   2.415   2.523 -1.2729 -1.4188 -0.4341
 5990TIP3    H239386   5.367   2.411   2.546 -1.0514  0.4682  1.7150
 5991TIP3   OH239387   5.152   2.883   2.140  0.0185  0.3300  0.0899
 5991TIP3    H139388   5.131   2.976   2.151 -1.3693 -0.2308  3.5171
 5991TIP3    H239389   5.067   2.840   2.130  0.2309 -0.8699  2.5456
 5992TIP3   OH239390   4.914   4.085   0.514  0.3686  0.2545  1.1352
 5992TIP3    H139391   4.977   4.021   0.481  0.3873 -0.3954  2.3432
 5992TIP3    H239392   4.868   4.038   0.585 -2.9593 -0.0196 -1.0083
 5993TIP3   OH239393   4.134   4.810  15.159  0.4842  0.3878  0.1121
 5993TIP3    H139394   4.146   4.723  15.120  0.4494  0.7608 -0.7613
 5993TIP3    H239395   4.200   4.864  15.116  0.4534  0.8133  0.5946
 5994TIP3   OH239396   3.552   4.263  13.762 -0.1331 -0.2503  0.1990
 5994TIP3    H139397   3.564   4.169  13.773  0.8228 -0.1129  0.4326
 5994TIP3    H239398   3.494   4.289  13.834  0.6261 -0.4621  0.9014
 5995TIP3   OH239399   3.480   6.654  16.025 -0.3242  0.3516 -0.7316
 5995TIP3    H139400   3.513   6.652  16.115  0.7247 -2.4391 -1.0931
 5995TIP3    H239401   3.385   6.659  16.035 -0.2444 -0.3673  0.5523
 5996TIP3   OH239402   2.368   0.565   0.969  0.5815  0.6072 -0.2543
 5996TIP3    H139403   2.449   0.520   0.994  0.8676  1.4303  0.3127
 5996TIP3    H239404   2.298   0.509   1.003  0.9458  1.0335  1.2593
 5997TIP3   OH239405   1.666   2.054  16.021 -0.0838 -0.1155  0.2537
 5997TIP3    H139406   1.696   1.974  16.065  0.7964 -0.4943 -0.9688
 5997TIP3    H239407   1.578   2.068  16.055 -0.9765 -2.6224 -0.7213
 5998TIP3   OH239408   6.028   1.532  16.490 -0.0686 -0.0735  0.1709
 5998TIP3    H139409   6.002   1.449  16.452  3.6186 -0.4992 -1.8576
 5998TIP3    H239410   6.101   1.510  16.548  0.8799  1.6684 -0.2851
 5999TIP3   OH239411   4.958   3.315  11.918 -0.0677  0.1745  0.2996
 5999TIP3    H139412   5.020   3.325  11.845  1.0788  2.2833  1.4578
 5999TIP3    H239413   5.005   3.260  11.981 -0.4016 -0.3012  0.1346
 6000TIP3   OH239414   4.043   0.778  16.130 -0.0171 -0.5292 -0.3706
 6000TIP3    H139415   4.073   0.751  16.217  1.8403  0.0424 -0.7913
 6000TIP3    H239416   3.949   0.789  16.140 -0.2955 -3.2531  0.8202
 6001TIP3   OH239417   4.617   3.546  10.356  0.0823 -0.0716  0.0033
 6001TIP3    H139418   4.687   3.488  10.386 -1.2110 -0.8878  1.5660
 6001TIP3    H239419   4.598   3.602  10.431 -1.4281 -0.3628 -0.1326
 6002TIP3   OH239420   2.095   3.893   6.340 -0.2081  0.6198 -0.6672
 6002TIP3    H139421   2.076   3.980   6.376  0.4893  0.8336 -0.8125
 6002TIP3    H239422   2.169   3.861   6.391 -2.7884 -1.5745  2.0922
 6003TIP3   OH239423   3.647   4.788   3.576  0.2882 -0.1856 -0.5458
 6003TIP3    H139424   3.611   4.744   3.653 -0.8719 -0.9873 -1.5194
 6003TIP3    H239425   3.624   4.880   3.588 -0.6813 -0.4436 -0.3589
 6004TIP3   OH239426   1.767   4.811  13.341  0.5474  0.4349 -0.1169
 6004TIP3    H139427   1.798   4.733  13.294  0.8256  1.2004 -1.2640
 6004TIP3    H239428   1.848   4.856  13.367  0.4070 -0.2729  1.6697
 6005TIP3   OH239429   3.037   0.977  13.929 -0.0091  0.1276  0.5640
 6005TIP3    H139430   3.035   0.892  13.974  0.1545 -0.9810 -1.3752
 6005TIP3    H239431   2.972   0.968  13.859  1.0408  1.0506 -0.5722
 6006TIP3   OH239432   6.450   0.078   5.528 -0.0443 -0.7271 -0.1509
 6006TIP3    H139433   6.451   0.003   5.586  1.0149 -0.2005  0.5390
 6006TIP3    H239434   6.458   0.040   5.440 -1.0876 -1.4901  0.0631
 6007TIP3   OH239435   1.135   3.866   5.232  0.2524 -0.3065  0.1068
 6007TIP3    H139436   1.195   3.835   5.164  0.3892  0.5686 -0.1835
 6007TIP3    H239437   1.192   3.897   5.302  0.1353  0.1623 -0.0028
 6008TIP3   OH239438   0.318   5.877  16.975 -0.1087 -0.0734  0.1646
 6008TIP3    H139439   0.305   5.937  16.902 -2.3259  0.1049  0.6288
 6008TIP3    H239440   0.307   5.790  16.938 -1.2488  0.0177  0.2641
 6009TIP3   OH239441   6.279   2.094   1.918 -0.2104 -0.3139 -0.0461
 6009TIP3    H139442   6.350   2.097   1.982 -0.2071  0.2317 -0.0683
 6009TIP3    H239443   6.219   2.162   1.946 -1.1715 -1.3543  0.4761
 6010TIP3   OH239444   4.036   5.533  14.151  0.2971  0.2975 -0.0829
 6010TIP3    H139445   3.961   5.585  14.121  1.1457  0.8465 -1.3387
 6010TIP3    H239446   4.112   5.580  14.118  1.1075 -1.6347 -1.1215
 6011TIP3   OH239447   5.815   4.209  13.377  0.0706 -0.0576 -0.0989
 6011TIP3    H139448   5.732   4.230  13.420 -0.7545 -0.8398 -1.2466
 6011TIP3    H239449   5.795   4.132  13.323  1.7005 -0.6349  0.0617
 6012TIP3   OH239450   5.461   2.543   0.389 -0.8785  0.4994  0.7846
 6012TIP3    H139451   5.469   2.574   0.479 -2.0568  0.9800  0.7301
 6012TIP3    H239452   5.397   2.473   0.393 -1.6193  1.1272  0.1835
 6013TIP3   OH239453   4.666   5.039  11.901  0.1727  0.0314  0.6446
 6013TIP3    H139454   4.596   5.053  11.838 -1.1531 -0.6275  1.9098
 6013TIP3    H239455   4.724   5.115  11.890 -0.4128  0.3021 -0.8089
 6014TIP3   OH239456   2.032   0.416  14.164  0.7970 -0.9207 -0.3841
 6014TIP3    H139457   2.080   0.436  14.084  1.5906 -0.6880  0.1427
 6014TIP3    H239458   2.086   0.451  14.235 -0.6585  0.3031  0.1759
 6015TIP3   OH239459   4.507   6.106  15.026  0.2278  0.0978  0.3669
 6015TIP3    H139460   4.420   6.133  15.054 -0.5180 -1.3103 -0.4703
 6015TIP3    H239461   4.521   6.152  14.943  0.1059  0.0041  0.2945
 6016TIP3   OH239462   0.763   1.840  16.029  0.0070 -0.4378 -0.2901
 6016TIP3    H139463   0.760   1.790  16.111  1.0252  0.1717  0.1318
 6016TIP3    H239464   0.852   1.831  15.998  0.0349  0.5756 -0.5414
 6017TIP3   OH239465   6.437   0.717  15.678 -0.1516  0.3373  0.1458
 6017TIP3    H139466   6.456   0.642  15.735 -0.1771  0.4486  0.2999
 6017TIP3    H239467   6.489   0.788  15.715  0.3300  0.2479 -0.3439
 6018TIP3   OH239468   3.209   2.558   1.012  0.1668  0.1607 -0.2869
 6018TIP3    H139469   3.183   2.571   0.921  0.3098  0.1290 -0.3333
 6018TIP3    H239470   3.200   2.463   1.025 -1.6184  0.3803  0.2803
 6019TIP3   OH239471   1.321   4.585  12.627  0.6421 -0.8646 -0.2523
 6019TIP3    H139472   1.243   4.637  12.607  0.1160 -1.3140  0.5743
 6019TIP3    H239473   1.336   4.534  12.547  0.1849 -0.6448 -0.4825
 6020TIP3   OH239474   2.966   6.161  13.295 -0.1133  0.0990  0.0818
 6020TIP3    H139475   2.995   6.246  13.260  0.8650 -0.7451 -1.3019
 6020TIP3    H239476   2.871   6.167  13.298 -0.1707  0.6424 -1.7203
 6021TIP3   OH239477   5.048   4.694   2.221  0.0313  0.5809  0.2049
 6021TIP3    H139478   5.003   4.659   2.298  1.0405  2.2042  1.5976
 6021TIP3    H239479   5.117   4.629   2.201 -1.0463 -0.4868 -0.1869
 6022TIP3   OH239480   1.661   1.296  12.688 -0.2742  0.2426  0.3142
 6022TIP3    H139481   1.653   1.292  12.593  0.4702  0.5477  0.2318
 6022TIP3    H239482   1.755   1.285  12.705 -0.4620 -0.3309  1.0438
 6023TIP3   OH239483   2.553   4.790  16.300 -0.6038 -0.1614 -0.6335
 6023TIP3    H139484   2.610   4.732  16.249 -1.2186 -0.6949 -0.7157
 6023TIP3    H239485   2.469   4.746  16.302 -1.4493  1.3011 -1.7764
 6024TIP3   OH239486   2.330   0.804  17.315  0.1715  0.5249 -0.1065
 6024TIP3    H139487   2.289   0.839  17.236  2.0444 -0.2570 -1.4982
 6024TIP3    H239488   2.424   0.817  17.301  0.6041 -0.5006  1.5726
 6025TIP3   OH239489   6.143   5.378   0.249 -0.1781  0.3045 -0.0455
 6025TIP3    H139490   6.052   5.390   0.222 -0.8105 -1.0817  1.3003
 6025TIP3    H239491   6.140   5.375   0.345  1.1647 -0.5862  0.0036
 6026TIP3   OH239492   1.011   0.625  16.766 -0.6123  0.1668  0.2674
 6026TIP3    H139493   1.028   0.531  16.775 -0.3758  0.1557 -0.2510
 6026TIP3    H239494   1.046   0.663  16.846 -0.2397 -0.1334  0.2538
 6027TIP3   OH239495   0.998   4.423  13.001 -0.5165  0.2764 -0.4414
 6027TIP3    H139496   0.957   4.345  13.039  1.7660  0.6043  3.1184
 6027TIP3    H239497   1.027   4.394  12.914 -3.7335 -1.3331 -1.1735
 6028TIP3   OH239498   5.440   3.163  10.996  0.1200 -0.1197  0.1052
 6028TIP3    H139499   5.505   3.131  10.934  1.1029  0.7596  0.6520
 6028TIP3    H239500   5.381   3.218  10.944  1.5757  1.5170  0.0844
 6029TIP3   OH239501   3.877   1.989  13.568  0.4412 -0.1943  0.4893
 6029TIP3    H139502   3.930   1.921  13.527 -0.5372  0.0621 -1.3269
 6029TIP3    H239503   3.823   2.024  13.497 -1.2423  0.4245  1.9727
 6030TIP3   OH239504   6.170   5.824   4.453  0.2192 -0.7034  0.0861
 6030TIP3    H139505   6.113   5.899   4.437 -0.6962 -1.5784 -1.0213
 6030TIP3    H239506   6.214   5.844   4.536 -0.4904  0.7379  0.1518
 6031TIP3   OH239507   2.319   2.513  16.956  0.4119 -0.0115 -0.2207
 6031TIP3    H139508   2.353   2.581  17.014 -0.9657  0.3997  0.1484
 6031TIP3    H239509   2.393   2.455  16.941  1.3858  1.0918  0.1634
 6032TIP3   OH239510   5.081   5.700   5.240  0.3945  0.4138 -0.1162
 6032TIP3    H139511   5.081   5.757   5.162  0.1874  0.8663  0.2070
 6032TIP3    H239512   5.016   5.633   5.220 -0.6938  1.3206  0.2117
 6033TIP3   OH239513   5.435   1.338   4.068 -0.1212  0.5516 -0.1458
 6033TIP3    H139514   5.441   1.431   4.088  0.9021  1.4795 -3.9751
 6033TIP3    H239515   5.496   1.325   3.996  0.3948 -3.3263  0.7432
 6034TIP3   OH239516   1.090   1.258   4.309  0.5506  0.3965  0.1600
 6034TIP3    H139517   1.091   1.353   4.298 -2.5349  0.7069  1.4626
 6034TIP3    H239518   1.045   1.225   4.231 -1.1551  0.4033  1.0768
 6035TIP3   OH239519   2.213   2.499   4.974 -0.1990  0.0384  0.4052
 6035TIP3    H139520   2.185   2.569   5.032  0.9718  0.3385  0.6383
 6035TIP3    H239521   2.140   2.487   4.914 -1.1579  0.1954  1.4986
 6036TIP3   OH239522   5.236   1.814   3.552  0.3139 -0.1207 -0.0372
 6036TIP3    H139523   5.230   1.898   3.506  0.4344  0.3027  0.6979
 6036TIP3    H239524   5.303   1.765   3.505 -0.0915  0.0039 -0.7620
 6037TIP3   OH239525   3.667   5.586   0.009  0.3810 -0.6299 -0.5128
 6037TIP3    H139526   3.686   5.595   0.102 -2.2608  0.0045  0.0590
 6037TIP3    H239527   3.699   5.668  -0.030  1.2038 -0.7578 -0.1093
 6038TIP3   OH239528   4.030   2.970   2.665  0.1444  0.4857  0.1643
 6038TIP3    H139529   4.000   3.024   2.592  1.7192 -1.3400 -1.9411
 6038TIP3    H239530   4.086   3.029   2.716 -0.2920  1.5709 -0.5674
 6039TIP3   OH239531   1.862   5.110   6.431 -0.5161  0.2863 -0.0393
 6039TIP3    H139532   1.920   5.183   6.406  0.4085  0.1604  1.5337
 6039TIP3    H239533   1.915   5.032   6.419 -1.0599 -0.0128 -0.4950
 6040TIP3   OH239534   1.251   6.287  11.521  0.0048  0.3824  0.1331
 6040TIP3    H139535   1.193   6.231  11.572 -1.1209 -0.1127 -1.5969
 6040TIP3    H239536   1.273   6.234  11.444  1.9190  0.9695  0.2214
 6041TIP3   OH239537   0.858   0.285   5.885 -0.4447 -0.2287 -0.5274
 6041TIP3    H139538   0.853   0.380   5.892  1.1821  0.1209 -2.7794
 6041TIP3    H239539   0.815   0.265   5.801  1.7583 -1.0923 -1.5230
 6042TIP3   OH239540   2.367   2.887  11.140 -0.2108 -0.1606 -0.0664
 6042TIP3    H139541   2.326   2.912  11.223 -0.7206  0.6022 -0.5365
 6042TIP3    H239542   2.393   2.970  11.100  0.4523 -0.5464 -0.4664
 6043TIP3   OH239543   6.211   1.177   4.596 -0.3229  0.0515 -0.2050
 6043TIP3    H139544   6.217   1.191   4.502 -4.9424 -0.0596 -0.7455
 6043TIP3    H239545   6.245   1.088   4.609 -2.4711 -1.1885 -2.3661
 6044TIP3   OH239546   4.260   1.487  13.676  0.3090  0.6206 -0.0547
 6044TIP3    H139547   4.192   1.545  13.710 -0.8578  0.8496 -2.5399
 6044TIP3    H239548   4.229   1.398  13.695  0.0489  0.7525  0.1294
 6045TIP3   OH239549   4.120   0.459  16.239  0.0097  0.3770 -0.1147
 6045TIP3    H139550   4.210   0.492  16.235 -0.1351  0.6615 -1.1665
 6045TIP3    H239551   4.067   0.535  16.262  0.1617 -0.0527  1.8096
 6046TIP3   OH239552   5.357   3.456   2.523  0.1723  0.0421  0.3901
 6046TIP3    H139553   5.313   3.522   2.576 -0.9142 -0.2669 -0.1084
 6046TIP3    H239554   5.451   3.471   2.539 -0.1223 -0.0710  2.3998
 6047TIP3   OH239555   2.259   4.421  11.982 -0.1537  0.8017 -0.3626
 6047TIP3    H139556   2.273   4.374  12.064 -2.0575 -0.2865 -0.5958
 6047TIP3    H239557   2.346   4.455  11.959  0.8933 -0.8260  0.9097
 6048TIP3   OH239558   0.992   1.563  16.184 -0.4629  0.7838  1.0176
 6048TIP3    H139559   1.083   1.574  16.211 -0.4074  0.2005  1.0825
 6048TIP3    H239560   0.941   1.614  16.248 -0.2490  0.3790  1.5153
 6049TIP3   OH239561   5.406   4.015  14.737  0.2000  0.6617 -0.3054
 6049TIP3    H139562   5.361   4.082  14.789  1.1061  1.6418 -0.7357
 6049TIP3    H239563   5.384   4.037  14.646 -0.0464 -0.0438 -0.4201
 6050TIP3   OH239564   3.773   4.903  13.837 -0.3586 -1.0970 -0.5906
 6050TIP3    H139565   3.781   4.965  13.910 -0.2035 -0.4598 -1.1445
 6050TIP3    H239566   3.863   4.888  13.809 -0.5019 -0.1800 -1.6056
 6051TIP3   OH239567   4.126   3.217   5.638  0.1746  0.6574 -0.5602
 6051TIP3    H139568   4.069   3.233   5.713  2.0795  0.4601  1.0133
 6051TIP3    H239569   4.177   3.139   5.662 -0.4894 -0.5976 -2.9124
 6052TIP3   OH239570   5.353   0.365  15.679 -0.1238 -0.4227 -0.2196
 6052TIP3    H139571   5.409   0.302  15.634 -0.8017 -1.4058  0.2706
 6052TIP3    H239572   5.272   0.366  15.627 -0.4198 -0.5829  0.2305
 6053TIP3   OH239573   0.785   6.315   3.539 -0.3382  0.0655 -0.0796
 6053TIP3    H139574   0.774   6.307   3.634  0.4848  0.0191  0.0228
 6053TIP3    H239575   0.697   6.308   3.503 -0.7492  0.9238  0.7422
 6054TIP3   OH239576   6.634   0.851   4.134 -0.1350 -0.6020  0.1249
 6054TIP3    H139577   6.644   0.828   4.227 -1.1386 -1.8937 -0.0509
 6054TIP3    H239578   6.724   0.858   4.101  0.2352  0.0726  1.2297
 6055TIP3   OH239579   1.800   0.843  16.340 -0.1670  0.3609 -0.0187
 6055TIP3    H139580   1.725   0.828  16.282  0.6039  1.1783 -1.2634
 6055TIP3    H239581   1.836   0.756  16.355 -1.4741 -0.0696  0.7689
 6056TIP3   OH239582   6.147   5.468   2.375  0.2246 -0.2818 -0.4581
 6056TIP3    H139583   6.180   5.541   2.323 -0.5490 -0.0040 -0.5810
 6056TIP3    H239584   6.215   5.401   2.370  2.5197  1.6098  2.3251
 6057TIP3   OH239585   6.526   5.235  17.263  0.4398  0.4163  0.4654
 6057TIP3    H139586   6.473   5.162  17.294 -0.6192  0.6551 -0.7087
 6057TIP3    H239587   6.517   5.302  17.332  0.2727 -0.0234  0.8776
 6058TIP3   OH239588   3.828   3.865   3.602  0.3012  0.7390  0.6134
 6058TIP3    H139589   3.749   3.822   3.634 -0.3208  1.8756  0.6723
 6058TIP3    H239590   3.804   3.898   3.515  0.7901  0.8845  0.5301
 6059TIP3   OH239591   0.686   1.152  14.298  0.2044 -0.1828  0.3868
 6059TIP3    H139592   0.657   1.063  14.279  3.3366 -1.2584  0.0060
 6059TIP3    H239593   0.674   1.161  14.393  0.2358 -1.1956  0.5000
 6060TIP3   OH239594   1.664   0.998  14.285 -0.4580 -0.4099  0.0775
 6060TIP3    H139595   1.640   1.038  14.201  0.7651  1.3765  0.5104
 6060TIP3    H239596   1.650   1.068  14.349 -1.0258 -1.6294  1.3440
 6061TIP3   OH239597   3.282   5.605  15.849 -0.6922 -0.1931 -0.1718
 6061TIP3    H139598   3.254   5.674  15.908  1.1469  1.4853 -1.1681
 6061TIP3    H239599   3.302   5.531  15.907 -2.2312  0.2247  0.9505
 6062TIP3   OH239600   3.812   0.312   3.765  0.6689  0.5006 -0.6406
 6062TIP3    H139601   3.847   0.309   3.676  0.6029  0.7061 -0.6735
 6062TIP3    H239602   3.771   0.398   3.772  0.7213  0.5064 -0.3934
 6063TIP3   OH239603   5.881   2.569   2.044 -0.1771 -0.0564  0.1277
 6063TIP3    H139604   5.790   2.563   2.075 -0.2434  2.7147  0.7069
 6063TIP3    H239605   5.880   2.639   1.979  1.1681 -1.5627 -1.6274
 6064TIP3   OH239606   3.484   4.428  13.508  0.3562 -0.1793  0.4725
 6064TIP3    H139607   3.404   4.414  13.557 -0.4931  0.8947 -0.5544
 6064TIP3    H239608   3.522   4.341  13.498 -0.8186 -0.7357  0.7396
 6065TIP3   OH239609   6.289   2.731  16.561 -0.4368  0.1557  0.2125
 6065TIP3    H139610   6.333   2.729  16.646 -0.0571  0.4718  0.0239
 6065TIP3    H239611   6.252   2.819  16.555 -1.3747 -0.2008  0.5036
 6066TIP3   OH239612   0.107   4.010  12.877 -0.2006  0.3729 -0.2362
 6066TIP3    H139613   0.039   4.010  12.944  0.2944 -0.2128  0.2828
 6066TIP3    H239614   0.163   3.935  12.899 -1.0153 -0.9494 -2.3463
 6067TIP3   OH239615   5.021   1.039   3.174  0.6463 -0.3395 -0.0814
 6067TIP3    H139616   4.986   1.125   3.153  1.4902 -0.2094 -1.0807
 6067TIP3    H239617   4.977   1.013   3.254  0.7437  1.2399  0.5140
 6068TIP3   OH239618   1.348   3.518  15.832  0.6354  0.1964 -0.3459
 6068TIP3    H139619   1.441   3.536  15.846  0.8975  1.0276 -2.6144
 6068TIP3    H239620   1.309   3.605  15.825  0.1877 -0.1043 -1.9927
 6069TIP3   OH239621   1.990   5.362   4.196 -0.1964  0.4413 -0.3000
 6069TIP3    H139622   1.971   5.351   4.289 -0.7713 -0.0436 -0.4642
 6069TIP3    H239623   1.996   5.273   4.162  0.2950  0.6142 -0.6711
 6070TIP3   OH239624   6.002   0.614  15.105  0.0072 -0.5024  0.3903
 6070TIP3    H139625   5.922   0.664  15.088  0.6512  0.4433  0.1467
 6070TIP3    H239626   6.073   0.678  15.101  0.8478 -1.4360  0.0558
 6071TIP3   OH239627   2.904   2.993  13.843 -0.1019 -0.2889  0.2995
 6071TIP3    H139628   2.980   3.033  13.885 -0.0092 -1.4648  1.3107
 6071TIP3    H239629   2.927   2.988  13.750  2.6115 -3.7131  0.9290
 6072TIP3   OH239630   3.567   1.548  12.843 -0.1906  0.4797 -0.0095
 6072TIP3    H139631   3.628   1.586  12.779 -2.1636  0.5828 -1.9716
 6072TIP3    H239632   3.517   1.623  12.876 -0.8221  0.1562 -0.2112
 6073TIP3   OH239633   4.363   6.016   1.697  0.3141  0.3143 -0.1298
 6073TIP3    H139634   4.322   5.933   1.718  0.9112 -0.2063 -0.9714
 6073TIP3    H239635   4.290   6.074   1.673 -0.0451 -0.1491 -0.1658
 6074TIP3   OH239636   1.355   2.352  13.887  0.0586 -0.2457  0.1441
 6074TIP3    H139637   1.451   2.350  13.881  0.0524 -0.6636  0.1245
 6074TIP3    H239638   1.337   2.393  13.972  0.2421  0.4115 -0.1325
 6075TIP3   OH239639   5.787   5.762   5.847 -0.5287  0.0657 -0.0865
 6075TIP3    H139640   5.732   5.810   5.785  1.1912 -0.0715 -1.8342
 6075TIP3    H239641   5.756   5.672   5.841 -1.0023  0.2186  0.0028
 6076TIP3   OH239642   4.802   3.563   2.410  0.1941  0.7834  0.0477
 6076TIP3    H139643   4.781   3.655   2.429  1.0853  0.9987  0.0351
 6076TIP3    H239644   4.867   3.568   2.340  0.7649  0.1664  0.5251
 6077TIP3   OH239645   2.170   0.659   0.228  0.3357  0.3047  0.3791
 6077TIP3    H139646   2.203   0.714   0.157 -0.1393  1.0715  0.7511
 6077TIP3    H239647   2.213   0.692   0.307  0.2439 -0.0248  0.5720
 6078TIP3   OH239648   1.834   2.707  15.295  0.2613  0.2767 -0.0334
 6078TIP3    H139649   1.767   2.660  15.345  0.7202 -0.4741 -0.1095
 6078TIP3    H239650   1.884   2.756  15.361 -1.4471  2.2995 -0.1343
 6079TIP3   OH239651   4.755   2.864   6.352 -0.0560  0.0787 -0.2341
 6079TIP3    H139652   4.820   2.801   6.385  1.0074  0.8003 -0.8763
 6079TIP3    H239653   4.681   2.856   6.412  0.7398 -0.5756  0.6886
 6080TIP3   OH239654   2.090   5.395   0.530  0.0604 -0.1481 -0.4989
 6080TIP3    H139655   2.013   5.451   0.528  0.7842  1.0281  1.6653
 6080TIP3    H239656   2.160   5.447   0.491  0.9149  0.8722  2.1989
 6081TIP3   OH239657   1.859   1.372  14.570 -0.0869  0.1348 -0.1646
 6081TIP3    H139658   1.905   1.397  14.489 -0.5290  0.0207 -0.4572
 6081TIP3    H239659   1.916   1.403  14.640  0.4799 -0.0831 -0.5168
 6082TIP3   OH239660   2.073   2.298   3.663 -0.2507  0.0117 -0.0606
 6082TIP3    H139661   2.023   2.362   3.613 -1.7148 -0.0229  1.3099
 6082TIP3    H239662   2.021   2.281   3.741  1.8025 -0.1781  1.3575
 6083TIP3   OH239663   4.061   5.441  11.324  0.1345 -0.0991  0.1299
 6083TIP3    H139664   3.989   5.378  11.319  1.7593 -2.0032 -0.9249
 6083TIP3    H239665   4.107   5.418  11.405  1.0322 -0.6569 -0.5217
 6084TIP3   OH239666   0.490   1.649   0.282 -0.5201  0.1033 -0.1472
 6084TIP3    H139667   0.453   1.726   0.325 -0.3239  0.4479 -0.5839
 6084TIP3    H239668   0.565   1.624   0.335 -0.2675  0.5379 -0.2989
 6085TIP3   OH239669   4.738   5.230   0.532  0.0106  0.3006  0.5232
 6085TIP3    H139670   4.792   5.302   0.564 -0.2252  0.8597 -0.3176
 6085TIP3    H239671   4.771   5.211   0.444  0.2440 -0.8047  0.8282
 6086TIP3   OH239672   5.417   5.531   1.027 -0.1531  0.1092  0.0042
 6086TIP3    H139673   5.384   5.493   0.945  0.6857  0.7125 -0.6236
 6086TIP3    H239674   5.374   5.616   1.032 -0.9956 -0.3364  0.7333
 6087TIP3   OH239675   3.141   3.230  12.011  0.4608 -0.2738 -0.2256
 6087TIP3    H139676   3.077   3.160  12.014 -0.0402  0.1668 -0.4609
 6087TIP3    H239677   3.138   3.262  11.921 -2.2630  2.7107  0.7039
 6088TIP3   OH239678   4.402   5.554   6.079  0.1964 -0.0730  0.5320
 6088TIP3    H139679   4.352   5.628   6.113  1.2810  0.5744  0.7861
 6088TIP3    H239680   4.350   5.477   6.103 -2.6036  0.6696 -2.5092
 6089TIP3   OH239681   2.968   5.963   3.074  0.6304  0.2020 -0.0977
 6089TIP3    H139682   3.001   5.874   3.078  2.0844  0.7290  0.4954
 6089TIP3    H239683   2.873   5.955   3.086  0.8675 -1.1697  1.0411
 6090TIP3   OH239684   1.264   0.358  12.418  0.3735  0.0309  0.2902
 6090TIP3    H139685   1.274   0.444  12.458 -0.1527  0.0740  0.3301
 6090TIP3    H239686   1.324   0.301  12.468  0.9374  0.4267  0.0793
 6091TIP3   OH239687   1.601   0.255  17.304  0.0056  0.1110  0.7593
 6091TIP3    H139688   1.646   0.210  17.375 -0.7894 -0.2042  1.0764
 6091TIP3    H239689   1.652   0.334  17.289  1.1290 -0.6361  0.5472
 6092TIP3   OH239690   5.932   1.442  15.996  0.6399 -0.0398  0.0067
 6092TIP3    H139691   5.993   1.431  15.923  0.7914 -2.5090  0.4155
 6092TIP3    H239692   5.988   1.447  16.073  0.4286  1.3245  0.0901
 6093TIP3   OH239693   6.518   1.008  11.238 -0.1312 -0.0763  0.2782
 6093TIP3    H139694   6.433   0.964  11.233  0.5156 -1.2110 -2.1460
 6093TIP3    H239695   6.579   0.947  11.198  1.8418  0.8015  1.7790
 6094TIP3   OH239696   4.365   5.627  12.165 -0.5362  0.0775  0.0528
 6094TIP3    H139697   4.407   5.544  12.142  0.9272  0.7736  0.0327
 6094TIP3    H239698   4.374   5.633  12.260 -0.1158  0.4508 -0.0030
 6095TIP3   OH239699   6.371   0.270  11.598  0.0087 -0.3079  0.2443
 6095TIP3    H139700   6.342   0.185  11.567  1.3454 -1.3926  1.7850
 6095TIP3    H239701   6.391   0.320  11.519 -0.7600 -1.4391 -0.6827
 6096TIP3   OH239702   0.356   2.507  11.245  0.2777 -0.0820 -0.3044
 6096TIP3    H139703   0.376   2.588  11.293 -0.2627 -0.2621  0.2314
 6096TIP3    H239704   0.434   2.492  11.191  0.1082  1.1792 -0.9501
 6097TIP3   OH239705   0.520   4.515  16.965 -0.1002  0.1534  0.1421
 6097TIP3    H139706   0.599   4.540  16.916  1.2316 -1.1826  1.4783
 6097TIP3    H239707   0.543   4.532  17.057 -1.2603 -0.5482  0.5821
 6098TIP3   OH239708   0.306   3.655  12.339  0.2654 -0.3918  0.2740
 6098TIP3    H139709   0.387   3.629  12.295  0.2056 -1.8493  0.9811
 6098TIP3    H239710   0.332   3.671  12.430  0.0036  0.5311  0.1990
 6099TIP3   OH239711   4.970   3.931  16.854  0.6278 -0.4775 -0.3520
 6099TIP3    H139712   4.922   4.011  16.876 -0.9352 -1.2621 -0.7481
 6099TIP3    H239713   4.999   3.945  16.764  0.6832 -0.2035 -0.2934
 6100TIP3   OH239714   6.057   6.246  14.424 -0.0864 -0.1839  0.4585
 6100TIP3    H139715   6.044   6.323  14.479 -0.3749 -0.1131  0.2970
 6100TIP3    H239716   6.024   6.272  14.338  0.6414 -0.1902  0.1686
 6101TIP3   OH239717   1.723   0.518  17.326  0.1173  0.0559  0.2901
 6101TIP3    H139718   1.770   0.523  17.409  0.0018  1.2884  0.2936
 6101TIP3    H239719   1.631   0.536  17.349 -0.2075 -1.2525  0.1230
 6102TIP3   OH239720   2.926   4.810  14.338 -0.2872 -0.1492 -0.2264
 6102TIP3    H139721   2.936   4.734  14.281 -1.2153  0.3355 -1.0694
 6102TIP3    H239722   2.983   4.792  14.413  0.2138 -1.2401 -0.8495
 6103TIP3   OH239723   4.804   5.945  12.292  0.6134  0.0524  0.6415
 6103TIP3    H139724   4.863   5.994  12.351  1.6153 -0.8501  0.4220
 6103TIP3    H239725   4.804   5.997  12.211  1.6623 -0.2694  0.4132
 6104TIP3   OH239726   6.437   4.061   0.693  0.0228 -0.1148  0.7516
 6104TIP3    H139727   6.426   4.095   0.782 -2.2269  0.8710  0.1848
 6104TIP3    H239728   6.350   4.027   0.670  0.1879  0.8643 -1.5296
 6105TIP3   OH239729   4.033   2.896  11.311 -0.1649  0.0533 -1.0577
 6105TIP3    H139730   3.944   2.916  11.282 -0.3840  0.3981 -0.1906
 6105TIP3    H239731   4.089   2.955  11.260 -0.3504 -0.7115 -2.1683
 6106TIP3   OH239732   0.450   2.309  14.594  0.0235 -0.3818  0.3962
 6106TIP3    H139733   0.525   2.356  14.557 -1.8897  2.2640 -0.3755
 6106TIP3    H239734   0.430   2.356  14.675 -0.4766 -1.4258  0.8986
 6107TIP3   OH239735   6.230   4.933  13.312 -0.0193 -0.2968  0.0419
 6107TIP3    H139736   6.321   4.922  13.287 -0.0984  1.4412 -1.2534
 6107TIP3    H239737   6.231   5.005  13.375 -0.5753  0.5514 -0.8873
 6108TIP3   OH239738   0.304   1.771  15.190  0.1551 -0.4039 -0.2421
 6108TIP3    H139739   0.324   1.814  15.107  0.4619  0.3728  0.2249
 6108TIP3    H239740   0.247   1.833  15.236  1.0858 -0.2196  0.6890
 6109TIP3   OH239741   2.678   2.496  14.503  0.2232  0.5469 -0.4017
 6109TIP3    H139742   2.754   2.549  14.529 -0.0207  0.3870  0.6741
 6109TIP3    H239743   2.706   2.406  14.516  0.0409  0.4697 -0.5492
 6110TIP3   OH239744   4.486   4.031   5.969 -0.2379 -0.6001  0.3932
 6110TIP3    H139745   4.395   4.052   5.947 -0.6249 -1.7110  0.8550
 6110TIP3    H239746   4.536   4.108   5.941 -1.4329  0.4214  0.9598
 6111TIP3   OH239747   5.250   3.195  14.327  0.1213  0.1954  0.3118
 6111TIP3    H139748   5.156   3.186  14.344  0.4240 -0.0492  1.9767
 6111TIP3    H239749   5.280   3.107  14.308  0.2786  0.0100  1.3466
 6112TIP3   OH239750   5.619   5.759  17.185  0.2535  0.4704 -0.5154
 6112TIP3    H139751   5.626   5.772  17.091  2.6961  1.1648 -0.2955
 6112TIP3    H239752   5.578   5.839  17.218 -0.0967  0.4544 -0.9081
 6113TIP3   OH239753   1.816   3.622  14.492  0.2378  0.6894 -0.2265
 6113TIP3    H139754   1.772   3.679  14.429  0.2106 -1.1627 -1.9827
 6113TIP3    H239755   1.764   3.631  14.572 -3.2907 -1.0668 -2.0769
 6114TIP3   OH239756   1.942   3.275   1.476  0.3048 -0.5105 -0.0641
 6114TIP3    H139757   1.898   3.316   1.550 -0.2929  2.0804 -1.7340
 6114TIP3    H239758   1.984   3.197   1.513 -0.7293  0.1669  2.7645
 6115TIP3   OH239759   1.254   2.027  14.254 -0.1687 -0.0388 -0.6243
 6115TIP3    H139760   1.290   2.115  14.238  0.8250  0.1545  2.0923
 6115TIP3    H239761   1.268   2.013  14.348 -2.7343 -2.0515 -0.4540
 6116TIP3   OH239762   1.988   1.182   0.257  0.1883  0.4176 -0.8695
 6116TIP3    H139763   1.907   1.142   0.227 -0.1260  1.3362 -1.2668
 6116TIP3    H239764   2.006   1.251   0.194  0.7097  0.9159 -0.1944
 6117TIP3   OH239765   0.433   5.386  14.298  0.0864  0.5409 -0.6280
 6117TIP3    H139766   0.433   5.463  14.242 -1.7242  0.6847 -0.4828
 6117TIP3    H239767   0.413   5.313  14.240 -0.6963  0.5383 -0.3622
 6118TIP3   OH239768   4.053   3.029   5.418 -0.7518  0.4556 -0.4641
 6118TIP3    H139769   3.971   3.076   5.405 -1.3456 -0.4924 -0.1974
 6118TIP3    H239770   4.079   3.052   5.508 -0.7766  0.6660 -0.5084
 6119TIP3   OH239771   1.213   5.012  12.775  0.5808  0.0506  0.5390
 6119TIP3    H139772   1.239   4.953  12.845  1.0375 -1.0476 -0.5101
 6119TIP3    H239773   1.140   4.967  12.732 -1.1076  1.6881  1.5691
 6120TIP3   OH239774   2.996   1.338  16.364  0.3830  0.4493 -0.1413
 6120TIP3    H139775   2.917   1.334  16.418 -0.7388  1.1215 -1.6541
 6120TIP3    H239776   3.025   1.248  16.357 -0.0096  0.2416  0.7886
 6121TIP3   OH239777   2.750   6.351   1.819 -0.1662 -0.2735 -0.9235
 6121TIP3    H139778   2.779   6.288   1.884  1.6774  1.9180  0.5631
 6121TIP3    H239779   2.667   6.384   1.852 -0.5011 -0.9773 -1.0466
 6122TIP3   OH239780   4.572   6.721  15.545 -0.3480  0.4560 -0.2710
 6122TIP3    H139781   4.537   6.633  15.531 -0.3196  0.2923  0.6640
 6122TIP3    H239782   4.666   6.708  15.558 -0.5330  0.4637  1.2341
 6123TIP3   OH239783   3.015   1.224  10.919 -0.2653  0.0614  0.3089
 6123TIP3    H139784   3.091   1.237  10.975  0.2374 -0.0861 -0.3272
 6123TIP3    H239785   3.047   1.168  10.847 -1.9540 -3.7436  2.2179
 6124TIP3   OH239786   4.747   4.974   4.156  0.6218  0.0267 -0.2888
 6124TIP3    H139787   4.766   4.985   4.063 -1.0834  0.9195 -0.5674
 6124TIP3    H239788   4.734   5.063   4.189  0.0005 -0.3519  0.5179
 6125TIP3   OH239789   2.832   4.400   3.843 -0.1478  0.2571 -0.8372
 6125TIP3    H139790   2.775   4.473   3.869  0.2166  0.0864  0.5271
 6125TIP3    H239791   2.826   4.397   3.748 -3.5220 -0.6536 -0.6893
 6126TIP3   OH239792   6.364   4.053  17.194 -0.2962  0.2531  0.0135
 6126TIP3    H139793   6.415   4.123  17.154  1.1256 -0.4536  0.5369
 6126TIP3    H239794   6.279   4.057  17.150  0.9434 -0.0387 -2.5887
 6127TIP3   OH239795   3.088   1.098  16.273  0.2315  0.2815  0.0213
 6127TIP3    H139796   3.041   1.070  16.195  0.2408 -0.5756  0.3099
 6127TIP3    H239797   3.169   1.137  16.239 -0.6772  1.7983 -0.4716
 6128TIP3   OH239798   1.854   4.348  13.989 -0.3769 -0.0544  0.2454
 6128TIP3    H139799   1.821   4.409  14.055 -0.2477 -0.5225  0.7483
 6128TIP3    H239800   1.868   4.402  13.911  2.0737  1.0992  1.3621
 6129TIP3   OH239801   2.481   5.880  11.884  1.0164  0.1228  0.6110
 6129TIP3    H139802   2.469   5.968  11.849  1.5762  0.1856  0.5540
 6129TIP3    H239803   2.460   5.887  11.977  2.7845  0.7500  1.0093
 6130TIP3   OH239804   4.514   4.437  14.950  0.5961  0.6066  0.1599
 6130TIP3    H139805   4.432   4.391  14.970  0.5110  0.3974 -0.6590
 6130TIP3    H239806   4.493   4.496  14.878  1.2912  0.1367 -0.4499
 6131TIP3   OH239807   3.631   0.672  12.778 -0.6584  0.3451  0.2331
 6131TIP3    H139808   3.598   0.628  12.857  0.1905 -0.1306  0.3359
 6131TIP3    H239809   3.600   0.762  12.786  0.6022  0.6878  1.8452
 6132TIP3   OH239810   0.395   4.513  11.808  0.2576 -0.4883 -0.0221
 6132TIP3    H139811   0.341   4.563  11.747 -0.5339 -0.5822  0.5886
 6132TIP3    H239812   0.449   4.458  11.751 -1.8366 -2.0187 -0.6637
 6133TIP3   OH239813   3.207   4.293  14.450  0.0742  0.0416 -0.5963
 6133TIP3    H139814   3.299   4.289  14.477  0.2831  1.0754 -1.1109
 6133TIP3    H239815   3.158   4.272  14.530  0.7411  0.1544 -0.1504
 6134TIP3   OH239816   3.944   6.274  15.555 -0.3260 -0.0523 -0.2053
 6134TIP3    H139817   3.944   6.368  15.572  0.3104  0.3238 -2.0171
 6134TIP3    H239818   3.966   6.234  15.639  1.2573  1.5150  0.1885
 6135TIP3   OH239819   5.001   1.714   5.692  0.2924  0.3278 -0.2691
 6135TIP3    H139820   4.939   1.654   5.732 -0.4538 -0.4647 -2.4746
 6135TIP3    H239821   5.013   1.681   5.603  0.3795  3.0324 -1.3685
 6136TIP3   OH239822   4.141   3.442  16.733 -0.7232 -0.2133  0.1729
 6136TIP3    H139823   4.220   3.490  16.709 -0.1862 -0.0581  2.0385
 6136TIP3    H239824   4.124   3.384  16.660 -0.7249  1.9626 -1.6756
 6137TIP3   OH239825   2.366   0.786  10.622  0.1340  0.3514  0.2023
 6137TIP3    H139826   2.457   0.801  10.595  1.2369 -2.1447  2.1443
 6137TIP3    H239827   2.371   0.772  10.716 -2.6680  2.4657  0.7893
 6138TIP3   OH239828   5.227   1.680  13.290 -0.2009  0.3631  0.7280
 6138TIP3    H139829   5.137   1.649  13.300 -0.0225  0.3354  2.5908
 6138TIP3    H239830   5.263   1.627  13.218 -1.4685 -0.0590  0.3811
 6139TIP3   OH239831   0.561   3.655  15.989  0.4564 -1.0162 -0.0170
 6139TIP3    H139832   0.569   3.682  15.897 -0.7767 -0.8052 -0.0863
 6139TIP3    H239833   0.621   3.582  15.998  1.5251 -0.2549 -0.6657
 6140TIP3   OH239834   1.484   6.596   5.527  0.2372 -0.6386  0.5428
 6140TIP3    H139835   1.568   6.550   5.528  0.4460 -0.3170 -0.7018
 6140TIP3    H239836   1.422   6.532   5.491  0.4164 -0.1441 -0.6711
 6141TIP3   OH239837   0.603   3.472   2.355  0.7040 -0.0009  0.1033
 6141TIP3    H139838   0.644   3.432   2.278  0.9366  0.1056  0.1708
 6141TIP3    H239839   0.676   3.508   2.404  0.4440  0.9716 -0.2138
 6142TIP3   OH239840   3.672   3.037   2.097  0.5137  0.2380 -0.2424
 6142TIP3    H139841   3.766   3.017   2.094  0.6595  0.8405 -0.0557
 6142TIP3    H239842   3.667   3.128   2.067  0.2026  0.8339  1.5055
 6143TIP3   OH239843   5.216   0.538   2.977  0.1181 -0.5236  0.0057
 6143TIP3    H139844   5.277   0.596   2.931 -1.8175  1.2762 -0.4580
 6143TIP3    H239845   5.269   0.464   3.004  2.1978  0.2921 -1.5733
 6144TIP3   OH239846   2.618   4.007  12.356  0.1457  0.2792  0.1319
 6144TIP3    H139847   2.537   3.957  12.355 -0.0926  0.6673 -0.1399
 6144TIP3    H239848   2.594   4.092  12.394 -0.7403  2.3338 -4.4048
 6145TIP3   OH239849   4.604   5.020  14.086  0.1902 -0.3064  0.0552
 6145TIP3    H139850   4.629   5.113  14.088  1.6278 -0.6563 -0.5082
 6145TIP3    H239851   4.680   4.976  14.049 -0.7873 -1.6262 -0.4491
 6146TIP3   OH239852   3.564   5.298  17.221  0.2340 -0.0729  0.1890
 6146TIP3    H139853   3.484   5.312  17.271  0.2472 -0.5262  0.3378
 6146TIP3    H239854   3.634   5.311  17.284  0.2232 -2.8595  0.8954
 6147TIP3   OH239855   0.269   1.314  13.348  0.0311 -0.1240  0.2858
 6147TIP3    H139856   0.237   1.388  13.400  1.6231  1.0349 -0.2842
 6147TIP3    H239857   0.195   1.288  13.294 -1.6771 -1.3318  2.9882
 6148TIP3   OH239858   3.442   6.515   2.690  0.0759  0.4487  0.8073
 6148TIP3    H139859   3.511   6.468   2.736 -0.3274 -0.2350  0.7338
 6148TIP3    H239860   3.361   6.486   2.733 -0.2447  0.4028  0.1952
 6149TIP3   OH239861   0.883   0.172   4.353  0.7491  0.0337 -0.5086
 6149TIP3    H139862   0.823   0.097   4.351  1.3966 -0.5990  1.0879
 6149TIP3    H239863   0.939   0.159   4.277 -0.5846  0.1784 -1.5484
 6150TIP3   OH239864   6.584   0.743  16.363  0.0047  0.0104  0.6495
 6150TIP3    H139865   6.495   0.708  16.365  0.0765 -0.1248  1.4371
 6150TIP3    H239866   6.602   0.770  16.453  0.6014  0.4461  0.4097
 6151TIP3   OH239867   3.607   5.023   3.049 -0.2673 -0.7490 -0.5632
 6151TIP3    H139868   3.551   4.971   2.991 -0.2982  0.6602 -1.8701
 6151TIP3    H239869   3.571   5.112   3.042  1.7449  0.0809 -0.9590
 6152TIP3   OH239870   3.713   5.050  12.171  0.3167  0.1986 -0.7368
 6152TIP3    H139871   3.793   5.032  12.221 -0.1265  1.6560  0.5783
 6152TIP3    H239872   3.692   5.141  12.190 -3.2923 -0.8697  1.4021
 6153TIP3   OH239873   5.888   1.836   1.372 -0.1184  0.1703 -0.1528
 6153TIP3    H139874   5.944   1.799   1.303  0.2831  0.5708 -0.0453
 6153TIP3    H239875   5.856   1.918   1.335  0.5475  0.6639  0.3465
 6154TIP3   OH239876   2.775   5.686   3.284  0.7131 -0.8417 -0.0753
 6154TIP3    H139877   2.777   5.703   3.190 -1.1776 -1.5192 -0.2909
 6154TIP3    H239878   2.825   5.605   3.295  1.8207 -0.2026 -0.3371
 6155TIP3   OH239879   5.814   2.342   5.168 -0.1863 -0.2831 -0.1677
 6155TIP3    H139880   5.843   2.368   5.255  0.7060  0.9968 -0.8198
 6155TIP3    H239881   5.819   2.246   5.169  0.9191 -0.2353  0.8202
 6156TIP3   OH239882   3.532   3.708   5.334  0.5930 -0.2603  0.3558
 6156TIP3    H139883   3.557   3.800   5.326  0.2716 -0.3360 -2.4333
 6156TIP3    H239884   3.513   3.696   5.428 -1.6311  3.0963  0.4929
 6157TIP3   OH239885   6.347   3.454   4.917 -0.6199 -0.0400  0.2240
 6157TIP3    H139886   6.283   3.501   4.970  1.6853  3.2912  0.3347
 6157TIP3    H239887   6.380   3.519   4.854  2.5816 -1.5140  0.1525
 6158TIP3   OH239888   4.133   0.492   3.721  0.4721  0.1085 -0.2875
 6158TIP3    H139889   4.080   0.449   3.653 -2.7354  1.5863  1.0561
 6158TIP3    H239890   4.193   0.548   3.672  0.5625 -1.2945 -1.9086
 6159TIP3   OH239891   4.152   4.363   2.465  0.6498  0.4644 -0.5130
 6159TIP3    H139892   4.183   4.276   2.440  0.0545 -0.1255  0.7079
 6159TIP3    H239893   4.159   4.415   2.385 -1.0509 -1.2890 -1.8838
 6160TIP3   OH239894   5.942   2.807   0.929  0.2599  0.2065  0.2676
 6160TIP3    H139895   5.971   2.792   0.839 -0.5176  0.9830 -0.1244
 6160TIP3    H239896   5.964   2.899   0.946 -0.7632  0.4254  0.4228
 6161TIP3   OH239897   6.720   0.414  14.638  0.2425  0.4569 -0.2437
 6161TIP3    H139898   6.672   0.495  14.654  0.6620  0.7928 -0.6615
 6161TIP3    H239899   6.810   0.435  14.661  0.6161  0.5417 -1.6520
 6162TIP3   OH239900   4.627   2.774  14.406  0.2799 -0.0974 -0.1169
 6162TIP3    H139901   4.676   2.812  14.479  2.1053 -1.4530 -0.5611
 6162TIP3    H239902   4.666   2.815  14.328  0.8660 -1.3252 -0.4902
 6163TIP3   OH239903   4.333   1.419   1.903 -0.2820 -0.3693  0.7607
 6163TIP3    H139904   4.407   1.358   1.910  0.5988  0.0824 -2.7699
 6163TIP3    H239905   4.353   1.472   1.826 -3.6775  0.6994  0.4625
 6164TIP3   OH239906   3.153   3.560   2.385 -0.5486 -0.4226  0.2991
 6164TIP3    H139907   3.146   3.505   2.307  4.0604 -1.4478  0.3482
 6164TIP3    H239908   3.185   3.501   2.453  2.6212  1.7695  0.9207
 6165TIP3   OH239909   3.562   5.685  16.053  0.4480 -0.3126  0.0513
 6165TIP3    H139910   3.470   5.673  16.031  0.2375  2.1014 -0.7057
 6165TIP3    H239911   3.562   5.711  16.145  0.4786 -1.0868  0.2821
 6166TIP3   OH239912   1.044   1.929   6.056 -0.3170  0.1520 -0.1868
 6166TIP3    H139913   1.079   1.951   5.970 -0.7892  1.3197 -0.0937
 6166TIP3    H239914   1.088   1.847   6.080  0.9156  0.5870 -0.8908
 6167TIP3   OH239915   2.909   5.267   4.435 -0.1994  0.1965 -0.2268
 6167TIP3    H139916   2.889   5.236   4.346 -0.1088  1.9264 -0.8835
 6167TIP3    H239917   2.913   5.187   4.487 -1.6332 -0.7787 -1.4942
 6168TIP3   OH239918   2.974   6.272   1.481 -0.0748 -0.4530  0.0337
 6168TIP3    H139919   2.906   6.336   1.502 -1.2159 -1.0371 -1.6621
 6168TIP3    H239920   3.055   6.311   1.514 -0.9146  1.2689  0.1448
 6169TIP3   OH239921   2.556   6.408  14.276 -0.0086  0.2909 -0.2183
 6169TIP3    H139922   2.600   6.376  14.354 -0.2567 -0.3217 -0.3302
 6169TIP3    H239923   2.626   6.423  14.213 -0.0040 -1.3491 -0.6331
 6170TIP3   OH239924   3.205   4.282   5.275 -0.3883 -0.3487 -0.1095
 6170TIP3    H139925   3.152   4.244   5.205 -1.1306 -1.1779  0.8626
 6170TIP3    H239926   3.156   4.358   5.304 -0.6851 -0.6877  0.2913
 6171TIP3   OH239927   5.625   1.424   1.596 -0.4791 -0.5100 -0.9570
 6171TIP3    H139928   5.712   1.386   1.580 -0.2483 -0.4458  0.0899
 6171TIP3    H239929   5.638   1.519   1.589  0.5268 -0.1543  3.2876
 6172TIP3   OH239930   4.079   2.457   1.510  0.1142 -0.1234 -0.2932
 6172TIP3    H139931   4.016   2.388   1.493  1.5705 -1.9354  1.1162
 6172TIP3    H239932   4.144   2.449   1.440 -0.0858  0.2908 -0.5270
 6173TIP3   OH239933   3.671   2.518   6.208  0.6748 -0.2649  0.5396
 6173TIP3    H139934   3.766   2.524   6.196  0.4815  2.8851 -0.2704
 6173TIP3    H239935   3.660   2.483   6.297  2.5422 -1.1807  0.4661
 6174TIP3   OH239936   5.354   3.657  10.814  0.1944 -0.3490 -0.4637
 6174TIP3    H139937   5.435   3.653  10.866 -1.2208 -1.5104  1.7588
 6174TIP3    H239938   5.371   3.600  10.739  0.5662 -2.8044  1.3693
 6175TIP3   OH239939   4.790   3.983  16.161 -0.2574 -0.6748 -0.3474
 6175TIP3    H139940   4.848   4.043  16.114 -1.1773  0.2904 -0.2951
 6175TIP3    H239941   4.818   3.988  16.252  0.4555 -1.2748 -0.5243
 6176TIP3   OH239942   0.491   5.767  17.253  0.1051 -0.5311 -0.8511
 6176TIP3    H139943   0.585   5.752  17.259 -0.0546 -1.8124 -1.1152
 6176TIP3    H239944   0.475   5.780  17.159  0.0416 -0.0929 -0.7826
 6177TIP3   OH239945   6.237   0.092  14.626 -0.3437 -0.0344  0.2161
 6177TIP3    H139946   6.294   0.023  14.590 -0.3566 -0.7579  1.4972
 6177TIP3    H239947   6.264   0.172  14.581  0.6273 -0.6443 -0.3195
 6178TIP3   OH239948   6.610   5.836   1.463 -0.3036 -0.0160 -0.5724
 6178TIP3    H139949   6.666   5.759   1.475  0.8852  0.8592 -0.2881
 6178TIP3    H239950   6.658   5.890   1.400 -0.1703  1.3516  0.6601
 6179TIP3   OH239951   0.406   0.586   1.661  0.7929 -0.2755  0.0406
 6179TIP3    H139952   0.467   0.574   1.588  1.0649 -0.0608  0.2318
 6179TIP3    H239953   0.445   0.655   1.714 -0.9824  1.9002 -1.3088
 6180TIP3   OH239954   1.551   2.837  13.736  0.0106 -0.4034 -0.2499
 6180TIP3    H139955   1.645   2.843  13.721  0.1446  0.5634  0.8130
 6180TIP3    H239956   1.513   2.906  13.682  0.0833  0.2837  0.5610
 6181TIP3   OH239957   4.092   5.608  16.741  0.5315 -0.1711  0.3584
 6181TIP3    H139958   4.135   5.577  16.661  0.2572  1.0774 -0.2992
 6181TIP3    H239959   4.121   5.698  16.750 -1.4099  0.5052  0.2571
 6182TIP3   OH239960   3.959   1.465   5.325  0.5587 -0.5716  0.3000
 6182TIP3    H139961   3.902   1.391   5.348 -0.1958  0.0998  0.6425
 6182TIP3    H239962   3.921   1.540   5.371  1.6894 -0.0837  0.4855
 6183TIP3   OH239963   4.942   5.325  14.670 -0.1836 -0.5068 -0.2027
 6183TIP3    H139964   4.899   5.240  14.662  0.0946 -0.6596 -0.1074
 6183TIP3    H239965   4.984   5.323  14.756 -0.5672 -0.0872 -0.0008
 6184TIP3   OH239966   3.283   0.333   5.253 -0.1980 -0.1400  0.2286
 6184TIP3    H139967   3.218   0.397   5.224 -0.3822  0.0945  1.1411
 6184TIP3    H239968   3.235   0.274   5.310 -0.3677 -1.9780 -1.6827
 6185TIP3   OH239969   2.713   1.706  12.037 -0.3219 -0.7863 -0.1073
 6185TIP3    H139970   2.666   1.656  11.971  0.8317 -1.5666 -0.3544
 6185TIP3    H239971   2.674   1.678  12.120 -1.4395 -0.1598 -0.3989
 6186TIP3   OH239972   1.071   4.962   2.802  0.2568  0.7146 -0.0856
 6186TIP3    H139973   1.128   4.936   2.874 -1.1412 -0.1517  0.7596
 6186TIP3    H239974   1.117   4.934   2.723  1.9699  1.9745  0.4167
 6187TIP3   OH239975   5.916   0.113   5.841 -0.7234  0.0811 -0.4262
 6187TIP3    H139976   5.975   0.060   5.787 -0.8217  0.2892 -0.7396
 6187TIP3    H239977   5.848   0.052   5.870 -0.3210 -0.1745 -0.0120
 6188TIP3   OH239978   4.428   3.820   5.301 -0.5841  0.7382  0.0199
 6188TIP3    H139979   4.455   3.736   5.265 -1.5838  0.1194  0.6886
 6188TIP3    H239980   4.436   3.881   5.228  1.3391  0.3347 -0.1596
 6189TIP3   OH239981   5.544   4.489   2.117  0.2995  0.5620 -0.1002
 6189TIP3    H139982   5.494   4.511   2.195 -1.1674 -0.5931 -0.6676
 6189TIP3    H239983   5.528   4.560   2.056  0.8945  1.1247  0.3887
 6190TIP3   OH239984   5.280   0.356   1.703  0.2441 -0.5798  0.6393
 6190TIP3    H139985   5.372   0.379   1.689 -0.4156  1.0977 -1.3852
 6190TIP3    H239986   5.280   0.260   1.710  2.2038 -0.5673  1.4553
 6191TIP3   OH239987   2.221   5.550   6.078 -0.0135 -0.3810  0.5920
 6191TIP3    H139988   2.250   5.642   6.076 -0.2515 -0.3010  0.7835
 6191TIP3    H239989   2.168   5.543   6.157  0.4973 -0.8362  0.8988
 6192TIP3   OH239990   5.393   3.992   4.692  0.0587  0.1742  1.1724
 6192TIP3    H139991   5.404   4.046   4.614 -0.1388  0.3802  1.2869
 6192TIP3    H239992   5.302   4.007   4.718  0.0111 -0.1948  1.2166
 6193TIP3   OH239993   6.580   4.246  16.727  0.8362 -0.8877 -0.2229
 6193TIP3    H139994   6.618   4.333  16.718  0.3854 -0.4953  1.3041
 6193TIP3    H239995   6.654   4.186  16.717  1.6625 -0.1967  1.2878
 6194TIP3   OH239996   4.159   4.619   3.403  0.0794 -0.1484 -0.0190
 6194TIP3    H139997   4.241   4.600   3.449  0.8606  1.0252 -0.8859
 6194TIP3    H239998   4.186   4.667   3.325 -1.5917  2.0991  0.7002
 6195TIP3   OH239999   5.058   4.144  11.471  0.4615  0.1264  0.2898
 6195TIP3    H140000   5.035   4.112  11.558 -1.1683  0.3392 -0.0304
 6195TIP3    H240001   5.006   4.091  11.411  0.6922  0.7582 -0.4872
 6196TIP3   OH240002   6.067   4.130   5.074 -0.2803  0.1534  0.9908
 6196TIP3    H140003   5.996   4.171   5.123 -1.3077  0.8322 -0.9859
 6196TIP3    H240004   6.131   4.200   5.061 -0.1727  0.0678  1.0558
 6197TIP3   OH240005   4.180   4.087   4.844 -0.0624 -0.3265  0.0483
 6197TIP3    H140006   4.106   4.073   4.905  1.3435 -0.2685  1.8547
 6197TIP3    H240007   4.196   4.000   4.807 -1.2245 -0.2780 -0.6346
 6198TIP3   OH240008   5.755   2.730  12.528 -0.2371  0.3477 -0.3567
 6198TIP3    H140009   5.681   2.728  12.467 -1.4558 -3.1729  0.9966
 6198TIP3    H240010   5.830   2.702  12.475 -0.9445 -1.0437 -0.6698
 6199TIP3   OH240011   1.371   4.409   0.583 -0.1714  0.3336  0.0453
 6199TIP3    H140012   1.358   4.412   0.678 -1.1463 -1.1158 -0.0149
 6199TIP3    H240013   1.282   4.410   0.547 -0.0384 -2.7991 -0.6631
 6200TIP3   OH240014   2.861   5.517   4.674 -0.4134 -0.4972  0.2498
 6200TIP3    H140015   2.864   5.613   4.678  0.0951 -0.3406 -2.0125
 6200TIP3    H240016   2.910   5.488   4.750  0.6615  1.0862  0.2172
 6201TIP3   OH240017   5.607   4.260  16.049 -0.0964 -0.5106 -0.8402
 6201TIP3    H140018   5.636   4.315  15.976  1.2258  1.5002  1.0627
 6201TIP3    H240019   5.512   4.276  16.055  0.0753  0.6473 -1.0776
 6202TIP3   OH240020   3.251   4.793  14.105  0.4215 -0.3266  0.6991
 6202TIP3    H140021   3.287   4.714  14.146 -0.9738 -0.7426  1.1564
 6202TIP3    H240022   3.183   4.761  14.047  1.6384  0.3477 -1.1974
 6203TIP3   OH240023   5.057   2.477   1.619 -0.0238 -0.3164  0.1596
 6203TIP3    H140024   5.052   2.402   1.678 -0.0318 -1.6690 -1.4748
 6203TIP3    H240025   5.032   2.442   1.534 -1.2710  1.8486 -0.4398
 6204TIP3   OH240026   1.272   5.479  15.073  0.3389  0.3720 -0.4548
 6204TIP3    H140027   1.224   5.500  14.993  0.5467 -0.8699 -0.9287
 6204TIP3    H240028   1.318   5.397  15.053  1.1847  0.5579  0.6056
 6205TIP3   OH240029   3.541   2.228   5.944 -0.0722  0.2764 -0.5712
 6205TIP3    H140030   3.499   2.204   5.861 -0.7303 -1.4128  0.2175
 6205TIP3    H240031   3.472   2.272   5.993 -0.3749 -0.7467 -0.0512
 6206TIP3   OH240032   3.767   4.808   4.647 -0.0159  0.6788  0.0161
 6206TIP3    H140033   3.735   4.718   4.647  1.5802  0.0670  0.1971
 6206TIP3    H240034   3.694   4.860   4.680 -1.1311 -0.4744 -0.5369
 6207TIP3   OH240035   4.501   0.100   4.912  0.1833  0.2843  0.1201
 6207TIP3    H140036   4.535   0.108   4.823  0.7866  0.4312  0.3616
 6207TIP3    H240037   4.484   0.006   4.922  2.3084 -0.1079  0.6298
 6208TIP3   OH240038   4.429   0.011  10.821 -0.0069 -0.4313 -0.1504
 6208TIP3    H140039   4.417   0.054  10.736  0.2396  0.5699  0.3050
 6208TIP3    H240040   4.406  -0.080  10.805 -1.7405  0.0824 -0.8867
 6209TIP3   OH240041   4.141   0.479   0.768 -0.5192 -0.0266 -0.7964
 6209TIP3    H140042   4.101   0.498   0.683 -1.7386 -1.0336 -0.4803
 6209TIP3    H240043   4.192   0.557   0.788  0.0289  0.1238 -2.5794
 6210TIP3   OH240044   2.915   1.484   1.351 -0.6865 -0.7082 -0.3622
 6210TIP3    H140045   2.927   1.450   1.262 -0.8248  0.8468 -1.0204
 6210TIP3    H240046   2.999   1.524   1.373 -1.2126  0.5342 -0.5537
 6211TIP3   OH240047   1.628   4.659   5.729  0.3473  0.1660 -0.2265
 6211TIP3    H140048   1.565   4.718   5.771 -0.0911  0.0656 -0.7321
 6211TIP3    H240049   1.713   4.690   5.759  0.0131 -0.5695  1.5930
 6212TIP3   OH240050   1.282   5.865   5.908  0.1701  0.0769  0.0518
 6212TIP3    H140051   1.372   5.896   5.908 -0.3556  1.7144 -0.7284
 6212TIP3    H240052   1.257   5.862   6.001  0.9873 -0.3372  0.2648
 6213TIP3   OH240053   2.981   5.291  17.313  0.5429 -0.0144  0.1555
 6213TIP3    H140054   2.946   5.203  17.296 -0.7145  0.4114  0.4807
 6213TIP3    H240055   3.064   5.274  17.358  1.1919 -1.0528 -1.3232
 6214TIP3   OH240056   0.659   5.264  16.023  0.3161 -0.4890  0.4848
 6214TIP3    H140057   0.666   5.232  15.933  0.4518 -1.1347  0.7182
 6214TIP3    H240058   0.728   5.329  16.031  0.3813 -0.5153  0.1587
 6215TIP3   OH240059   1.404   4.472   6.301  0.4423 -0.0820 -0.1366
 6215TIP3    H140060   1.374   4.562   6.289  0.2610 -0.1578 -0.2555
 6215TIP3    H240061   1.469   4.477   6.371 -0.0001  0.0532  0.2682
 6216TIP3   OH240062   0.413   2.319   3.846 -0.0172  0.0896 -0.3722
 6216TIP3    H140063   0.374   2.327   3.759 -2.1453  0.9839  0.5922
 6216TIP3    H240064   0.342   2.284   3.901  1.3036 -0.5649  0.9922
 6217TIP3   OH240065   1.052   5.418  13.008  0.3233 -0.0812  0.1147
 6217TIP3    H140066   0.996   5.396  13.082 -0.2650 -0.3855 -0.4093
 6217TIP3    H240067   1.044   5.343  12.949  0.7760  0.1610 -0.2591
 6218TIP3   OH240068   0.981   6.497  17.060 -0.7770 -0.6384  0.1710
 6218TIP3    H140069   1.026   6.413  17.048  0.0226 -0.1670 -0.2137
 6218TIP3    H240070   0.901   6.489  17.007 -0.6876 -1.1476  0.1077
 6219TIP3   OH240071   5.719   5.510   5.774  0.6419 -0.1912 -0.5451
 6219TIP3    H140072   5.624   5.507   5.782  0.6358 -1.0930 -0.9369
 6219TIP3    H240073   5.739   5.451   5.702  1.3126  1.8530 -2.1465
 6220TIP3   OH240074   2.627   0.801   4.211  0.6991 -0.7698  0.3358
 6220TIP3    H140075   2.587   0.779   4.127  0.5713 -0.8461  0.4159
 6220TIP3    H240076   2.689   0.730   4.228  0.9784 -0.5694  0.1371
 6221TIP3   OH240077   3.359   1.183  16.505  0.1267  0.2926 -0.3402
 6221TIP3    H140078   3.332   1.275  16.496 -1.9183  0.1170  2.5920
 6221TIP3    H240079   3.291   1.135  16.457 -0.0299  0.2099 -0.0331
 6222TIP3   OH240080   5.685   5.901   1.572 -0.2349  0.2970 -0.4703
 6222TIP3    H140081   5.664   5.901   1.666 -1.0511  1.0945 -0.6463
 6222TIP3    H240082   5.750   5.971   1.562 -1.0344  1.0157 -0.6855
 6223TIP3   OH240083   5.654   0.101  11.598  0.2472  0.1257  0.0446
 6223TIP3    H140084   5.727   0.046  11.626  2.1576  2.2326 -0.5088
 6223TIP3    H240085   5.674   0.123  11.507 -1.8198 -0.3179 -0.5717
 6224TIP3   OH240086   0.618   2.008   0.939  0.2658  0.0167  0.0947
 6224TIP3    H140087   0.592   1.917   0.952  0.6470 -0.2584 -0.9118
 6224TIP3    H240088   0.704   2.002   0.896  0.7216  0.8633  0.8556
 6225TIP3   OH240089   1.455   5.821   0.361  0.4372 -0.1051  0.3429
 6225TIP3    H140090   1.464   5.783   0.448 -0.3834  0.1142  0.5364
 6225TIP3    H240091   1.425   5.911   0.377  0.4866  0.0027 -0.1582
 6226TIP3   OH240092   6.033   5.190  15.404 -0.4988  0.2713 -0.5586
 6226TIP3    H140093   6.117   5.149  15.425 -0.5795  1.0168  1.4010
 6226TIP3    H240094   5.986   5.123  15.353  0.7359 -0.6749 -0.4964
 6227TIP3   OH240095   0.858   1.897  16.728  0.2848 -0.2803  0.3868
 6227TIP3    H140096   0.893   1.808  16.718  1.4505  0.3814 -2.5685
 6227TIP3    H240097   0.936   1.953  16.729 -0.4949  0.9120 -1.2789
 6228TIP3   OH240098   1.645   0.513   2.713  0.4635  0.5968  0.5915
 6228TIP3    H140099   1.635   0.422   2.741 -1.2518  0.9054  1.0941
 6228TIP3    H240100   1.668   0.508   2.620  0.5250 -0.3381  0.6517
 6229TIP3   OH240101   1.651   4.760   6.449 -0.1304  0.1456 -0.5695
 6229TIP3    H140102   1.712   4.687   6.442 -0.4954 -0.1500 -0.7409
 6229TIP3    H240103   1.573   4.731   6.401 -0.3983  0.5222 -0.3733
 6230TIP3   OH240104   2.300   6.615   0.858  0.4367 -0.8336 -0.4919
 6230TIP3    H140105   2.275   6.563   0.934  0.7033  0.1610  0.2987
 6230TIP3    H240106   2.236   6.686   0.856  0.7290 -0.5796 -0.8980
 6231TIP3   OH240107   2.623   1.346   2.905 -0.0152  0.1732  0.5744
 6231TIP3    H140108   2.564   1.325   2.977 -0.1760  1.0091  0.6887
 6231TIP3    H240109   2.602   1.281   2.837 -1.5498  0.8886  0.3388
 6232TIP3   OH240110   6.250   3.893  11.370 -0.1539 -0.8801 -0.1293
 6232TIP3    H140111   6.298   3.824  11.324  0.9835 -1.1259  1.3485
 6232TIP3    H240112   6.254   3.867  11.462  1.1615  1.6282  0.5999
 6233TIP3   OH240113   3.516   5.259   2.019  0.0527 -0.5129 -0.0024
 6233TIP3    H140114   3.550   5.196   2.083 -0.4402 -0.9166 -0.1263
 6233TIP3    H240115   3.561   5.341   2.039  1.4048 -1.1240 -0.4313
 6234TIP3   OH240116   6.300   5.553   5.658 -0.4367  0.4458 -0.3923
 6234TIP3    H140117   6.241   5.582   5.588 -1.0029  1.8618  0.6401
 6234TIP3    H240118   6.247   5.553   5.737  0.0985 -1.4935  0.0401
 6235TIP3   OH240119   2.858   2.673  17.013  0.1504  0.2128  0.4619
 6235TIP3    H140120   2.858   2.583  16.979  0.9988  0.0555  0.8521
 6235TIP3    H240121   2.824   2.726  16.941  2.0506 -0.0881 -0.7083
 6236TIP3   OH240122   4.359   0.157   2.370  0.5721  0.4645  0.2241
 6236TIP3    H140123   4.301   0.081   2.363 -0.2674  0.8790  2.1754
 6236TIP3    H240124   4.438   0.131   2.323  1.1024 -2.4163  2.4558
 6237TIP3   OH240125   3.574   0.097  11.568 -0.4805 -0.0303 -0.2521
 6237TIP3    H140126   3.504   0.113  11.504  1.0407  1.0549 -1.7314
 6237TIP3    H240127   3.638   0.166  11.552  1.3274 -1.4475  0.4868
 6238TIP3   OH240128   3.790   3.658  13.515  0.3244 -0.0986 -0.6958
 6238TIP3    H140129   3.758   3.716  13.446  0.2600  0.3973 -0.2492
 6238TIP3    H240130   3.865   3.614  13.476 -0.3161 -0.5764 -1.4329
 6239TIP3   OH240131   1.056   1.216   5.738  0.6005  0.2241 -0.0087
 6239TIP3    H140132   1.105   1.163   5.801  0.3757 -0.0031 -0.0224
 6239TIP3    H240133   1.046   1.301   5.780  1.5438  0.4709 -0.2609
 6240TIP3   OH240134   2.375   0.645   3.536  0.6741 -0.6045  0.3410
 6240TIP3    H140135   2.350   0.719   3.480  1.3098 -1.0056 -0.4893
 6240TIP3    H240136   2.312   0.576   3.513 -0.1031 -0.2503  1.3239
 6241TIP3   OH240137   2.769   5.982   5.635 -0.1145  0.2820  0.2466
 6241TIP3    H140138   2.734   6.055   5.584 -0.7947  1.0614  1.7626
 6241TIP3    H240139   2.754   6.007   5.726 -0.6021 -1.8824  0.8047
 6242TIP3   OH240140   4.580   0.083   2.236 -0.2582  0.2138 -0.2327
 6242TIP3    H140141   4.564   0.064   2.144 -0.2159  0.5166 -0.3030
 6242TIP3    H240142   4.675   0.094   2.242 -0.2169 -0.2234 -0.0735
 6243TIP3   OH240143   1.474   2.244   2.631 -0.0315  0.0745  0.2691
 6243TIP3    H140144   1.477   2.151   2.610 -0.5641  0.0517  0.2709
 6243TIP3    H240145   1.498   2.288   2.550  2.3455 -0.0847  0.8077
 6244TIP3   OH240146   3.126   4.279   3.545  0.4536 -0.4391  0.4513
 6244TIP3    H140147   3.191   4.212   3.526  1.5397  0.4205  1.0304
 6244TIP3    H240148   3.099   4.262   3.636 -0.0373 -0.6977  0.2651
 6245TIP3   OH240149   2.153   6.529   3.010  0.0919  0.1020 -1.1771
 6245TIP3    H140150   2.152   6.442   3.050  0.1251 -0.4561 -2.3610
 6245TIP3    H240151   2.222   6.524   2.944  0.1100  1.0472 -1.2403
 6246TIP3   OH240152   2.867   4.841  17.031  0.1830 -0.4659  0.3459
 6246TIP3    H140153   2.855   4.751  17.001 -1.9180 -0.4060  0.8425
 6246TIP3    H240154   2.951   4.868  16.993  0.0458 -2.0442 -1.2246
 6247TIP3   OH240155   4.693   2.790  10.175  0.2657 -0.1104 -0.2475
 6247TIP3    H140156   4.622   2.824  10.121  1.5897  1.1460 -1.2894
 6247TIP3    H240157   4.668   2.700  10.195 -0.8662 -0.2123 -1.9267
 6248TIP3   OH240158   1.734   1.670   4.140  0.2763 -0.7626 -0.2606
 6248TIP3    H140159   1.821   1.672   4.180  0.4435  0.5185 -0.6522
 6248TIP3    H240160   1.673   1.674   4.213  0.5762  1.2776 -0.0755
 6249TIP3   OH240161   4.903   0.373  10.740 -0.6087 -0.0921 -0.8856
 6249TIP3    H140162   4.870   0.363  10.829  0.6284  0.4120 -0.3467
 6249TIP3    H240163   4.960   0.297  10.726 -0.4329  0.0726 -1.0743
 6250TIP3   OH240164   2.664   0.659   5.019  0.0338  0.0677  0.1763
 6250TIP3    H140165   2.575   0.694   5.024  0.6092  1.7037 -0.3609
 6250TIP3    H240166   2.659   0.591   4.951 -1.1669 -1.1334  1.4114
 6251TIP3   OH240167   4.827   3.705  11.263  0.4949 -0.5585  0.3431
 6251TIP3    H140168   4.857   3.707  11.354  0.4802 -0.6292  0.3494
 6251TIP3    H240169   4.797   3.615  11.249  2.3688 -1.1291 -0.3231
 6252TIP3   OH240170   1.814   4.166  10.695 -0.3455  0.1422 -0.1883
 6252TIP3    H140171   1.855   4.171  10.781 -1.8819  0.6830  0.5712
 6252TIP3    H240172   1.800   4.073  10.679  0.2706  0.0207 -0.0184
 6253TIP3   OH240173   1.144   1.590   4.751  0.3065  0.4053 -0.6589
 6253TIP3    H140174   1.121   1.498   4.738 -0.8605  0.8717 -2.3994
 6253TIP3    H240175   1.155   1.600   4.845 -2.7078 -0.8540 -0.0467
 6254TIP3   OH240176   0.792   1.227   2.568 -0.3186  0.3324  0.0748
 6254TIP3    H140177   0.790   1.133   2.585 -2.4057  0.3514  0.1996
 6254TIP3    H240178   0.844   1.236   2.488  0.2343 -0.8752  0.2758
 6255TIP3   OH240179   3.037   3.643  15.054 -0.0225  0.4678  0.0290
 6255TIP3    H140180   3.030   3.548  15.038 -0.4502  0.3016  1.1145
 6255TIP3    H240181   3.130   3.661  15.045  0.5851 -0.6926  2.9580
 6256TIP3   OH240182   1.562   4.155  15.059  0.2405 -0.1716  0.1124
 6256TIP3    H140183   1.510   4.185  15.133  1.0282 -1.1858  1.1238
 6256TIP3    H240184   1.571   4.061  15.073  1.3728 -0.1962 -0.6364
 6257TIP3   OH240185   1.746   5.510  13.909  0.5784 -0.4826 -0.1728
 6257TIP3    H140186   1.729   5.568  13.983 -2.8459  0.8381 -1.7802
 6257TIP3    H240187   1.801   5.561  13.850 -1.2711  0.7188 -0.9457
 6258TIP3   OH240188   4.557   5.513  15.141  0.1550  0.0672  0.1625
 6258TIP3    H140189   4.593   5.568  15.210  0.1009 -1.6650  1.6369
 6258TIP3    H240190   4.543   5.573  15.067  1.1691  1.7695  1.2889
 6259TIP3   OH240191   4.853   5.476   1.135  0.2021 -0.2312  0.5234
 6259TIP3    H140192   4.792   5.502   1.204 -0.4266  0.8910 -0.4096
 6259TIP3    H240193   4.935   5.520   1.159  0.2297 -0.5250  0.9865
 6260TIP3   OH240194   6.486   6.440  12.871 -0.1600 -0.3758  0.6232
 6260TIP3    H140195   6.445   6.355  12.882  1.5902 -1.3403  0.1279
 6260TIP3    H240196   6.430   6.501  12.918 -1.4111 -1.8094  1.0442
 6261TIP3   OH240197   4.168   0.023  17.455 -0.0309 -0.1508 -0.2309
 6261TIP3    H140198   4.164   0.085  17.382  0.8717 -0.2739 -0.4069
 6261TIP3    H240199   4.242   0.054  17.507 -0.0439 -0.6504  0.0804
 6262TIP3   OH240200   3.010   5.326  12.807 -0.2718 -0.6098 -0.3988
 6262TIP3    H140201   2.980   5.252  12.755  2.8668 -1.5585 -1.1173
 6262TIP3    H240202   3.037   5.288  12.890  2.4405 -0.6377 -1.1760
 6263TIP3   OH240203   4.842   4.763  17.352 -0.3504 -0.7389  0.3588
 6263TIP3    H140204   4.840   4.855  17.325 -0.8163 -1.1520 -1.1214
 6263TIP3    H240205   4.923   4.728  17.314 -0.6616 -1.1659  0.0734
 6264TIP3   OH240206   3.203   4.147   2.452  0.6500 -0.8790  0.2524
 6264TIP3    H140207   3.204   4.065   2.502 -0.1261 -1.6752 -0.9724
 6264TIP3    H240208   3.272   4.200   2.491  1.8330 -2.4956  0.4716
 6265TIP3   OH240209   1.060   1.530  11.883 -0.0151 -0.1307 -0.0534
 6265TIP3    H140210   1.150   1.507  11.864 -0.2935 -1.4543  0.1805
 6265TIP3    H240211   1.013   1.447  11.887 -1.4286  0.5685 -1.0652
 6266TIP3   OH240212   1.231   5.990  10.586 -0.2956  0.4459 -0.2027
 6266TIP3    H140213   1.314   5.942  10.575 -0.0896  0.8661 -0.5323
 6266TIP3    H240214   1.166   5.922  10.602  0.0175  0.0611 -0.5258
 6267TIP3   OH240215   1.350   2.601   5.554 -0.2114  0.5374 -0.4391
 6267TIP3    H140216   1.344   2.642   5.640 -0.6977 -1.4507  0.5282
 6267TIP3    H240217   1.276   2.636   5.505 -1.7813 -0.5640  1.0256
 6268TIP3   OH240218   4.844   1.096  16.305  0.0362  0.4595  0.3558
 6268TIP3    H140219   4.840   1.136  16.391 -2.2224 -0.7420  0.8885
 6268TIP3    H240220   4.782   1.147  16.252 -0.3861 -0.2691  0.1373
 6269TIP3   OH240221   4.800   1.757   5.191  0.3583  0.0080 -0.7881
 6269TIP3    H140222   4.834   1.823   5.252 -3.8237  1.7593 -0.0527
 6269TIP3    H240223   4.808   1.799   5.105 -0.1710  0.4906 -0.6018
 6270TIP3   OH240224   4.853   4.315   0.383 -0.6345  0.1442  0.1616
 6270TIP3    H140225   4.857   4.318   0.287 -0.4363  1.2506  0.1940
 6270TIP3    H240226   4.881   4.226   0.405 -2.9833 -0.9539 -0.8959
 6271TIP3   OH240227   1.467   3.145  12.807 -0.0621  0.0611  0.2486
 6271TIP3    H140228   1.546   3.137  12.753 -0.3158  0.2924 -0.1632
 6271TIP3    H240229   1.398   3.167  12.744 -0.7664 -1.6272  0.3721
 6272TIP3   OH240230   6.417   3.109  16.953 -0.0590 -0.4089  0.2711
 6272TIP3    H140231   6.448   3.067  16.873 -0.3276  0.6876 -0.4395
 6272TIP3    H240232   6.327   3.135  16.932 -0.4071 -0.8163  1.2163
 6273TIP3   OH240233   6.155   4.120   3.935  0.6095  0.0648  0.0973
 6273TIP3    H140234   6.175   4.174   4.011  0.4143  0.9066 -0.4469
 6273TIP3    H240235   6.060   4.104   3.942  0.1603  1.9389 -1.1010
 6274TIP3   OH240236   6.237   5.009   6.107  0.0005 -0.1263  0.6452
 6274TIP3    H140237   6.314   4.955   6.123  0.1208 -0.5833 -1.2306
 6274TIP3    H240238   6.263   5.097   6.132  2.2159  0.3055 -2.5531
 6275TIP3   OH240239   3.298   1.599   0.373  0.0209  0.0616 -0.2103
 6275TIP3    H140240   3.380   1.631   0.411  1.3743 -1.6040 -1.5733
 6275TIP3    H240241   3.247   1.679   0.357  1.8724  1.2666 -0.4280
 6276TIP3   OH240242   2.505   3.497   1.933 -0.2618 -0.4258 -0.6206
 6276TIP3    H140243   2.597   3.508   1.909 -0.1830 -1.1947 -0.6885
 6276TIP3    H240244   2.505   3.498   2.028 -0.6275  3.0894 -0.5301
 6277TIP3   OH240245   4.759   0.390   1.269 -0.3717 -0.0595  0.5835
 6277TIP3    H140246   4.813   0.468   1.284  1.9350 -1.4092 -0.2470
 6277TIP3    H240247   4.734   0.361   1.357  0.2276  0.6339  0.9954
 6278TIP3   OH240248   0.225   2.802  12.537 -0.6397  0.0249  0.4513
 6278TIP3    H140249   0.237   2.833  12.627 -0.6600  0.0919  0.4304
 6278TIP3    H240250   0.311   2.767  12.513 -0.0914  1.7124 -0.1717
 6279TIP3   OH240251   5.647   4.908  13.087  0.1974  0.0269 -0.1457
 6279TIP3    H140252   5.626   4.980  13.027  1.2925 -0.7705 -1.5450
 6279TIP3    H240253   5.709   4.946  13.149  1.6482  0.0353 -1.5603
 6280TIP3   OH240254   0.554   2.675  14.243  0.2598  0.2280 -0.2247
 6280TIP3    H140255   0.497   2.712  14.176  1.3307  1.6261 -0.3904
 6280TIP3    H240256   0.643   2.691  14.211  0.8638 -3.3942 -0.8052
 6281TIP3   OH240257   1.147   4.897  11.601 -0.1054  0.2616  0.7417
 6281TIP3    H140258   1.192   4.981  11.595  2.6254 -1.1396 -0.6266
 6281TIP3    H240259   1.196   4.848  11.667  1.0337 -1.5703 -1.3006
 6282TIP3   OH240260   5.367   3.970  16.903 -0.8447 -1.4493 -0.1896
 6282TIP3    H140261   5.454   3.953  16.936  0.1592 -0.0889 -1.9128
 6282TIP3    H240262   5.311   3.975  16.980  1.2981  1.4179  1.3529
 6283TIP3   OH240263   3.601   4.652  15.478 -0.0569  0.4317 -0.3438
 6283TIP3    H140264   3.623   4.737  15.441  3.3898 -0.3679 -0.5445
 6283TIP3    H240265   3.647   4.650  15.562 -2.2151 -0.2958  0.8738
 6284TIP3   OH240266   5.911   2.020  16.233  0.2627 -0.2179 -0.0303
 6284TIP3    H140267   5.851   1.948  16.214  0.6894  0.1849 -3.7174
 6284TIP3    H240268   5.856   2.099  16.230  0.2190 -0.1688  1.4739
 6285TIP3   OH240269   0.160   6.055  15.801 -0.0342 -1.0649 -0.1424
 6285TIP3    H140270   0.162   5.969  15.761  0.1428 -1.1793  0.1109
 6285TIP3    H240271   0.200   6.113  15.736 -0.3422 -1.1371 -0.3960
 6286TIP3   OH240272   1.394   6.600  16.738  0.2211  0.1428  0.3623
 6286TIP3    H140273   1.350   6.672  16.693  0.3709 -0.7189 -1.2483
 6286TIP3    H240274   1.348   6.591  16.821  0.4029  2.2758  0.7522
 6287TIP3   OH240275   3.473   2.108   1.822  0.5940 -0.2545 -0.2766
 6287TIP3    H140276   3.504   2.079   1.907  0.2394 -0.5404 -0.2450
 6287TIP3    H240277   3.429   2.031   1.784 -2.0095  0.7098  0.5769
 6288TIP3   OH240278   0.972   5.826  11.688  0.8237  0.5898 -0.4234
 6288TIP3    H140279   0.958   5.756  11.752  1.0850  1.1189  0.2152
 6288TIP3    H240280   0.941   5.788  11.605  0.9004 -0.2620 -0.0788
 6289TIP3   OH240281   1.175   5.726   4.813  0.2144 -0.3535 -0.3835
 6289TIP3    H140282   1.116   5.668   4.859 -1.1489  0.5267 -0.9593
 6289TIP3    H240283   1.261   5.707   4.850 -0.4557 -1.4594  0.6793
 6290TIP3   OH240284   3.568   4.267   0.990  0.1893  0.2119  0.1060
 6290TIP3    H140285   3.507   4.338   0.969  0.6942  0.7643  0.4648
 6290TIP3    H240286   3.653   4.299   0.959  0.2644 -0.6520 -0.6126
 6291TIP3   OH240287   4.676   0.363  15.161 -0.0188 -0.9316  0.5909
 6291TIP3    H140288   4.683   0.271  15.135  3.0796 -0.2345 -1.5667
 6291TIP3    H240289   4.687   0.362  15.256 -2.2732 -2.8593  0.9454
 6292TIP3   OH240290   5.346   1.746  11.352  0.5504  0.4890 -0.1758
 6292TIP3    H140291   5.381   1.735  11.263  0.4691  1.4634 -0.3430
 6292TIP3    H240292   5.276   1.811  11.342 -2.4099 -2.4706 -0.1082
 6293TIP3   OH240293   5.248   0.983   0.713  0.5883 -0.2351 -0.1021
 6293TIP3    H140294   5.312   1.007   0.647  1.4195 -0.4573  0.6120
 6293TIP3    H240295   5.294   0.992   0.797 -0.0484 -1.2065  0.3752
 6294TIP3   OH240296   2.008   4.727   0.836 -0.1878  0.0346 -0.2327
 6294TIP3    H140297   2.010   4.725   0.932  1.1389  1.5543 -0.1813
 6294TIP3    H240298   2.037   4.639   0.810  0.0473 -0.1941  0.7674
 6295TIP3   OH240299   0.422   1.301   0.449 -0.2649  0.0385 -0.5686
 6295TIP3    H140300   0.366   1.224   0.446  2.1643 -1.8332 -1.7750
 6295TIP3    H240301   0.458   1.300   0.538 -1.4765  0.7858 -0.0503
 6296TIP3   OH240302   1.753   2.740  14.882  0.5760 -0.4842 -0.2984
 6296TIP3    H140303   1.812   2.807  14.918 -1.0369 -0.3027  2.2691
 6296TIP3    H240304   1.766   2.664  14.939  0.2258 -1.3415 -1.3408
 6297TIP3   OH240305   4.627   4.356  11.211 -0.4995  0.0570  0.2738
 6297TIP3    H140306   4.553   4.408  11.179  0.3201  1.5396  0.7234
 6297TIP3    H240307   4.704   4.405  11.184  0.3468 -1.5455 -0.3184
 6298TIP3   OH240308   1.838   3.731   1.292 -0.2979 -0.5374  0.3218
 6298TIP3    H140309   1.786   3.785   1.233 -0.2250 -1.9074 -1.0646
 6298TIP3    H240310   1.790   3.649   1.299  1.0254 -1.3859 -0.0150
 6299TIP3   OH240311   4.668   2.522   6.314  1.0625  0.3542  0.0249
 6299TIP3    H140312   4.695   2.473   6.392  1.3290 -0.1609 -0.3849
 6299TIP3    H240313   4.746   2.572   6.290  0.8035  0.9468  0.4168
 6300TIP3   OH240314   5.795   2.331  17.249  0.6275  0.3585 -0.2054
 6300TIP3    H140315   5.820   2.419  17.223 -1.1244  0.2152 -2.8576
 6300TIP3    H240316   5.722   2.344  17.310  0.5031  0.7743 -0.4348
 6301TIP3   OH240317   4.454   1.999  16.907  0.5018  0.2840  0.0800
 6301TIP3    H140318   4.500   1.947  16.973 -1.2970  2.3650  3.2203
 6301TIP3    H240319   4.421   1.933  16.845  2.1581 -1.8213  1.2724
 6302TIP3   OH240320   0.245   1.669   2.845  0.6566  0.0075  0.6542
 6302TIP3    H140321   0.178   1.719   2.797  2.0807 -1.0916 -2.7674
 6302TIP3    H240322   0.314   1.733   2.862  1.1421 -0.0458 -0.9542
 6303TIP3   OH240323   3.002   2.644   1.368  0.0915  0.3196  0.5081
 6303TIP3    H140324   3.019   2.568   1.312 -1.9894 -0.2866  0.6183
 6303TIP3    H240325   2.914   2.629   1.402  0.0178  2.3276  1.3127
 6304TIP3   OH240326   0.992   6.420  16.472  0.6750 -0.4926 -0.1434
 6304TIP3    H140327   1.041   6.389  16.548  0.4594 -0.7982 -0.1257
 6304TIP3    H240328   1.049   6.402  16.397  0.6096 -0.8143 -0.1195
 6305TIP3   OH240329   4.648   1.183   5.403 -0.5827 -0.2535 -0.0319
 6305TIP3    H140330   4.639   1.106   5.347 -1.0694  1.3434 -2.2914
 6305TIP3    H240331   4.569   1.183   5.457 -1.2697 -0.5667 -1.0242
 6306TIP3   OH240332   6.252   1.312  12.229  0.1110 -0.2590 -0.0877
 6306TIP3    H140333   6.191   1.260  12.281  0.0197  1.8868  2.1339
 6306TIP3    H240334   6.200   1.387  12.200  1.2146  0.6662  0.2763
 6307TIP3   OH240335   6.640   4.358   5.848  0.0851 -0.6853  0.2366
 6307TIP3    H140336   6.585   4.378   5.923 -0.4387 -0.0055 -0.3140
 6307TIP3    H240337   6.724   4.401   5.867 -0.5519  0.8506 -0.2609
 6308TIP3   OH240338   0.642   2.797   2.066 -0.3465 -0.3467  0.3640
 6308TIP3    H140339   0.646   2.727   2.131 -1.2147  1.4316  2.4644
 6308TIP3    H240340   0.555   2.835   2.076 -1.2717 -1.1385 -3.2134
 6309TIP3   OH240341   1.846   3.409   1.735  0.0716 -0.3090 -0.0796
 6309TIP3    H140342   1.909   3.346   1.769 -0.3743  0.0371  1.4728
 6309TIP3    H240343   1.884   3.495   1.755 -0.9151 -0.0960  0.9612
 6310TIP3   OH240344   0.745   5.774   3.203  0.5190  0.0321  0.4879
 6310TIP3    H140345   0.809   5.762   3.273  1.3396  0.0277 -0.2608
 6310TIP3    H240346   0.709   5.862   3.219  0.8428  0.1116  0.7910
 6311TIP3   OH240347   6.580   0.939   2.730  0.4797  0.1121  0.5675
 6311TIP3    H140348   6.553   0.992   2.655 -0.5512  1.2061  1.6765
 6311TIP3    H240349   6.673   0.923   2.715  0.5426  1.2214 -0.4072
 6312TIP3   OH240350   1.021   1.702  13.369 -0.2265 -0.5531  0.3092
 6312TIP3    H140351   0.955   1.689  13.301 -1.2447  0.0404  1.1462
 6312TIP3    H240352   0.973   1.689  13.451  0.6720  0.0099  0.9407
 6313TIP3   OH240353   4.259   0.686   6.379  0.0477 -0.4082 -0.0850
 6313TIP3    H140354   4.211   0.603   6.373 -1.7177  0.6097 -0.9626
 6313TIP3    H240355   4.333   0.676   6.319  0.8625 -1.9224  1.0943
 6314TIP3   OH240356   2.088   0.685  12.206 -0.3944 -0.3959 -0.2984
 6314TIP3    H140357   2.022   0.618  12.185 -0.1543 -0.8584  0.3760
 6314TIP3    H240358   2.084   0.692  12.302  0.4693 -0.3586 -0.2631
 6315TIP3   OH240359   5.574   5.652   3.332  0.6573 -0.0068  0.1736
 6315TIP3    H140360   5.587   5.558   3.314  0.9394 -0.5297  2.7073
 6315TIP3    H240361   5.504   5.678   3.274  1.9406 -1.2674 -2.0736
 6316TIP3   OH240362   3.145   4.436  15.951 -0.4489  0.1892  0.0638
 6316TIP3    H140363   3.090   4.361  15.973 -0.2129  0.1553  0.5580
 6316TIP3    H240364   3.130   4.451  15.858  0.0100 -0.8918 -0.1975
 6317TIP3   OH240365   3.965   2.518  11.293  0.4552  0.2596 -0.1921
 6317TIP3    H140366   3.895   2.550  11.350  0.6475  1.8524 -0.7831
 6317TIP3    H240367   3.921   2.493  11.212  0.4174  0.0205 -0.0967
 6318TIP3   OH240368   4.505   1.083  12.551  0.0265  0.0541 -0.2517
 6318TIP3    H140369   4.546   1.001  12.579  0.2731  0.3975  0.4149
 6318TIP3    H240370   4.482   1.068  12.459  0.3730 -0.6409 -0.2326
 6319TIP3   OH240371   2.601   0.676  14.084 -0.4793  0.1986 -0.0504
 6319TIP3    H140372   2.593   0.655  13.991 -0.1485  1.4151 -0.3727
 6319TIP3    H240373   2.688   0.714  14.093  0.1525 -1.4098  1.0813
 6320TIP3   OH240374   5.099   1.889  14.129 -0.3536 -0.0325  0.0780
 6320TIP3    H140375   5.086   1.954  14.198  0.6965 -0.2716  0.5254
 6320TIP3    H240376   5.010   1.867  14.100 -0.7040  2.0261 -0.5205
 6321TIP3   OH240377   2.917   5.527  15.227  0.0963  0.6735 -0.0241
 6321TIP3    H140378   2.897   5.433  15.232 -1.6927  1.0983  3.1509
 6321TIP3    H240379   3.012   5.530  15.221  0.5345 -1.4297  3.2387
 6322TIP3   OH240380   2.581   2.347   1.000 -0.1426 -0.1854 -0.6864
 6322TIP3    H140381   2.553   2.386   1.083 -1.0606  1.7476 -1.8195
 6322TIP3    H240382   2.665   2.388   0.982  0.7851 -1.7306 -0.0282
 6323TIP3   OH240383   1.534   4.951  13.939 -0.4546  0.1681  0.5933
 6323TIP3    H140384   1.471   4.879  13.943  0.1485 -0.5315 -1.3092
 6323TIP3    H240385   1.520   4.990  13.853  2.7294 -1.0562 -0.6186
 6324TIP3   OH240386   1.529   0.873   4.509 -0.2380  0.1566  0.6027
 6324TIP3    H140387   1.520   0.862   4.603  1.1889 -3.1720  0.4806
 6324TIP3    H240388   1.623   0.884   4.495 -0.4983  1.3214 -0.4105
 6325TIP3   OH240389   1.195   1.174   0.916  0.4357  0.2341  0.2653
 6325TIP3    H140390   1.270   1.191   0.859 -1.2909  0.5310 -2.0759
 6325TIP3    H240391   1.220   1.211   1.000  2.8949  0.3252 -0.4144
 6326TIP3   OH240392   6.386   3.396  15.189 -0.1043 -0.1607 -0.6931
 6326TIP3    H140393   6.473   3.355  15.195 -0.6888 -1.5473 -1.2372
 6326TIP3    H240394   6.396   3.462  15.121  1.0191  1.0802  0.6191
 6327TIP3   OH240395   0.903   4.749   1.139 -0.7578  0.6145 -0.3663
 6327TIP3    H140396   0.913   4.701   1.057  1.1335 -1.3145  0.8842
 6327TIP3    H240397   0.817   4.723   1.172 -0.8236  0.1052 -0.9283
 6328TIP3   OH240398   0.650   2.537  16.544  0.0788  0.0049  0.0614
 6328TIP3    H140399   0.650   2.558  16.638 -1.3405  0.0056  0.0753
 6328TIP3    H240400   0.699   2.455  16.539  0.8989  0.4377  0.6902
 6329TIP3   OH240401   1.570   5.143  11.385  0.2640 -0.1486 -0.1867
 6329TIP3    H140402   1.546   5.234  11.368  2.7104  0.3159 -1.6950
 6329TIP3    H240403   1.574   5.138  11.481 -3.8196  0.0885  0.1777
 6330TIP3   OH240404   2.358   6.125  14.580  0.3238 -0.6742 -0.1039
 6330TIP3    H140405   2.344   6.220  14.581 -1.4395 -0.8711 -1.1776
 6330TIP3    H240406   2.376   6.103  14.672 -1.3433  0.4449  0.5561
 6331TIP3   OH240407   3.747   6.208  17.336 -0.0818 -0.0082 -0.5113
 6331TIP3    H140408   3.698   6.146  17.281  2.3183 -2.0819 -0.5097
 6331TIP3    H240409   3.776   6.155  17.410  1.2018  1.4092  0.0381
 6332TIP3   OH240410   1.236   4.490  14.095 -0.2440 -0.0964  0.1728
 6332TIP3    H140411   1.162   4.504  14.154  0.1743  0.1295  0.6521
 6332TIP3    H240412   1.204   4.518  14.009 -1.9229 -3.2351 -0.4113
 6333TIP3   OH240413   2.425   3.900   4.669 -0.2492 -0.1107 -0.5830
 6333TIP3    H140414   2.350   3.938   4.623  0.0138 -0.1789 -1.0708
 6333TIP3    H240415   2.387   3.829   4.721 -0.5476 -0.0424 -0.7018
 6334TIP3   OH240416   3.628   5.336   2.563 -0.6860 -0.0448 -0.1232
 6334TIP3    H140417   3.662   5.396   2.496 -1.1701 -0.0988 -0.4165
 6334TIP3    H240418   3.687   5.261   2.560  0.6219  0.8719  1.0188
 6335TIP3   OH240419   0.204   5.891   0.986  0.3747  0.1072 -0.1274
 6335TIP3    H140420   0.297   5.874   1.003  0.2668 -0.2888  0.0874
 6335TIP3    H240421   0.171   5.807   0.953 -0.3555 -0.3608  1.6911
 6336TIP3   OH240422   6.130   2.425  14.761 -0.1045  0.3471  0.0876
 6336TIP3    H140423   6.126   2.519  14.743 -1.3841  0.4995  1.0357
 6336TIP3    H240424   6.038   2.397  14.761  0.0802 -0.4119  2.2142
 6337TIP3   OH240425   5.587   3.909  10.809  0.6711  0.4813  0.2418
 6337TIP3    H140426   5.550   3.993  10.836  0.9520  0.4088  0.8766
 6337TIP3    H240427   5.567   3.850  10.882 -0.5460 -0.3147 -0.6885
 6338TIP3   OH240428   0.767   6.040  17.467  0.6736  0.8038  0.2972
 6338TIP3    H140429   0.852   6.046  17.424  0.2166 -0.9890 -0.9818
 6338TIP3    H240430   0.734   5.952  17.445 -0.6524  0.6795  2.3929
 6339TIP3   OH240431   2.451   5.296  11.377 -0.8797  0.3707  0.2807
 6339TIP3    H140432   2.534   5.342  11.391  0.4694 -1.9989  0.5848
 6339TIP3    H240433   2.443   5.289  11.282  0.7627 -1.7631  0.2217
 6340TIP3   OH240434   4.882   3.143  16.118  0.5006  0.4239  0.1272
 6340TIP3    H140435   4.837   3.118  16.038  1.0248 -0.1112 -0.0144
 6340TIP3    H240436   4.864   3.072  16.180 -1.2275  1.5974  1.0375
 6341TIP3   OH240437   4.212   5.750   2.450 -0.0881  0.5890 -0.9040
 6341TIP3    H140438   4.284   5.756   2.513  0.3634 -0.8988 -1.2325
 6341TIP3    H240439   4.166   5.834   2.457  0.0874  0.5551  1.2195
 6342TIP3   OH240440   0.608   6.068  14.295  0.8898  0.3060 -0.1566
 6342TIP3    H140441   0.578   6.144  14.346 -0.8138  0.4145 -1.2266
 6342TIP3    H240442   0.663   6.105  14.226 -0.2158  0.6698 -0.8862
 6343TIP3   OH240443   0.205   6.484  14.272 -0.1898 -0.2626 -0.1676
 6343TIP3    H140444   0.250   6.505  14.354  0.6109 -1.5924 -0.2459
 6343TIP3    H240445   0.157   6.403  14.291 -0.5559 -0.2075 -0.8228
 6344TIP3   OH240446   5.968   5.239   4.306 -0.2327 -0.0303 -0.1235
 6344TIP3    H140447   6.003   5.305   4.246 -0.8243  0.0792 -0.3494
 6344TIP3    H240448   6.012   5.158   4.281 -1.7439 -0.3688 -1.8956
 6345TIP3   OH240449   1.927   5.984   5.878 -0.3590 -0.1839  0.2393
 6345TIP3    H140450   2.018   6.007   5.858 -0.5183 -0.5857 -1.0090
 6345TIP3    H240451   1.875   6.043   5.824 -0.7890 -1.9781 -1.4243
 6346TIP3   OH240452   6.635   3.547   0.269  0.2160  0.0540  0.4514
 6346TIP3    H140453   6.637   3.641   0.287 -1.0310  0.1386  0.2800
 6346TIP3    H240454   6.583   3.540   0.189  1.0874 -0.7187 -0.0685
 6347TIP3   OH240455   6.685   0.843  11.117 -0.3382  0.4692 -0.6701
 6347TIP3    H140456   6.651   0.762  11.078 -1.4799  1.8032 -2.6460
 6347TIP3    H240457   6.771   0.855  11.076  0.0191  0.0542 -0.0525
 6348TIP3   OH240458   3.277   1.862   1.399 -0.3394 -0.4190 -0.5815
 6348TIP3    H140459   3.361   1.820   1.379 -0.6179 -0.8037 -0.9670
 6348TIP3    H240460   3.275   1.939   1.342  0.4064  0.4354  0.5063
 6349TIP3   OH240461   2.625   2.214  17.354 -0.4214  0.9376 -0.3815
 6349TIP3    H140462   2.542   2.249  17.384 -0.4983  1.0338 -0.7009
 6349TIP3    H240463   2.650   2.270  17.280 -0.9912 -0.1910 -1.4801
 6350TIP3   OH240464   2.372   3.279   5.831  0.0990  0.3060  0.5731
 6350TIP3    H140465   2.400   3.190   5.852 -1.8590 -0.5330 -0.0875
 6350TIP3    H240466   2.286   3.287   5.872 -0.8317  0.9872 -1.3659
 6351TIP3   OH240467   4.755   6.246  12.829  0.3667 -0.2840 -0.1607
 6351TIP3    H140468   4.761   6.329  12.876  0.4830 -2.2214  3.7131
 6351TIP3    H240469   4.841   6.234  12.790  0.7921  0.8119  0.3934
 6352TIP3   OH240470   0.464   1.944   2.284  0.1855 -0.4731  0.2809
 6352TIP3    H140471   0.529   1.914   2.220 -0.7103  0.5663 -1.1704
 6352TIP3    H240472   0.413   1.866   2.303  0.7801 -0.9124  0.1202
 6353TIP3   OH240473   1.156   0.078   4.644 -0.1484  0.0803 -0.0533
 6353TIP3    H140474   1.067   0.091   4.613 -0.1925 -0.9783 -0.4384
 6353TIP3    H240475   1.200   0.161   4.627 -1.2350  0.8636  0.8184
 6354TIP3   OH240476   1.088   3.248  14.017  0.0540  0.4919 -0.2958
 6354TIP3    H140477   1.093   3.212  14.106  2.3947 -1.0973 -0.9456
 6354TIP3    H240478   1.160   3.310  14.013  0.2075  0.2697 -1.1645
 6355TIP3   OH240479   1.704   6.478   5.628 -0.0997 -0.4391 -0.4270
 6355TIP3    H140480   1.684   6.550   5.687  1.0010  0.1398 -0.7348
 6355TIP3    H240481   1.733   6.407   5.686 -0.0358 -0.2269 -0.1987
 6356TIP3   OH240482   6.174   2.591  16.888 -0.1242 -0.5480  0.0940
 6356TIP3    H140483   6.121   2.648  16.831  0.0260 -2.6124 -2.2791
 6356TIP3    H240484   6.263   2.622  16.876 -0.1829 -0.4986 -0.2376
 6357TIP3   OH240485   0.504   0.874   6.131 -0.3735  0.0858  0.1071
 6357TIP3    H140486   0.491   0.779   6.121 -0.1244 -0.0433  0.8840
 6357TIP3    H240487   0.553   0.882   6.213  1.7995  0.7558 -1.1832
 6358TIP3   OH240488   2.134   6.561  13.108  0.2517  0.0145 -0.2177
 6358TIP3    H140489   2.139   6.501  13.182 -0.0678 -0.4487 -0.5727
 6358TIP3    H240490   2.215   6.613  13.115  1.4782 -1.7046 -0.9896
 6359TIP3   OH240491   3.502   5.855   2.282  0.3722  0.0482 -0.6506
 6359TIP3    H140492   3.442   5.930   2.276  2.0845  1.7359  1.5685
 6359TIP3    H240493   3.588   5.892   2.263  1.0840 -1.7560 -1.1561
 6360TIP3   OH240494   4.704   3.189  14.624  0.4705 -0.3759  0.1487
 6360TIP3    H140495   4.672   3.279  14.631  1.0900 -0.0133 -1.2439
 6360TIP3    H240496   4.787   3.190  14.672  0.4563 -0.1945  0.1708
 6361TIP3   OH240497   0.983   6.615   1.964 -0.0026 -0.2126  0.0487
 6361TIP3    H140498   0.974   6.655   2.050 -1.0909  2.3836 -1.1620
 6361TIP3    H240499   1.039   6.539   1.979 -1.8563 -1.1114  3.3631
 6362TIP3   OH240500   6.219   4.719  17.285  0.1788  0.1167  0.4640
 6362TIP3    H140501   6.253   4.732  17.373 -2.0785 -0.2914  1.4546
 6362TIP3    H240502   6.232   4.626  17.268  0.4705  0.1645  0.4185
 6363TIP3   OH240503   5.027   5.329  11.633 -0.1759 -0.7028 -0.0418
 6363TIP3    H140504   5.067   5.410  11.602  0.5623 -0.8608  0.4516
 6363TIP3    H240505   5.003   5.281  11.553  2.2360 -1.3817 -0.4448
 6364TIP3   OH240506   3.629   2.623   0.765  0.1139 -0.1677  0.4845
 6364TIP3    H140507   3.695   2.671   0.817  1.7851  0.4638 -2.0316
 6364TIP3    H240508   3.568   2.691   0.735  0.9190  0.0072 -0.8337
 6365TIP3   OH240509   1.353   1.068  12.532 -0.0890  0.0225 -0.4409
 6365TIP3    H140510   1.408   1.078  12.610  1.0165  1.7666 -1.3758
 6365TIP3    H240511   1.405   1.015  12.473 -0.6736 -0.7829 -0.2527
 6366TIP3   OH240512   0.432   1.257   5.128 -0.1259  1.3195  0.1872
 6366TIP3    H140513   0.435   1.204   5.208 -0.9722  1.6687  0.4658
 6366TIP3    H240514   0.509   1.314   5.133  2.6165 -1.8775 -1.5812
 6367TIP3   OH240515   5.572   3.103   0.070  0.2731  0.0530 -0.2602
 6367TIP3    H140516   5.590   3.160   0.145  1.0430  0.3257 -0.6452
 6367TIP3    H240517   5.480   3.119   0.050  0.1948  0.3603  0.3013
 6368TIP3   OH240518   1.451   5.343   4.845 -0.1767 -0.6504 -0.5453
 6368TIP3    H140519   1.491   5.351   4.931 -0.1186 -1.0094 -0.5375
 6368TIP3    H240520   1.441   5.249   4.832 -2.2492 -0.5539  0.0308
 6369TIP3   OH240521   6.418   2.461  16.158  0.5807  0.2176 -0.3600
 6369TIP3    H140522   6.363   2.533  16.127  0.4056  0.0863 -0.3545
 6369TIP3    H240523   6.415   2.469  16.254 -1.9297 -1.5959 -0.1636
 6370TIP3   OH240524   4.452   6.472  15.493  0.2303  0.3203 -0.2075
 6370TIP3    H140525   4.510   6.409  15.449  0.8836  0.8601 -0.1254
 6370TIP3    H240526   4.372   6.421  15.511  0.3412 -0.1953 -1.0824
 6371TIP3   OH240527   5.590   2.381  15.065 -0.1639  0.3139  0.0334
 6371TIP3    H140528   5.667   2.435  15.081  0.8152 -1.1431  0.4222
 6371TIP3    H240529   5.611   2.297  15.105 -1.7025 -0.3213 -0.4260
 6372TIP3   OH240530   2.758   3.644   5.744  0.4826 -0.1184  0.4345
 6372TIP3    H140531   2.700   3.573   5.770  0.9510 -0.1383  1.4922
 6372TIP3    H240532   2.810   3.608   5.672 -0.5007 -0.2327 -0.2434
 6373TIP3   OH240533   3.822   2.186   2.511 -0.3009  0.2332  0.3644
 6373TIP3    H140534   3.845   2.098   2.539  2.4757  0.4855 -0.8219
 6373TIP3    H240535   3.726   2.187   2.513 -0.4929 -3.1362 -0.5635
 6374TIP3   OH240536   6.496   5.534  13.889  0.6848 -0.1575 -0.5356
 6374TIP3    H140537   6.502   5.456  13.944 -2.4076  0.8270  1.4705
 6374TIP3    H240538   6.415   5.522  13.840  1.4784  0.7039 -2.1074
 6375TIP3   OH240539   5.804   3.083  16.514  0.2832  0.2984  0.1635
 6375TIP3    H140540   5.804   3.159  16.573  0.2591  0.2124  0.2742
 6375TIP3    H240541   5.718   3.085  16.472  0.1956  0.2016  0.3356
 6376TIP3   OH240542   4.531   4.584  12.514 -1.0344 -0.2150 -0.1210
 6376TIP3    H140543   4.478   4.514  12.475 -1.7573  0.7488 -0.9187
 6376TIP3    H240544   4.470   4.634  12.568 -0.7590  0.4277 -0.3945
 6377TIP3   OH240545   3.145   5.721  16.249  0.0444  0.3098  0.6019
 6377TIP3    H140546   3.137   5.636  16.206 -2.3572 -0.3202  2.1060
 6377TIP3    H240547   3.197   5.704  16.327 -0.7169  0.1308  1.0770
 6378TIP3   OH240548   5.071   1.412   5.424  0.2074  0.2918  0.2780
 6378TIP3    H140549   4.982   1.402   5.392  0.2009 -1.7367  0.7490
 6378TIP3    H240550   5.109   1.482   5.371 -2.1200  2.3511  1.1542
 6379TIP3   OH240551   1.188   0.358   1.471 -0.6324 -0.0182  0.0728
 6379TIP3    H140552   1.191   0.424   1.541 -0.1387 -0.4220  0.4379
 6379TIP3    H240553   1.096   0.354   1.446 -0.4568  2.1636 -1.2621
 6380TIP3   OH240554   2.118   5.934  14.882 -0.7403 -0.1097  0.7035
 6380TIP3    H140555   2.110   5.934  14.977  0.8993 -0.4696  0.8790
 6380TIP3    H240556   2.190   5.994  14.864 -1.0335 -0.0430 -0.3165
 6381TIP3   OH240557   3.628   1.478  11.511  0.1900  0.3157 -0.1217
 6381TIP3    H140558   3.605   1.482  11.418  0.5142 -0.1721 -0.2268
 6381TIP3    H240559   3.583   1.399  11.543 -3.1056  2.4430  1.0375
 6382TIP3   OH240560   0.868   0.840   5.840  0.0454 -0.0240 -0.2008
 6382TIP3    H140561   0.867   0.838   5.744  0.7606  2.9200 -0.3512
 6382TIP3    H240562   0.786   0.885   5.863  0.4128  0.2893  0.5008
 6383TIP3   OH240563   5.526   5.374  15.030 -0.2742 -0.0128 -0.4341
 6383TIP3    H140564   5.541   5.306  14.965 -0.0314 -1.2153  0.8211
 6383TIP3    H240565   5.575   5.449  14.998  2.4236 -1.5069 -0.1805
 6384TIP3   OH240566   4.606   5.205   0.810 -0.1876 -0.6657  0.1034
 6384TIP3    H140567   4.563   5.261   0.746  0.1369 -0.5948 -0.0553
 6384TIP3    H240568   4.687   5.251   0.832 -0.0892 -0.9000  0.2382
 6385TIP3   OH240569   6.530   0.789  17.139  0.4800  0.0312 -0.2114
 6385TIP3    H140570   6.520   0.879  17.168  1.9993  0.2790 -0.3713
 6385TIP3    H240571   6.527   0.794  17.043  0.5103 -0.0995 -0.2196
 6386TIP3   OH240572   0.491   6.351  12.591 -0.5211  0.7995 -0.2403
 6386TIP3    H140573   0.411   6.377  12.545  0.3572  1.2757 -1.5643
 6386TIP3    H240574   0.523   6.276  12.542  1.5192  2.5347 -1.7766
 6387TIP3   OH240575   1.276   2.658  17.168  0.0133  0.1068 -0.1203
 6387TIP3    H140576   1.312   2.746  17.162 -1.8646  0.8417 -1.4088
 6387TIP3    H240577   1.315   2.611  17.094 -1.6403  0.9305 -1.5786
 6388TIP3   OH240578   0.854   5.656  15.393 -0.3776  0.0800  0.0326
 6388TIP3    H140579   0.876   5.575  15.349 -0.8713  0.1075 -0.2734
 6388TIP3    H240580   0.905   5.723  15.347 -0.5672  0.0493 -0.2259
 6389TIP3   OH240581   3.316   3.265   5.514 -0.2490  0.1693 -0.5870
 6389TIP3    H140582   3.254   3.333   5.542 -0.2705  0.5447 -1.4918
 6389TIP3    H240583   3.260   3.193   5.485 -0.2233 -0.5147  0.9622
 6390TIP3   OH240584   5.121   1.129  16.269  0.0294  0.1292  0.4792
 6390TIP3    H140585   5.034   1.113  16.304  0.3702 -1.9434  0.4728
 6390TIP3    H240586   5.106   1.152  16.177 -0.4602 -2.1438 -0.0660
 6391TIP3   OH240587   6.061   1.680   1.226  0.1205  0.3179 -0.2001
 6391TIP3    H140588   6.024   1.593   1.239  0.3809  0.2554  0.1301
 6391TIP3    H240589   6.111   1.674   1.145 -0.0671  0.2288 -0.3096
 6392TIP3   OH240590   2.619   5.762  15.306 -0.2438  0.1975 -0.2390
 6392TIP3    H140591   2.598   5.850  15.275  1.1912  1.5292  2.2429
 6392TIP3    H240592   2.667   5.722  15.234  0.8380  2.2154 -0.7236
 6393TIP3   OH240593   2.894   5.712  13.418  0.8635  0.2900 -0.2708
 6393TIP3    H140594   2.801   5.731  13.431  0.7837  0.2139 -0.7111
 6393TIP3    H240595   2.923   5.778  13.355  1.4240  1.1308  0.8173
 6394TIP3   OH240596   6.357   5.974  12.699  0.4838  0.5664  0.7887
 6394TIP3    H140597   6.334   6.014  12.616  0.3535  1.3216  1.1835
 6394TIP3    H240598   6.363   5.880  12.680  0.4566  0.7347 -0.0641
 6395TIP3   OH240599   5.097   6.484  15.098 -0.2378  0.0651  0.2997
 6395TIP3    H140600   5.100   6.554  15.163 -1.1996  0.0217  0.4070
 6395TIP3    H240601   5.169   6.503  15.038  0.5079  0.2517  1.2246
 6396TIP3   OH240602   0.221   4.914  13.041  0.1856  0.3293  0.4932
 6396TIP3    H140603   0.258   4.873  12.963 -0.3961 -1.1032  0.9462
 6396TIP3    H240604   0.129   4.886  13.043  0.3150 -0.1123  1.9592
 6397TIP3   OH240605   1.911   3.593   5.659  0.2432 -0.4345 -0.0402
 6397TIP3    H140606   1.890   3.681   5.692  1.0579 -0.4280  0.5039
 6397TIP3    H240607   1.914   3.603   5.564  0.9951  0.2992  0.0456
 6398TIP3   OH240608   1.516   3.125  17.484  0.4066  0.3844  0.1720
 6398TIP3    H140609   1.458   3.050  17.500  0.8368  0.3538  1.7461
 6398TIP3    H240610   1.604   3.091  17.501  0.5513  1.4011  1.6204
 6399TIP3   OH240611   5.390   1.555   3.598 -0.3416 -0.2519  0.0166
 6399TIP3    H140612   5.332   1.589   3.666  0.0060  0.9139 -0.2453
 6399TIP3    H240613   5.391   1.460   3.612  0.6111  0.0317  2.3453
 6400TIP3   OH240614   0.670   4.162  15.199 -0.4720  0.2757  0.2765
 6400TIP3    H140615   0.582   4.124  15.199 -1.2187  1.9477 -0.1343
 6400TIP3    H240616   0.672   4.219  15.276  0.2994  0.1601  0.3517
 6401TIP3   OH240617   0.743   4.580  16.805  0.1903  0.8655  0.5966
 6401TIP3    H140618   0.789   4.519  16.748 -1.3085 -0.6109  0.8843
 6401TIP3    H240619   0.738   4.661  16.754 -0.5884 -0.2313 -1.1889
 6402TIP3   OH240620   1.310   2.013  16.367 -0.0698 -0.0862  0.2266
 6402TIP3    H140621   1.261   2.078  16.316  0.8789  2.2568  2.1311
 6402TIP3    H240622   1.253   1.992  16.441  0.3108 -0.1699  0.4975
 6403TIP3   OH240623   5.539   2.687  16.803 -0.1964 -0.5961  0.4141
 6403TIP3    H140624   5.457   2.666  16.759 -0.4453 -1.2409  1.1562
 6403TIP3    H240625   5.602   2.701  16.732 -0.8002 -0.7030 -0.1477
 6404TIP3   OH240626   1.348   3.867  13.705 -0.3167  0.8184 -0.2442
 6404TIP3    H140627   1.372   3.813  13.630 -2.2655 -0.6915  0.1303
 6404TIP3    H240628   1.252   3.863  13.708 -0.3628  2.0936  1.4167
 6405TIP3   OH240629   1.055   4.630  14.623 -0.5095 -0.1517  0.2094
 6405TIP3    H140630   0.976   4.671  14.659 -0.7722 -0.5420  0.0933
 6405TIP3    H240631   1.048   4.643  14.529 -0.4987 -0.2909  0.1894
 6406TIP3   OH240632   5.143   3.552   6.216  0.3945  0.4114  0.3456
 6406TIP3    H140633   5.073   3.616   6.231  0.2461  0.3871 -0.2471
 6406TIP3    H240634   5.167   3.523   6.304 -0.1560  0.6185  0.5691
 6407TIP3   OH240635   1.781   4.974  16.064  0.5511 -0.3352  0.0625
 6407TIP3    H140636   1.710   5.037  16.050  1.6372  1.3675  1.7790
 6407TIP3    H240637   1.758   4.900  16.008 -1.0949  1.3214 -1.6176
 6408TIP3   OH240638   0.619   4.222  14.722  0.1810  0.4661  0.3574
 6408TIP3    H140639   0.666   4.203  14.802 -0.6385  3.0486  1.5714
 6408TIP3    H240640   0.680   4.200  14.652  1.3019 -0.8607  1.6988
 6409TIP3   OH240641   3.568   0.174  10.956  0.6947 -0.2418 -0.0636
 6409TIP3    H140642   3.596   0.252  10.908  0.4895 -0.7037 -0.9573
 6409TIP3    H240643   3.475   0.188  10.972  0.6633 -0.2873 -0.2026
 6410TIP3   OH240644   5.991   5.053  12.842 -0.3959  0.0311 -0.0343
 6410TIP3    H140645   5.995   5.008  12.758  2.5503  1.3366 -0.7291
 6410TIP3    H240646   6.037   4.994  12.902 -1.4994 -0.3798  0.4349
 6411TIP3   OH240647   0.899   4.557   0.910  0.0775 -0.4684  0.4920
 6411TIP3    H140648   0.973   4.532   0.855 -0.7209  0.9081 -1.2939
 6411TIP3    H240649   0.902   4.495   0.984  2.1343 -1.3358 -0.2502
 6412TIP3   OH240650   4.603   6.030   2.038  0.1861 -0.0389 -0.0076
 6412TIP3    H140651   4.545   5.961   2.069  0.6366 -0.7304 -0.6707
 6412TIP3    H240652   4.639   5.996   1.957  1.1380  0.5887  0.1397
 6413TIP3   OH240653   2.336   0.567   4.596  0.2188  0.3983 -0.0946
 6413TIP3    H140654   2.360   0.622   4.522 -1.1411 -0.0302 -0.8884
 6413TIP3    H240655   2.348   0.478   4.565 -1.1397  0.2001 -0.1096
 6414TIP3   OH240656   4.297   0.069  11.869  0.5606 -0.4473 -0.5616
 6414TIP3    H140657   4.381   0.051  11.912  0.3934 -1.1145 -0.5064
 6414TIP3    H240658   4.318   0.136  11.804  0.7424  0.8660  0.8004
 6415TIP3   OH240659   2.502   1.162  14.376 -0.1397  0.4470  0.0944
 6415TIP3    H140660   2.553   1.234  14.340 -1.8318  1.4104 -0.4634
 6415TIP3    H240661   2.412   1.180  14.349 -0.7333 -1.4225  0.6790
 6416TIP3   OH240662   0.350   0.263   1.297  0.3325  0.0571 -0.0070
 6416TIP3    H140663   0.352   0.233   1.388 -0.6014  0.1587  0.0509
 6416TIP3    H240664   0.287   0.205   1.253  2.0226 -1.1229 -1.0166
 6417TIP3   OH240665   5.842   0.583   4.649  0.2279  0.1668  0.1458
 6417TIP3    H140666   5.822   0.539   4.567  1.0184  0.9631 -0.4795
 6417TIP3    H240667   5.758   0.622   4.675 -0.1542 -0.5347  0.0183
 6418TIP3   OH240668   5.978   3.181   2.913  0.1395 -0.3432  0.0871
 6418TIP3    H140669   6.000   3.103   2.964  1.6761 -0.2898 -0.4421
 6418TIP3    H240670   5.882   3.182   2.912  0.0796 -1.8218  0.7097
 6419TIP3   OH240671   3.974   3.293   2.100  0.0469  0.0965 -0.0161
 6419TIP3    H140672   3.980   3.387   2.121 -2.0633 -0.1116  1.9242
 6419TIP3    H240673   3.920   3.289   2.022 -0.0343  0.4799  0.0169
 6420TIP3   OH240674   1.840   4.373  13.309 -0.0892  0.0141  0.2679
 6420TIP3    H140675   1.897   4.320  13.253 -0.0984  1.0109 -0.7135
 6420TIP3    H240676   1.853   4.337  13.397 -0.3961 -1.8844 -0.4032
 6421TIP3   OH240677   0.746   4.575   3.258  0.2011  0.3543  0.1885
 6421TIP3    H140678   0.780   4.638   3.322 -0.6067  0.8270  0.1631
 6421TIP3    H240679   0.768   4.489   3.294  0.0180  0.6264  0.9564
 6422TIP3   OH240680   5.243   1.413   6.273  0.8566  0.1148  0.6774
 6422TIP3    H140681   5.174   1.459   6.227  0.7941 -0.6595 -0.0268
 6422TIP3    H240682   5.256   1.463   6.354 -2.2643 -1.0743  2.0901
 6423TIP3   OH240683   4.298   1.295  15.250  0.1409 -0.7390  0.6907
 6423TIP3    H140684   4.347   1.375  15.270 -0.5977 -0.4164  1.2921
 6423TIP3    H240685   4.329   1.232  15.314 -0.8639 -0.2590  1.6998
 6424TIP3   OH240686   5.373   2.197  14.533 -0.0230 -0.1434 -0.6822
 6424TIP3    H140687   5.456   2.150  14.540  0.1490 -0.1452 -2.2606
 6424TIP3    H240688   5.311   2.131  14.502 -0.6484 -0.1522  0.5270
 6425TIP3   OH240689   5.639   5.598   2.981 -0.1228 -0.2109 -0.1705
 6425TIP3    H140690   5.573   5.662   2.954 -0.4487 -0.1635  0.6987
 6425TIP3    H240691   5.588   5.520   3.004  0.0454  0.1043  1.3160
 6426TIP3   OH240692   5.425   5.879   2.885  0.5714 -0.4082  0.2323
 6426TIP3    H140693   5.449   5.898   2.794  3.9430  1.9914  1.4251
 6426TIP3    H240694   5.343   5.926   2.899  1.8109  2.2441 -0.7091
 6427TIP3   OH240695   3.409   6.737  15.033 -0.1372 -0.2415  0.1321
 6427TIP3    H140696   3.411   6.807  14.967  0.9096 -1.5829 -1.3469
 6427TIP3    H240697   3.323   6.696  15.021  0.2596 -0.8338 -0.8451
 6428TIP3   OH240698   1.587   4.871  11.956  0.0384  0.2312  0.0206
 6428TIP3    H140699   1.620   4.960  11.949 -1.2604  0.6707 -0.7766
 6428TIP3    H240700   1.653   4.818  11.910  0.0313  0.9911 -0.9103
 6429TIP3   OH240701   0.230   3.058   1.436  1.1543 -0.2088  0.5853
 6429TIP3    H140702   0.162   3.124   1.425  2.1755  0.7447 -0.2368
 6429TIP3    H240703   0.234   3.012   1.352 -0.5073 -2.3411  1.5682
 6430TIP3   OH240704   5.803   6.635  12.797 -0.3144  0.3057 -0.0116
 6430TIP3    H140705   5.887   6.594  12.777 -1.0834 -2.3548  1.6948
 6430TIP3    H240706   5.805   6.719  12.750  1.7985 -1.1940 -2.9112
 6431TIP3   OH240707   5.636   2.202  15.337 -0.4449  0.0803  0.0125
 6431TIP3    H140708   5.704   2.261  15.304 -1.8669  0.6016 -2.2162
 6431TIP3    H240709   5.606   2.244  15.418 -1.2344  2.3706 -1.3650
 6432TIP3   OH240710   1.617   1.931   1.770  0.2422  0.2857  0.3602
 6432TIP3    H140711   1.561   1.916   1.694  0.1129  0.6207  0.3886
 6432TIP3    H240712   1.673   2.004   1.744 -0.1630  0.7499  0.7795
 6433TIP3   OH240713   6.666   1.356   0.551 -0.1326 -0.5423 -0.1405
 6433TIP3    H140714   6.738   1.320   0.499  0.9453  0.4093  0.6323
 6433TIP3    H240715   6.649   1.442   0.512 -0.8053 -0.7218 -0.2612
 6434TIP3   OH240716   1.204   2.163  11.556 -0.3479  1.0323  0.5630
 6434TIP3    H140717   1.199   2.247  11.602 -0.8688  1.6524 -0.5879
 6434TIP3    H240718   1.189   2.185  11.464  0.6762 -0.1695  0.0777
 6435TIP3   OH240719   0.748   2.866   1.049 -0.6018 -0.1874  0.3940
 6435TIP3    H140720   0.822   2.835   1.101  0.2642 -0.1326 -0.7671
 6435TIP3    H240721   0.736   2.957   1.076 -1.0026 -0.5255  1.4049
 6436TIP3   OH240722   4.898   0.986   3.400  0.4030  0.0884  0.1292
 6436TIP3    H140723   4.862   0.900   3.376  1.9285 -0.7142  0.5935
 6436TIP3    H240724   4.895   0.988   3.496 -0.8319  1.1259  0.0984
 6437TIP3   OH240725   3.253   1.475   1.322  0.3018  0.4592  0.0541
 6437TIP3    H140726   3.331   1.443   1.277  0.2049  0.0531  0.1699
 6437TIP3    H240727   3.251   1.568   1.303 -0.0174  0.2101 -1.2156
 6438TIP3   OH240728   1.273   4.069  17.305  0.6587 -0.2931  0.2720
 6438TIP3    H140729   1.182   4.050  17.282  0.1929  1.8631  0.1450
 6438TIP3    H240730   1.281   4.037  17.395  0.0356 -1.2551  0.0034
 6439TIP3   OH240731   4.075   0.078   6.225  0.3590 -0.5527  0.6908
 6439TIP3    H140732   4.013   0.019   6.267 -0.7473 -0.7764 -1.1521
 6439TIP3    H240733   4.153   0.025   6.211  0.4953 -0.6637  1.7968
 6440TIP3   OH240734   4.475   0.853  14.992 -0.1572 -0.2350  0.3536
 6440TIP3    H140735   4.411   0.924  15.000  0.5345  0.3755  0.5632
 6440TIP3    H240736   4.550   0.893  14.947  1.1399 -0.2002  2.4059
 6441TIP3   OH240737   2.078   2.957   2.049  0.0963 -0.0678 -0.1486
 6441TIP3    H140738   2.047   3.044   2.074  0.6271 -0.2523  1.2223
 6441TIP3    H240739   2.048   2.900   2.119  2.6881 -0.4019  0.7774
 6442TIP3   OH240740   4.693   1.494  11.883 -0.3943 -0.5430 -0.3468
 6442TIP3    H140741   4.598   1.484  11.888 -0.6935  1.9733  0.0476
 6442TIP3    H240742   4.719   1.435  11.812 -2.4606 -0.0906 -1.5562
 6443TIP3   OH240743   1.034   1.827   2.366 -0.5444 -0.2116 -0.1396
 6443TIP3    H140744   0.946   1.815   2.330  0.1888 -2.1419 -1.4929
 6443TIP3    H240745   1.091   1.781   2.305  1.6257  2.1465 -0.0712
 6444TIP3   OH240746   6.615   3.820   1.487  0.6520  0.3209 -0.6576
 6444TIP3    H140747   6.668   3.871   1.425  1.1844 -1.1966 -1.4971
 6444TIP3    H240748   6.532   3.805   1.442  1.0390 -0.7821 -1.0490
 6445TIP3   OH240749   5.940   5.843   0.594  0.4324  0.2005 -0.7460
 6445TIP3    H140750   5.967   5.905   0.526  0.8954  0.5104 -0.2942
 6445TIP3    H240751   5.933   5.896   0.673 -0.8023 -0.0218 -0.6867
 6446TIP3   OH240752   3.133   2.377  14.150 -0.1229 -0.0613  0.1048
 6446TIP3    H140753   3.073   2.347  14.219 -0.3693  0.8056  0.2767
 6446TIP3    H240754   3.092   2.347  14.069  0.9641 -2.4805  0.3711
 6447TIP3   OH240755   2.942   1.283   1.546  0.3547  0.3572 -0.3377
 6447TIP3    H140756   2.934   1.294   1.451 -0.3003  0.1506 -0.3120
 6447TIP3    H240757   2.923   1.369   1.582  0.9521  0.5236 -0.4033
 6448TIP3   OH240758   1.435   4.542  16.539  0.2604  0.9278 -0.1645
 6448TIP3    H140759   1.530   4.550  16.528  0.3745 -0.1050  0.0282
 6448TIP3    H240760   1.399   4.606  16.477  1.0341 -0.1179 -1.7494
 6449TIP3   OH240761   5.462   4.272   1.360  0.5575 -0.3061 -0.0321
 6449TIP3    H140762   5.447   4.225   1.441  0.0936 -1.1751 -0.6055
 6449TIP3    H240763   5.376   4.281   1.320  0.8867 -0.7695 -0.8894
 6450TIP3   OH240764   4.207   1.424  12.178 -0.5786 -0.2951 -0.1756
 6450TIP3    H140765   4.166   1.465  12.254 -3.3306 -0.8510 -1.2464
 6450TIP3    H240766   4.144   1.437  12.107  2.6244  1.8908 -2.9608
 6451TIP3   OH240767   6.538   3.792   0.231 -0.0227 -0.0673  0.0633
 6451TIP3    H140768   6.496   3.868   0.191  2.2785  2.1017  1.5200
 6451TIP3    H240769   6.500   3.787   0.319 -0.5104 -0.9405 -0.1844
 6452TIP3   OH240770   1.787   1.444   5.264  0.4619  0.9558 -0.2564
 6452TIP3    H140771   1.768   1.457   5.357  0.1754  0.4449 -0.2412
 6452TIP3    H240772   1.759   1.354   5.246  0.1398  1.1899 -0.9354
 6453TIP3   OH240773   4.967   0.179   1.106  0.0693  0.0509  0.1343
 6453TIP3    H140774   5.033   0.134   1.159  1.4675 -0.0526 -1.5975
 6453TIP3    H240775   4.964   0.129   1.024 -1.5445  0.5781 -0.1623
 6454TIP3   OH240776   3.364   3.308   3.924 -0.3475 -0.3785  0.8172
 6454TIP3    H140777   3.278   3.341   3.951 -1.1340 -0.7471 -1.1143
 6454TIP3    H240778   3.405   3.382   3.880 -0.5353 -0.7842 -0.0679
 6455TIP3   OH240779   3.452   5.853   5.980 -0.4343 -0.1664 -0.4022
 6455TIP3    H140780   3.483   5.764   6.000 -1.1284 -0.6639 -1.4467
 6455TIP3    H240781   3.370   5.861   6.029  0.8342  0.8484  1.6980
 6456TIP3   OH240782   5.176   3.797   3.099 -0.0229  0.2480 -0.1737
 6456TIP3    H140783   5.125   3.722   3.127  0.6242  0.6351  2.2982
 6456TIP3    H240784   5.161   3.863   3.167  4.5241 -0.0005  1.4526
 6457TIP3   OH240785   5.543   1.829   2.800 -0.2263  0.1132 -0.0270
 6457TIP3    H140786   5.591   1.747   2.808 -0.3761 -0.1376 -1.4163
 6457TIP3    H240787   5.596   1.893   2.848  0.2824 -0.6298  0.4239
 6458TIP3   OH240788   6.045   5.274  12.373 -0.3422  0.6258 -0.3092
 6458TIP3    H140789   6.018   5.365  12.387 -1.0186  0.3857 -0.0078
 6458TIP3    H240790   5.966   5.223  12.389  0.2693 -0.0985  0.5224
 6459TIP3   OH240791   3.675   1.815   4.517  0.4972 -0.6952 -0.4737
 6459TIP3    H140792   3.581   1.800   4.518  0.4315 -0.2854  0.5748
 6459TIP3    H240793   3.699   1.823   4.609  1.6509 -1.3486 -0.6974
 6460TIP3   OH240794   3.141   2.612  14.786 -0.2497  0.1542 -0.1641
 6460TIP3    H140795   3.201   2.671  14.832 -1.0594  0.5942  0.3547
 6460TIP3    H240796   3.058   2.623  14.832 -0.8523 -0.0728 -1.1791
 6461TIP3   OH240797   0.171   3.577  14.450  0.0624 -0.2588 -0.1245
 6461TIP3    H140798   0.144   3.532  14.370 -1.0990  0.6259 -0.2652
 6461TIP3    H240799   0.120   3.658  14.450  0.9281  0.3171  0.9153
 6462TIP3   OH240800   4.889   0.197  16.922 -0.6894 -0.2383 -0.0510
 6462TIP3    H140801   4.795   0.196  16.904 -0.8322  0.1033  0.6460
 6462TIP3    H240802   4.920   0.113  16.887 -1.2644 -0.3905 -0.2200
 6463TIP3   OH240803   6.334   3.271  12.976  0.0691 -0.0206 -0.2094
 6463TIP3    H140804   6.320   3.353  13.023 -3.2820 -0.4892 -0.1445
 6463TIP3    H240805   6.403   3.227  13.025 -0.7786  1.0840  2.1227
 6464TIP3   OH240806   3.206   2.661   5.441  0.2984  0.5612 -0.3677
 6464TIP3    H140807   3.115   2.689   5.439  0.3640  0.8122 -0.0302
 6464TIP3    H240808   3.219   2.613   5.359 -0.6271 -1.0166  0.3455
 6465TIP3   OH240809   4.347   1.519  13.156 -0.4015 -0.4383  0.6891
 6465TIP3    H140810   4.289   1.588  13.187  1.6117  0.3746  2.9703
 6465TIP3    H240811   4.327   1.444  13.212 -1.1102 -1.0477 -0.3557
 6466TIP3   OH240812   5.402   0.303   4.313  0.2547 -0.2806 -0.2903
 6466TIP3    H140813   5.414   0.398   4.324  2.3182 -0.4854 -0.3124
 6466TIP3    H240814   5.317   0.285   4.351  0.4674  1.3718  1.1042
 6467TIP3   OH240815   6.012   1.399   0.926 -0.3756 -0.0407  0.4649
 6467TIP3    H140816   6.056   1.483   0.921 -0.5990  0.0200 -0.8356
 6467TIP3    H240817   6.043   1.350   0.850 -1.7952 -0.3515  0.0402
 6468TIP3   OH240818   6.243   6.568  16.131  0.0464  0.3813  0.2441
 6468TIP3    H140819   6.170   6.591  16.189  0.8538  1.9075  0.7263
 6468TIP3    H240820   6.310   6.532  16.189  0.4623  0.9485  0.1286
 6469TIP3   OH240821   5.415   6.695   0.850 -0.5155  0.2416 -0.0197
 6469TIP3    H140822   5.380   6.776   0.887 -1.3169  0.7842 -1.8830
 6469TIP3    H240823   5.345   6.662   0.794  0.6344 -0.5488 -1.0320
 6470TIP3   OH240824   4.370   2.396   3.178 -0.0591 -0.2798  0.0695
 6470TIP3    H140825   4.427   2.461   3.137 -0.6883 -0.5224 -1.2143
 6470TIP3    H240826   4.431   2.337   3.223  0.7994 -0.9441 -1.8715
 6471TIP3   OH240827   6.499   5.957   2.960 -0.1023 -0.1170 -0.2856
 6471TIP3    H140828   6.587   5.973   2.925  0.1142 -0.9102 -0.1369
 6471TIP3    H240829   6.458   5.899   2.896 -0.7241  0.6791 -0.6292
 6472TIP3   OH240830   3.545   3.748   3.778  0.6896 -0.1810  0.2326
 6472TIP3    H140831   3.581   3.824   3.823  0.1414 -1.2879  2.7383
 6472TIP3    H240832   3.455   3.772   3.758  1.0993  0.5228 -0.8750
 6473TIP3   OH240833   3.612   1.743   5.681 -0.0366 -0.6148  0.1205
 6473TIP3    H140834   3.545   1.796   5.725 -1.0182 -1.4905 -0.2676
 6473TIP3    H240835   3.630   1.789   5.600 -1.2557 -1.0885 -0.4545
 6474TIP3   OH240836   5.261   6.411  13.754 -0.2545  0.0433 -0.1843
 6474TIP3    H140837   5.292   6.501  13.742 -0.1864  0.0903  0.3250
 6474TIP3    H240838   5.174   6.421  13.792  0.7182 -0.1007  2.2494
 6475TIP3   OH240839   3.423   4.145  13.396  0.0698  0.4544 -0.3169
 6475TIP3    H140840   3.365   4.089  13.344  0.9563 -1.8699  1.0349
 6475TIP3    H240841   3.399   4.126  13.487  2.8918 -0.6097  0.2986
 6476TIP3   OH240842   4.736   3.422   3.912 -0.1477 -0.3379  0.1284
 6476TIP3    H140843   4.737   3.505   3.864  2.0810 -0.3372  0.0768
 6476TIP3    H240844   4.650   3.384   3.893 -0.3483  0.9113 -1.7036
 6477TIP3   OH240845   2.297   6.078   4.759 -0.2482 -0.1216  0.5555
 6477TIP3    H140846   2.348   6.059   4.838  2.4991 -1.0231 -1.2951
 6477TIP3    H240847   2.312   6.004   4.701 -0.9153  1.1847 -1.4203
 6478TIP3   OH240848   2.030   2.642  13.466 -0.4044  0.8376  0.0813
 6478TIP3    H140849   2.122   2.635  13.492  0.6056 -3.1909 -3.4820
 6478TIP3    H240850   1.989   2.564  13.502 -2.6143  2.6278  1.7153
 6479TIP3   OH240851   5.003   2.731   1.726 -0.1180 -0.7082  0.0944
 6479TIP3    H140852   5.049   2.777   1.657 -1.2125  0.0004 -0.1794
 6479TIP3    H240853   5.019   2.638   1.708  1.6995 -0.4829  0.3773
 6480TIP3   OH240854   5.278   3.155   5.980  0.5392  0.2938 -0.1227
 6480TIP3    H140855   5.356   3.163   6.034  0.6134 -0.3439 -0.1322
 6480TIP3    H240856   5.211   3.206   6.027  0.9853  0.9339 -0.1764
 6481TIP3   OH240857   5.272   2.865  15.479  0.1574 -0.4542  0.6110
 6481TIP3    H140858   5.234   2.784  15.444  2.3704 -1.5842  0.6008
 6481TIP3    H240859   5.198   2.923  15.493 -1.2340 -1.3766 -2.2312
 6482TIP3   OH240860   3.741   6.545  12.394 -0.3349 -0.0763  0.7626
 6482TIP3    H140861   3.691   6.579  12.468  1.2044 -0.8269  2.2182
 6482TIP3    H240862   3.766   6.457  12.421  1.6586  0.2385  0.0630
 6483TIP3   OH240863   2.785   5.706   5.665 -0.1174 -0.0897  0.6908
 6483TIP3    H140864   2.756   5.796   5.677  2.6164  0.5708  4.0162
 6483TIP3    H240865   2.709   5.653   5.686 -1.5804  1.3819 -0.6357
 6484TIP3   OH240866   0.709   0.456  16.801 -0.2215 -0.5497 -0.2656
 6484TIP3    H140867   0.698   0.393  16.871 -2.4159  1.5306  1.4322
 6484TIP3    H240868   0.629   0.449  16.749 -0.1595  0.2636 -0.4956
 6485TIP3   OH240869   6.263   1.595   4.934 -0.3598  0.3727  0.2702
 6485TIP3    H140870   6.185   1.581   4.987 -1.2311  0.2164 -0.9896
 6485TIP3    H240871   6.328   1.630   4.994 -1.9922  2.3019  1.0235
 6486TIP3   OH240872   5.080   4.501   4.890 -0.1056  0.5051 -0.4344
 6486TIP3    H140873   5.055   4.552   4.812 -0.6087 -1.3507 -1.5388
 6486TIP3    H240874   5.075   4.564   4.962 -4.6079  1.2122 -1.0543
 6487TIP3   OH240875   0.110   4.549  12.495 -0.6865  0.4637 -0.3172
 6487TIP3    H140876   0.204   4.569  12.501 -0.9471  1.3075  2.7480
 6487TIP3    H240877   0.081   4.545  12.586 -3.2741 -1.7601 -1.0950
 6488TIP3   OH240878   0.309   1.466   0.234 -0.4887 -0.1255 -0.0427
 6488TIP3    H140879   0.327   1.393   0.293 -0.3210  0.1013  0.1908
 6488TIP3    H240880   0.388   1.521   0.239  1.0033 -1.7389 -2.9534
 6489TIP3   OH240881   1.196   1.119  15.873 -0.2154 -0.1009  0.6319
 6489TIP3    H140882   1.153   1.203  15.888  0.7181  0.3699  0.7450
 6489TIP3    H240883   1.277   1.124  15.924 -0.0691 -1.0017  0.5020
 6490TIP3   OH240884   5.866   2.451  16.441 -0.2707 -0.1249 -0.3011
 6490TIP3    H140885   5.908   2.492  16.517 -1.9620  0.8112  0.1706
 6490TIP3    H240886   5.860   2.521  16.376 -0.7492 -0.3534 -0.5044
 6491TIP3   OH240887   2.674   0.869  17.469  0.2476 -0.2518  0.4123
 6491TIP3    H140888   2.635   0.928  17.405  0.5058  0.6154  1.0433
 6491TIP3    H240889   2.733   0.813  17.417  0.6755  0.6324 -0.0700
 6492TIP3   OH240890   0.017   1.865  11.313  0.0888 -0.0180  0.4757
 6492TIP3    H140891   0.057   1.859  11.227 -0.8529 -1.1076  0.0885
 6492TIP3    H240892   0.091   1.867  11.374  0.7730  1.1285 -0.3484
 6493TIP3   OH240893   4.509   5.268   3.615 -0.4411 -0.3547 -0.6142
 6493TIP3    H140894   4.540   5.357   3.597  1.2888 -0.6112  0.7758
 6493TIP3    H240895   4.544   5.216   3.543  0.1356 -0.1914 -0.4596
 6494TIP3   OH240896   5.338   3.433  12.036  0.1182 -0.4941 -0.1126
 6494TIP3    H140897   5.338   3.340  12.056  1.6386 -0.4172  0.3879
 6494TIP3    H240898   5.406   3.443  11.969  0.7370  0.3885  0.6194
 6495TIP3   OH240899   2.636   5.390   0.758  0.0001  0.6240  0.3869
 6495TIP3    H140900   2.719   5.438   0.757  0.1590  0.3888 -1.4953
 6495TIP3    H240901   2.657   5.306   0.717 -1.2837  0.7941 -0.6846
 6496TIP3   OH240902   2.669   0.169   1.115  0.2924  0.1632 -0.2350
 6496TIP3    H140903   2.672   0.131   1.204  0.4060  0.8333  0.0490
 6496TIP3    H240904   2.759   0.194   1.097  0.1277  0.7961 -0.2019
 6497TIP3   OH240905   3.836   4.358   3.852 -0.2586  0.5974  0.4093
 6497TIP3    H140906   3.857   4.410   3.774 -0.2003 -0.5414 -0.3546
 6497TIP3    H240907   3.811   4.272   3.818  0.3938 -0.1277  1.6775
 6498TIP3   OH240908   6.227   4.965   1.870 -0.2260  0.1879 -0.0256
 6498TIP3    H140909   6.156   4.902   1.873  0.5021 -0.6353  1.8157
 6498TIP3    H240910   6.304   4.914   1.847 -0.0276  0.8699 -0.9370
 6499TIP3   OH240911   5.965   2.570   4.495  0.5470  0.3115 -0.2049
 6499TIP3    H140912   5.918   2.595   4.575 -0.6387  0.6362 -0.9778
 6499TIP3    H240913   5.946   2.477   4.484  0.1706  0.4126 -0.4447
 6500TIP3   OH240914   5.527   4.715  13.229 -0.2063  0.2891 -0.4549
 6500TIP3    H140915   5.558   4.790  13.179  0.2828  0.5885  0.2746
 6500TIP3    H240916   5.547   4.737  13.320 -0.9694 -0.2905 -0.1342
 6501TIP3   OH240917   5.333   5.119  11.479  0.3686 -0.4314 -0.5230
 6501TIP3    H140918   5.238   5.127  11.488  0.4962  2.3538 -0.7071
 6501TIP3    H240919   5.361   5.076  11.559 -1.1506 -3.1976 -1.3218
 6502TIP3   OH240920   6.706   6.466  12.389 -0.3972 -0.2981  0.0248
 6502TIP3    H140921   6.685   6.553  12.425  0.5822 -0.9038  2.2679
 6502TIP3    H240922   6.764   6.427  12.455  0.6656 -1.9641 -1.8183
 6503TIP3   OH240923   5.659   3.402  15.639  0.6091  0.0834 -0.0578
 6503TIP3    H140924   5.718   3.477  15.649 -2.2712  2.3974  1.2465
 6503TIP3    H240925   5.596   3.431  15.573  1.0515 -2.4479 -1.7171
 6504TIP3   OH240926   1.032   3.540  13.978 -0.2054 -0.8189  0.3755
 6504TIP3    H140927   1.007   3.450  13.998 -0.2960 -1.5265 -2.3950
 6504TIP3    H240928   1.094   3.532  13.905 -0.3825  1.3471 -0.1028
 6505TIP3   OH240929   2.844   5.997  11.369 -0.2876  0.2248  0.1805
 6505TIP3    H140930   2.831   6.092  11.369  0.1532  0.2866  0.1367
 6505TIP3    H240931   2.775   5.963  11.426 -0.0167  0.6303  0.7462
 6506TIP3   OH240932   2.359   0.664   5.170 -0.4223 -0.0519 -0.1425
 6506TIP3    H140933   2.385   0.643   5.080 -0.7700  0.0422 -0.2676
 6506TIP3    H240934   2.296   0.736   5.160 -0.5162 -0.0912  0.1719
 6507TIP3   OH240935   2.652   3.667  11.660 -0.2571  0.6012  0.1711
 6507TIP3    H140936   2.593   3.725  11.707 -1.2962 -0.6497  0.4630
 6507TIP3    H240937   2.693   3.614  11.728 -0.2885  0.1275 -0.1723
 6508TIP3   OH240938   3.416   6.584   1.543  0.5576 -0.5792  0.3157
 6508TIP3    H140939   3.362   6.601   1.620 -1.0215 -0.5008 -0.7771
 6508TIP3    H240940   3.376   6.636   1.474  2.8778  0.6066 -0.2329
 6509TIP3   OH240941   4.679   3.976   3.979  0.5265 -0.4404  0.1346
 6509TIP3    H140942   4.736   3.958   3.904  0.8386  0.9894  0.0057
 6509TIP3    H240943   4.667   4.071   3.977 -2.1870 -0.7048 -0.1070
 6510TIP3   OH240944   2.811   2.078  12.170  0.8197  0.4541  0.1840
 6510TIP3    H140945   2.818   2.172  12.150 -1.0770  0.3875 -1.0164
 6510TIP3    H240946   2.770   2.075  12.257 -1.5683  0.8190 -0.8399
 6511TIP3   OH240947   0.287   4.568  13.999  0.2529  0.0373  0.4264
 6511TIP3    H140948   0.378   4.592  13.982  0.2483 -0.2080  0.0509
 6511TIP3    H240949   0.238   4.649  13.982  0.1932 -0.3165 -1.2239
 6512TIP3   OH240950   4.153   3.576   1.042 -0.3099 -0.1695  0.0011
 6512TIP3    H140951   4.176   3.638   0.973  0.7131  0.0592  0.5158
 6512TIP3    H240952   4.236   3.560   1.088 -0.8005 -0.9704  0.6432
 6513TIP3   OH240953   3.336   2.928   1.398  0.7843 -0.1285 -0.1708
 6513TIP3    H140954   3.320   3.022   1.402 -0.1407 -0.2516 -0.6233
 6513TIP3    H240955   3.282   2.892   1.468  0.1605 -0.4233 -0.7880
 6514TIP3   OH240956   1.973   6.380   2.327  0.3709 -0.6464  0.5055
 6514TIP3    H140957   2.033   6.443   2.288  0.1340 -0.8536 -0.2127
 6514TIP3    H240958   1.935   6.426   2.401  1.0587 -0.3480  0.6871
 6515TIP3   OH240959   6.145   1.656  17.085 -0.1516  0.5987 -0.3418
 6515TIP3    H140960   6.207   1.709  17.134  1.0012  0.9073 -2.0452
 6515TIP3    H240961   6.193   1.577  17.062 -1.5940 -0.8929  1.4484
 6516TIP3   OH240962   4.860   0.971  16.682 -0.5591 -0.7746  0.3599
 6516TIP3    H140963   4.770   0.996  16.659  0.2921  2.5295  0.0637
 6516TIP3    H240964   4.876   1.014  16.766  1.9769  2.5655 -1.5433
 6517TIP3   OH240965   6.622   2.861   6.361  0.0866 -0.8813  0.3680
 6517TIP3    H140966   6.634   2.767   6.345  0.3159 -0.9034  0.6588
 6517TIP3    H240967   6.674   2.879   6.439 -0.2552 -0.5866  0.5312
 6518TIP3   OH240968   3.577   6.353  13.380 -0.2370  0.3590  0.2847
 6518TIP3    H140969   3.637   6.389  13.444 -0.4017 -4.1943  3.5030
 6518TIP3    H240970   3.630   6.295  13.326 -0.6436  1.9363 -1.9883
 6519TIP3   OH240971   3.317   1.062  14.667 -0.2014 -0.0663 -0.4011
 6519TIP3    H140972   3.245   1.052  14.729  0.3826  2.1190  0.7270
 6519TIP3    H240973   3.274   1.094  14.587 -0.7430 -1.1393 -0.5561
 6520TIP3   OH240974   3.794   6.280  12.404  0.2424  0.2859  0.2875
 6520TIP3    H140975   3.792   6.185  12.413  2.7930  0.2613  1.5312
 6520TIP3    H240976   3.878   6.299  12.362  0.8552  2.0367  2.1210
 6521TIP3   OH240977   0.802   0.672  14.100 -0.0941  0.1502 -0.3802
 6521TIP3    H140978   0.879   0.687  14.155  0.9991  0.2961 -1.8903
 6521TIP3    H240979   0.728   0.682  14.160  1.0032  1.2243  0.8657
 6522TIP3   OH240980   0.792   1.795   3.461 -0.1754  0.4401 -0.2430
 6522TIP3    H140981   0.845   1.743   3.521 -0.2486  0.6324 -0.0076
 6522TIP3    H240982   0.853   1.823   3.392 -0.0335  0.4334 -0.1193
 6523TIP3   OH240983   5.976   6.437   5.229 -0.1551  0.1531  0.7535
 6523TIP3    H140984   6.063   6.440   5.190  0.1228  2.0629  1.4392
 6523TIP3    H240985   5.967   6.347   5.261  1.1400 -0.3470 -0.2175
 6524TIP3   OH240986   6.432   5.575  14.679  0.2173  0.1432 -0.1764
 6524TIP3    H140987   6.456   5.665  14.657 -1.7419  1.2403  1.7630
 6524TIP3    H240988   6.501   5.546  14.737  1.4708 -0.0892 -1.7011
 6525TIP3   OH240989   5.605   0.483   4.073  0.2021 -0.3311 -0.1219
 6525TIP3    H140990   5.540   0.501   4.140  2.2397  2.1767  1.3784
 6525TIP3    H240991   5.673   0.433   4.118  0.9240  0.1149 -0.6938
 6526TIP3   OH240992   4.931   5.242  13.206 -1.0410  0.4074 -0.0958
 6526TIP3    H140993   4.920   5.150  13.232  0.4421 -0.3129 -1.7951
 6526TIP3    H240994   4.993   5.277  13.270 -1.9257  0.3903  0.8119
 6527TIP3   OH240995   5.522   2.860   1.809  0.6698  0.2512 -0.0760
 6527TIP3    H140996   5.494   2.830   1.895 -0.4271  0.9102 -0.1851
 6527TIP3    H240997   5.540   2.953   1.820  2.6220 -0.0839 -0.0824
 6528TIP3   OH240998   0.381   6.586  12.876  0.0776 -0.2089 -0.2842
 6528TIP3    H140999   0.334   6.636  12.809 -0.1216 -0.1257 -0.0839
 6528TIP3    H241000   0.344   6.497  12.869 -1.5010  0.2887  1.1538
 6529TIP3   OH241001   4.061   4.119   5.556 -0.1735  0.4350  0.1063
 6529TIP3    H141002   4.122   4.045   5.552  0.3459  0.8222  0.7318
 6529TIP3    H241003   4.060   4.153   5.466  1.3684  1.0859  0.3129
 6530TIP3   OH241004   1.977   1.518   5.516 -0.7843  0.3653  0.0319
 6530TIP3    H141005   1.927   1.438   5.534 -2.8420  1.8595  1.4021
 6530TIP3    H241006   2.044   1.520   5.584 -0.3738 -0.4397 -0.3364
 6531TIP3   OH241007   1.901   0.740  14.746 -0.1267  0.1691 -0.6465
 6531TIP3    H141008   1.862   0.771  14.827 -0.0074 -1.5293  0.0949
 6531TIP3    H241009   1.862   0.796  14.678 -1.2545  0.7343  0.4214
 6532TIP3   OH241010   0.054   5.416  12.187  0.6726 -0.4759  0.0437
 6532TIP3    H141011  -0.039   5.395  12.197  0.4379  1.5611  5.0929
 6532TIP3    H241012   0.056   5.487  12.123 -1.3476 -0.1622  0.2569
 6533TIP3   OH241013   5.279   2.664   0.988 -0.2837  0.1237  0.1334
 6533TIP3    H141014   5.256   2.650   0.896 -1.4198 -3.1383  0.7794
 6533TIP3    H241015   5.373   2.682   0.987 -0.3560  0.5846 -1.6556
 6534TIP3   OH241016   4.728   1.038  15.725  0.4884 -0.2569 -0.3101
 6534TIP3    H141017   4.761   1.035  15.635  1.2004  0.9361 -0.1173
 6534TIP3    H241018   4.726   1.131  15.746 -2.2907 -0.3170 -0.0055
 6535TIP3   OH241019   2.788   0.699  17.289 -0.7995  0.4950 -0.8898
 6535TIP3    H141020   2.830   0.624  17.247  0.1475  0.6994 -0.3475
 6535TIP3    H241021   2.800   0.771  17.227 -1.6852  0.2194 -1.4003
 6536TIP3   OH241022   5.175   0.880   3.814  0.4462  0.1880  0.4521
 6536TIP3    H141023   5.241   0.823   3.855  0.5727  0.0715  0.0883
 6536TIP3    H241024   5.197   0.879   3.721 -1.7679 -2.2094 -0.1753
 6537TIP3   OH241025   3.440   2.750  17.365 -0.2011 -0.0517 -0.0647
 6537TIP3    H141026   3.358   2.722  17.324 -1.7082  0.9548  2.0666
 6537TIP3    H241027   3.432   2.722  17.456  0.9502  1.7614  0.6475
 6538TIP3   OH241028   3.053   4.426   4.864 -0.3162 -0.0955 -0.5406
 6538TIP3    H141029   3.148   4.418   4.873 -0.4756 -0.6457  1.0456
 6538TIP3    H241030   3.036   4.520   4.870  0.2535  0.1995 -2.7849
 6539TIP3   OH241031   6.048   0.366  15.642  0.2714 -0.2310  0.5063
 6539TIP3    H141032   6.099   0.311  15.583  0.7316  0.0247  0.6532
 6539TIP3    H241033   6.085   0.454  15.630  0.0479 -0.0916  0.8219
 6540TIP3   OH241034   2.753   5.887  13.009  0.0147 -0.1388  0.3907
 6540TIP3    H141035   2.727   5.829  12.937  0.9088 -0.3679  0.2366
 6540TIP3    H241036   2.723   5.973  12.982 -1.2198 -0.4941  0.5609
 6541TIP3   OH241037   2.556   1.019   0.189  0.0421 -0.2941 -0.0158
 6541TIP3    H141038   2.556   0.973   0.274 -2.8447 -0.0621  0.1941
 6541TIP3    H241039   2.608   0.962   0.132 -2.3394 -3.2950  0.5499
 6542TIP3   OH241040   2.878   6.372   3.199 -0.3696 -0.1592 -0.0416
 6542TIP3    H141041   2.887   6.338   3.111 -1.1636  0.9344 -0.5671
 6542TIP3    H241042   2.961   6.350   3.242  0.2733 -0.1627 -1.2477
 6543TIP3   OH241043   0.853   0.961   1.891 -0.1168 -0.1948 -0.0339
 6543TIP3    H141044   0.842   0.890   1.955 -0.1518 -0.9984 -0.9099
 6543TIP3    H241045   0.833   0.920   1.807 -1.8319  1.2765 -0.3959
 6544TIP3   OH241046   2.364   6.544   1.532  0.5905  0.0575 -0.0744
 6544TIP3    H141047   2.398   6.475   1.475 -0.5993 -1.7085  1.2477
 6544TIP3    H241048   2.315   6.601   1.474 -0.6487 -1.7357 -0.8575
 6545TIP3   OH241049   4.394   3.926  11.714  0.0692  0.2755  0.1611
 6545TIP3    H141050   4.469   3.873  11.689 -0.2931 -0.5275  0.7392
 6545TIP3    H241051   4.432   4.007  11.748  0.7063 -0.4352  1.1865
 6546TIP3   OH241052   2.592   1.571  13.964  0.1315  0.3959  0.0866
 6546TIP3    H141053   2.523   1.616  14.013 -1.8598 -0.5314 -1.6816
 6546TIP3    H241054   2.552   1.488  13.939  3.0242 -1.6305  1.6314
 6547TIP3   OH241055   2.890   3.598  14.773  1.0740  0.0843 -0.2213
 6547TIP3    H141056   2.906   3.532  14.840  0.2022 -0.5374 -0.6007
 6547TIP3    H241057   2.953   3.667  14.791 -0.4948  0.9130  2.5064
 6548TIP3   OH241058   0.423   1.512   2.554 -0.1119  0.2588  0.0727
 6548TIP3    H141059   0.439   1.422   2.582 -2.6094  0.2019  1.6358
 6548TIP3    H241060   0.452   1.514   2.463  0.9495 -1.8172  0.2992
 6549TIP3   OH241061   1.680   3.257   0.271 -0.3771  0.2696  0.4681
 6549TIP3    H141062   1.683   3.176   0.221  1.5967  0.7135 -0.2281
 6549TIP3    H241063   1.610   3.308   0.230  0.2066  0.0178 -0.8969
 6550TIP3   OH241064   0.236   1.458   5.182 -0.4592  0.0007 -0.6996
 6550TIP3    H141065   0.266   1.385   5.129  1.4342 -0.0844  0.3959
 6550TIP3    H241066   0.272   1.442   5.269 -0.5483  1.8890 -0.2572
 6551TIP3   OH241067   1.048   3.072   1.823 -0.1169  0.1542 -0.6213
 6551TIP3    H141068   1.111   3.004   1.847  0.4467  0.6569 -0.6554
 6551TIP3    H241069   0.975   3.059   1.884  0.1670 -0.2192 -0.3555
 6552TIP3   OH241070   2.089   3.085   3.955  0.2976  0.0994  0.6903
 6552TIP3    H141071   2.113   3.174   3.928 -2.0818  0.5622 -0.1766
 6552TIP3    H241072   2.012   3.097   4.010 -1.3301 -1.4896 -1.0953
 6553TIP3   OH241073   2.140   2.083  17.049  0.4392  0.0121  0.3567
 6553TIP3    H141074   2.201   2.094  16.976  0.7291  1.2523  0.7635
 6553TIP3    H241075   2.075   2.151  17.036  1.3815  1.3133  2.1145
 6554TIP3   OH241076   3.147   6.599  12.785  0.6628 -0.2637 -0.0466
 6554TIP3    H141077   3.119   6.685  12.752  1.2473 -0.5933 -1.4455
 6554TIP3    H241078   3.176   6.617  12.875  0.5201  0.9445 -0.2188
 6555TIP3   OH241079   2.680   5.242   3.868 -0.1618  0.4778 -0.6490
 6555TIP3    H141080   2.652   5.262   3.957 -1.7792 -0.3464 -0.9298
 6555TIP3    H241081   2.732   5.318   3.841 -0.6458  1.2716  0.5768
 6556TIP3   OH241082   4.162   0.813  17.397  0.3171 -0.3165 -0.0476
 6556TIP3    H141083   4.082   0.865  17.402 -0.0391 -0.6675 -1.6635
 6556TIP3    H241084   4.204   0.841  17.316  0.7519 -1.6448 -0.2989
 6557TIP3   OH241085   1.415   5.782  11.999 -0.1194  0.4613 -0.3129
 6557TIP3    H141086   1.328   5.822  11.992  0.0378  0.9217  0.2494
 6557TIP3    H241087   1.402   5.692  11.971 -1.2638 -0.1325  1.9131
 6558TIP3   OH241088   4.885   3.417   1.464  0.4082  0.0372  0.6234
 6558TIP3    H141089   4.855   3.333   1.498  0.6752 -0.7623 -1.0084
 6558TIP3    H241090   4.909   3.398   1.373  1.6866  1.6006  0.6010
 6559TIP3   OH241091   4.542   4.814   1.467  0.1768  0.0756  0.2173
 6559TIP3    H141092   4.538   4.860   1.383  0.9229  1.4434  0.9125
 6559TIP3    H241093   4.635   4.807   1.487  0.0254 -0.6330  0.7429
 6560TIP3   OH241094   2.185   0.976  13.774  0.2167  0.6178  0.3522
 6560TIP3    H141095   2.166   1.022  13.692  0.2504  0.1672  0.0887
 6560TIP3    H241096   2.176   0.883  13.752  0.9216  0.4678  0.6832
 6561TIP3   OH241097   1.132   5.893  15.670  0.5034 -0.2734  0.0112
 6561TIP3    H141098   1.096   5.806  15.652 -2.2843  0.3964  1.7604
 6561TIP3    H241099   1.078   5.927  15.741 -0.1586  3.8609 -2.1681
 6562TIP3   OH241100   4.768   6.321  15.871  0.0992 -0.3122 -0.2722
 6562TIP3    H141101   4.804   6.406  15.845 -1.2208 -0.0790 -1.5042
 6562TIP3    H241102   4.843   6.271  15.902  1.9893 -0.5891 -4.6060
 6563TIP3   OH241103   5.016   6.302  12.376  0.1811  0.1691  0.2971
 6563TIP3    H141104   5.078   6.361  12.420  0.1031 -0.0720  0.7294
 6563TIP3    H241105   4.938   6.356  12.363  0.0726  0.1320  0.7867
 6564TIP3   OH241106   3.869   0.968   1.880 -0.0865 -0.2564  0.1847
 6564TIP3    H141107   3.803   0.938   1.817 -1.9278  0.6098  1.6193
 6564TIP3    H241108   3.870   0.902   1.948 -1.0696  0.7574  1.2280
 6565TIP3   OH241109   5.082   6.321  14.599  0.6188  0.4599  0.5723
 6565TIP3    H141110   5.164   6.339  14.645  1.0257  0.7844 -0.2661
 6565TIP3    H241111   5.042   6.250  14.650  1.2646  0.5051  1.1664
 6566TIP3   OH241112   2.112   5.684   0.741  0.6598 -0.0264 -0.4587
 6566TIP3    H141113   2.177   5.722   0.682  0.3932  0.4949 -0.4188
 6566TIP3    H241114   2.158   5.674   0.825  0.8957 -0.3190 -0.6225
 6567TIP3   OH241115   1.279   2.117   5.355  1.1098  0.0011  0.3824
 6567TIP3    H141116   1.263   2.196   5.303 -3.3016  0.0838  1.5265
 6567TIP3    H241117   1.310   2.150   5.439  2.4563  0.2150 -0.1631
 6568TIP3   OH241118   3.249   5.332   5.737  0.0473  0.1246 -0.1978
 6568TIP3    H141119   3.203   5.261   5.693  0.8040 -0.4422 -0.0957
 6568TIP3    H241120   3.197   5.410   5.718 -3.5520 -1.0440  3.5707
 6569TIP3   OH241121   6.246   2.598   3.190 -0.4738 -0.4916  0.2935
 6569TIP3    H141122   6.305   2.574   3.118 -0.3596  0.8309 -0.0868
 6569TIP3    H241123   6.255   2.693   3.197 -0.7488 -0.5612  1.8394
 6570TIP3   OH241124   3.189   0.003   3.928  0.1946  0.9036  0.5947
 6570TIP3    H141125   3.141  -0.037   4.000  1.3526  0.4542  1.1395
 6570TIP3    H241126   3.122   0.042   3.873 -0.8940 -0.9162  0.5778
 6571TIP3   OH241127   1.605   2.676   6.136  0.3150 -0.0313  0.7631
 6571TIP3    H141128   1.650   2.612   6.191  3.0303  1.7464  0.7770
 6571TIP3    H241129   1.521   2.690   6.180 -0.5496 -3.6873  0.5913
 6572TIP3   OH241130   3.869   5.836   0.266  0.0495 -0.0440 -0.6827
 6572TIP3    H141131   3.954   5.867   0.297 -0.5464 -1.1334  2.4011
 6572TIP3    H241132   3.837   5.907   0.210  2.0664  1.3176 -0.2321
 6573TIP3   OH241133   0.768   3.719  11.562  0.2322 -0.1801  0.5059
 6573TIP3    H141134   0.792   3.760  11.645 -1.2337  0.4996  0.6251
 6573TIP3    H241135   0.757   3.792  11.501 -1.8731 -0.3794  0.5760
 6574TIP3   OH241136   5.338   1.147   4.238  0.6130 -0.7352 -0.0896
 6574TIP3    H141137   5.311   1.074   4.183 -1.2596  0.8861 -1.4797
 6574TIP3    H241138   5.377   1.210   4.177  1.1796 -0.1190  0.8878
 6575TIP3   OH241139   5.693   3.933   1.217 -0.1125  0.2507  0.5288
 6575TIP3    H141140   5.627   3.954   1.283  0.8549  3.0007  0.7497
 6575TIP3    H241141   5.657   3.967   1.135 -1.0281 -2.5934 -0.3710
 6576TIP3   OH241142   1.919   6.233   3.753  0.1821  0.0251  0.7841
 6576TIP3    H141143   1.951   6.148   3.724  0.6254  0.1581  0.8726
 6576TIP3    H241144   1.953   6.243   3.842 -1.7925 -0.7129  1.6734
 6577TIP3   OH241145   6.152   2.200   3.644 -0.0474 -0.2564 -0.0577
 6577TIP3    H141146   6.193   2.145   3.578 -0.0536 -2.2822  1.5236
 6577TIP3    H241147   6.059   2.176   3.641 -0.2243  0.4032 -0.0044
 6578TIP3   OH241148   3.463   0.955   0.672 -0.1216  0.4776 -0.2249
 6578TIP3    H141149   3.518   0.891   0.628  0.2506  0.8995 -0.3812
 6578TIP3    H241150   3.424   0.908   0.746  1.6871  0.5756  0.8514
 6579TIP3   OH241151   4.701   0.179   5.777 -0.3189  0.4817 -0.0678
 6579TIP3    H141152   4.660   0.238   5.714  0.3837 -1.3587 -2.3849
 6579TIP3    H241153   4.759   0.124   5.725  1.4393 -0.2146  2.4198
 6580TIP3   OH241154   6.372   5.637  15.098 -0.3713  0.7330 -0.1133
 6580TIP3    H141155   6.294   5.653  15.045  0.1699  1.7814 -0.6177
 6580TIP3    H241156   6.430   5.586  15.042 -0.6640 -0.0351  0.2584
 6581TIP3   OH241157   2.063   3.717   1.481 -0.0864 -0.1438 -0.0193
 6581TIP3    H141158   2.132   3.749   1.424 -0.4168 -0.2484 -0.4948
 6581TIP3    H241159   1.984   3.719   1.426 -0.3502 -0.5558  0.3320
 6582TIP3   OH241160   6.671   6.124  11.660 -0.3559  0.4376  0.0794
 6582TIP3    H141161   6.702   6.165  11.741 -0.0903 -1.1219  0.8106
 6582TIP3    H241162   6.583   6.094  11.681 -1.2029  2.0681 -0.9859
 6583TIP3   OH241163   1.087   3.312   4.844  0.3782 -0.0531  0.6361
 6583TIP3    H141164   1.062   3.328   4.753 -0.0415  2.7209  1.1730
 6583TIP3    H241165   1.054   3.387   4.892  0.8465 -1.3110  3.0719
 6584TIP3   OH241166   4.413   3.340  15.839 -0.4224  0.8445  0.1111
 6584TIP3    H141167   4.427   3.258  15.793 -1.3257  0.7321  0.0244
 6584TIP3    H241168   4.480   3.341  15.908  0.5348  0.7335 -0.8053
 6585TIP3   OH241169   1.104   2.185  13.464 -0.1386  0.3926 -0.0104
 6585TIP3    H141170   1.158   2.165  13.388 -0.0058 -1.8637  0.6049
 6585TIP3    H241171   1.167   2.200  13.535 -0.2846  1.5733 -0.1035
 6586TIP3   OH241172   6.681   3.954  13.266 -0.7541  0.3338  0.0992
 6586TIP3    H141173   6.685   3.883  13.201 -1.5785  0.4212 -0.0647
 6586TIP3    H241174   6.632   3.916  13.339 -1.4511  0.8106 -0.1094
 6587TIP3   OH241175   0.541   0.673   5.025  0.3456 -0.6509  0.8849
 6587TIP3    H141176   0.481   0.598   5.032  1.0383 -1.0625  5.1757
 6587TIP3    H241177   0.486   0.749   5.044  0.5903 -0.7346  2.0193
 6588TIP3   OH241178   6.478   2.699   5.320 -0.3572 -0.0843 -0.1878
 6588TIP3    H141179   6.532   2.703   5.399  0.5134  2.0940 -0.7997
 6588TIP3    H241180   6.469   2.606   5.301  0.3460 -0.6043  1.8403
 6589TIP3   OH241181   0.258   0.162   3.170 -0.1793 -0.3925  0.1899
 6589TIP3    H141182   0.286   0.142   3.259  0.0408 -0.5587  0.0842
 6589TIP3    H241183   0.323   0.224   3.138  0.2318 -0.9870 -0.1505
 6590TIP3   OH241184   3.625   3.455  10.481 -0.1419  0.3898 -0.0388
 6590TIP3    H141185   3.696   3.501  10.435  0.8644 -0.4804  0.5854
 6590TIP3    H241186   3.561   3.435  10.413  0.3173  0.9939 -0.6641
 6591TIP3   OH241187   0.715   2.913   1.673 -0.1869 -0.2253  0.2957
 6591TIP3    H141188   0.783   2.879   1.614 -0.6466  1.3171 -1.2423
 6591TIP3    H241189   0.694   2.999   1.636 -0.6674  0.7247  2.6375
 6592TIP3   OH241190   2.619   5.803  13.466  0.8798  0.1458  0.9388
 6592TIP3    H141191   2.582   5.888  13.488 -1.1613 -0.8763  1.6771
 6592TIP3    H241192   2.602   5.793  13.372  1.6635  0.7849  0.7216
 6593TIP3   OH241193   3.400   5.568  12.591 -0.0595 -0.8627 -0.3107
 6593TIP3    H141194   3.419   5.526  12.675 -0.3904  1.3990  0.9788
 6593TIP3    H241195   3.325   5.625  12.609  1.9735  2.3116 -1.1409
 6594TIP3   OH241196   1.806   3.202   5.774 -0.7739  0.0080  0.3641
 6594TIP3    H141197   1.717   3.237   5.769 -0.7448 -0.0756 -1.0838
 6594TIP3    H241198   1.801   3.134   5.842 -1.6850  0.3651  0.6675
 6595TIP3   OH241199   5.562   0.087   5.832 -0.2889  0.0114 -0.0038
 6595TIP3    H141200   5.611   0.129   5.902  2.9161  0.3980 -2.2693
 6595TIP3    H241201   5.486   0.144   5.818  0.9206  1.8950  0.7724
 6596TIP3   OH241202   2.375   5.234   3.090 -0.2336 -0.6168  0.6095
 6596TIP3    H141203   2.463   5.270   3.082 -0.8668  0.6502 -1.2232
 6596TIP3    H241204   2.334   5.285   3.160 -0.6195  1.2887 -0.9286
 6597TIP3   OH241205   3.481   3.198  15.999  0.1844 -0.5583 -0.0128
 6597TIP3    H141206   3.418   3.142  15.953 -1.4295  0.8355  0.4079
 6597TIP3    H241207   3.475   3.282  15.954 -0.0227  0.2753  1.5370
 6598TIP3   OH241208   2.540   6.056  13.563 -0.1469 -0.3360 -0.3824
 6598TIP3    H141209   2.475   6.025  13.626 -1.6108  2.1546 -0.5148
 6598TIP3    H241210   2.608   6.098  13.616  0.4138 -1.2711 -0.3394
 6599TIP3   OH241211   5.465   6.476  15.276  0.1209 -0.3483 -0.5150
 6599TIP3    H141212   5.520   6.503  15.349 -0.4854  1.5429 -0.6926
 6599TIP3    H241213   5.495   6.530  15.202 -1.3203  0.0664 -0.8346
 6600TIP3   OH241214   4.526   5.468  16.991  0.0820  0.0679  0.0562
 6600TIP3    H141215   4.448   5.495  16.943 -0.1106  0.1660  0.4238
 6600TIP3    H241216   4.584   5.433  16.924  0.2493  1.1790 -0.4118
 6601TIP3   OH241217   3.695   6.329   5.144  0.0438  0.1412 -0.6656
 6601TIP3    H141218   3.726   6.392   5.079  1.8959 -0.8537 -0.8205
 6601TIP3    H241219   3.676   6.250   5.094 -0.8063  0.0861 -0.2746
 6602TIP3   OH241220   4.287   4.828   0.878 -0.2398 -0.4727 -0.6270
 6602TIP3    H141221   4.370   4.782   0.890 -0.0541  0.3662  1.5721
 6602TIP3    H241222   4.310   4.920   0.874 -0.9505 -0.3121 -1.6550
 6603TIP3   OH241223   5.223   2.335  12.285  0.1408 -0.1397 -0.3286
 6603TIP3    H141224   5.258   2.402  12.345  2.8909  0.1295 -2.0653
 6603TIP3    H241225   5.201   2.382  12.205 -2.1256 -0.7159 -0.1127
 6604TIP3   OH241226   2.371   2.311  13.333  0.7860 -0.1443 -0.7791
 6604TIP3    H141227   2.448   2.315  13.276  0.9012  2.5547 -0.5398
 6604TIP3    H241228   2.328   2.395  13.321  0.1141  0.0309  2.1646
 6605TIP3   OH241229   2.668   1.038  13.025  0.0037 -0.2917  0.5670
 6605TIP3    H141230   2.625   1.111  13.070 -1.1345 -1.2216  1.0686
 6605TIP3    H241231   2.744   1.077  12.982 -2.4115  1.9217 -2.1267
 6606TIP3   OH241232   1.726   2.517  12.271 -0.2669  0.0189 -0.5216
 6606TIP3    H141233   1.821   2.513  12.285 -0.2915 -0.7150 -0.5061
 6606TIP3    H241234   1.714   2.491  12.180 -0.5370 -1.2917 -0.1426
 6607TIP3   OH241235   3.808   5.387   6.163  0.1145 -0.0668  0.3784
 6607TIP3    H141236   3.744   5.344   6.105  0.0190  0.5102  0.0515
 6607TIP3    H241237   3.890   5.341   6.145 -0.2117 -0.8371  0.8262
 6608TIP3   OH241238   1.752   5.864   5.163  0.1822 -0.0566  0.2828
 6608TIP3    H141239   1.796   5.779   5.173 -0.5229 -0.3613  0.8843
 6608TIP3    H241240   1.669   5.843   5.119 -1.0749 -0.0363  2.5110
 6609TIP3   OH241241   5.339   3.698   4.250  0.2423 -0.1379 -0.0779
 6609TIP3    H141242   5.260   3.674   4.202  1.1441 -1.7446 -0.8463
 6609TIP3    H241243   5.353   3.790   4.230 -1.9104  0.4422  0.8036
 6610TIP3   OH241244   3.862   5.432  12.430  0.1295  0.3192  0.3321
 6610TIP3    H141245   3.862   5.528  12.422 -2.8890  0.2947 -3.0816
 6610TIP3    H241246   3.953   5.409  12.444  0.9899  3.6669  1.2018
 6611TIP3   OH241247   4.503   1.299  17.360  0.2677 -0.2457  0.0088
 6611TIP3    H141248   4.463   1.240  17.423  0.4220 -0.7763 -0.3854
 6611TIP3    H241249   4.473   1.386  17.386  2.4856 -0.0901  2.5222
 6612TIP3   OH241250   3.220   3.293  12.296  0.2344 -0.2885 -0.6726
 6612TIP3    H141251   3.280   3.232  12.338  2.2717  0.7974 -1.8227
 6612TIP3    H241252   3.216   3.264  12.205 -0.8881 -0.2400 -0.6540
 6613TIP3   OH241253   6.419   4.529  16.392 -0.1786  0.3826  0.1840
 6613TIP3    H141254   6.508   4.494  16.381 -0.4640 -0.4757  0.5282
 6613TIP3    H241255   6.389   4.493  16.476 -0.1146  2.2981  1.0893
 6614TIP3   OH241256   3.604   6.710  15.544  0.4547  0.5996  0.5798
 6614TIP3    H141257   3.586   6.616  15.553 -0.0880  0.1706 -3.4236
 6614TIP3    H241258   3.699   6.715  15.536  0.3506 -0.0478 -1.8808
 6615TIP3   OH241259   6.305   3.967  14.459  0.5845  0.7211 -0.3616
 6615TIP3    H141260   6.359   4.045  14.448  1.1596  0.0393 -3.1927
 6615TIP3    H241261   6.367   3.894  14.459  0.0510  0.1533  2.0826
 6616TIP3   OH241262   0.993   3.976   4.751  0.3512  0.2097 -0.1367
 6616TIP3    H141263   0.939   3.897   4.758  0.4181  0.2659  1.3471
 6616TIP3    H241264   1.064   3.951   4.691 -0.7216 -0.1914 -1.2877
 6617TIP3   OH241265   4.543   5.439   5.093  0.1800  1.1308  0.3185
 6617TIP3    H141266   4.607   5.420   5.162  0.9089  1.8120 -0.1465
 6617TIP3    H241267   4.583   5.510   5.042 -1.1462  1.8863  0.2739
 6618TIP3   OH241268   2.673   4.658  14.887 -0.0363 -0.3389 -0.2894
 6618TIP3    H141269   2.656   4.601  14.961 -0.0026  0.4532  0.3418
 6618TIP3    H241270   2.687   4.745  14.925  0.6050 -0.0327 -1.1679
 6619TIP3   OH241271   4.876   3.069  12.251  0.1591  0.0310 -0.3553
 6619TIP3    H141272   4.786   3.040  12.263  0.6494 -1.6640 -0.6104
 6619TIP3    H241273   4.928   3.015  12.309  1.0921  0.6056 -0.6227
 6620TIP3   OH241274   0.678   4.956  15.781 -0.3134 -0.2225  0.5120
 6620TIP3    H141275   0.609   4.924  15.724  0.4486 -0.6237 -0.2129
 6620TIP3    H241276   0.715   5.031  15.734  1.5026 -1.6316 -0.4273
 6621TIP3   OH241277   4.331   6.137   4.883  0.4256 -0.3600 -0.2367
 6621TIP3    H141278   4.290   6.062   4.925 -1.0664 -0.5065 -1.8612
 6621TIP3    H241279   4.311   6.211   4.941 -2.0539 -0.4596 -0.8609
 6622TIP3   OH241280   1.324   0.854   1.820  0.1753  0.2598 -0.7237
 6622TIP3    H141281   1.245   0.846   1.872  0.7485 -1.4781 -0.0621
 6622TIP3    H241282   1.321   0.943   1.785 -1.6290  0.5031 -0.0319
 6623TIP3   OH241283   2.503   4.859  17.255 -0.4220 -0.0826 -0.2275
 6623TIP3    H141284   2.579   4.876  17.311 -1.3934 -0.8265  1.3725
 6623TIP3    H241285   2.535   4.795  17.191  0.4598  0.1002  0.0088
 6624TIP3   OH241286   3.850   6.000   5.209 -0.0910  0.4099  0.1297
 6624TIP3    H141287   3.891   5.988   5.295 -1.0297  0.6686  0.6273
 6624TIP3    H241288   3.908   6.062   5.163  0.3765  0.3303  0.6034
 6625TIP3   OH241289   4.767   3.585   2.766 -0.3647  0.1856  0.0829
 6625TIP3    H141290   4.766   3.668   2.814 -1.4647  0.7639 -0.8755
 6625TIP3    H241291   4.705   3.598   2.694  3.0651  0.3591 -3.1602
 6626TIP3   OH241292   4.845   3.766   2.987 -0.0055 -0.1985 -0.7440
 6626TIP3    H141293   4.770   3.788   3.043  0.4597  0.8777 -0.5232
 6626TIP3    H241294   4.885   3.690   3.030 -0.1497  0.0963 -0.0751
 6627TIP3   OH241295   4.972   1.172  13.057 -0.4080  0.1168 -1.0328
 6627TIP3    H141296   5.064   1.195  13.043  0.2148 -1.9769 -0.7552
 6627TIP3    H241297   4.951   1.115  12.983 -1.7440  1.1427 -1.4852
 6628TIP3   OH241298   6.723   0.029  12.512 -0.5419  0.3904  0.1389
 6628TIP3    H141299   6.801   0.019  12.457 -2.4495 -1.7832 -2.4031
 6628TIP3    H241300   6.747  -0.014  12.594  0.7164 -0.8844 -0.8504
 6629TIP3   OH241301   2.936   4.263  16.093 -0.0317  0.1933 -0.0806
 6629TIP3    H141302   2.862   4.324  16.100  0.3566  0.5081  1.8331
 6629TIP3    H241303   2.896   4.176  16.092 -0.6316  0.4020 -3.4472
 6630TIP3   OH241304   5.412   5.062   5.041  0.3778 -0.2462 -0.5810
 6630TIP3    H141305   5.384   5.153   5.033  0.4433 -0.2679 -1.1213
 6630TIP3    H241306   5.347   5.013   4.990  0.7726 -0.4140 -0.9248
 6631TIP3   OH241307   3.369   2.850  13.746  0.4109  0.2162  0.1658
 6631TIP3    H141308   3.435   2.789  13.780  0.5504 -0.8355 -1.8172
 6631TIP3    H241309   3.287   2.800  13.750  0.0966  0.7590  0.6598
 6632TIP3   OH241310   5.347   5.448   1.527  0.0466  0.0232 -0.2124
 6632TIP3    H141311   5.318   5.436   1.618 -2.9334  1.5916 -0.8127
 6632TIP3    H241312   5.393   5.532   1.528 -0.4958  0.3286 -0.2146
 6633TIP3   OH241313   2.997   3.640   5.249  0.3803 -0.0578  0.0685
 6633TIP3    H141314   3.080   3.687   5.251  0.5144 -0.3170  0.4704
 6633TIP3    H241315   3.020   3.550   5.226  0.3358 -0.3940  1.2882
 6634TIP3   OH241316   6.046   6.562  14.796 -0.5660  0.1198 -0.6453
 6634TIP3    H141317   6.064   6.650  14.763  3.4920 -1.4820 -3.4733
 6634TIP3    H241318   6.111   6.550  14.866  0.4598 -1.3045 -1.8045
 6635TIP3   OH241319   0.315   2.095   3.166 -0.3564 -0.3250  0.4226
 6635TIP3    H141320   0.294   2.160   3.233  0.8306  0.4399  0.0863
 6635TIP3    H241321   0.271   2.015   3.195  1.0949 -0.3688  2.7641
 6636TIP3   OH241322   1.231   4.163   5.191 -0.1123  0.2348  0.0373
 6636TIP3    H141323   1.281   4.149   5.111 -1.6684  0.1845 -0.9676
 6636TIP3    H241324   1.147   4.198   5.162 -1.3771 -1.3749  1.4858
 6637TIP3   OH241325   6.692   2.944  13.128  0.2074  0.5816  0.1075
 6637TIP3    H141326   6.728   2.891  13.199  0.7003  1.2240  0.3515
 6637TIP3    H241327   6.711   2.894  13.049  0.1001  0.0977  0.3832
 6638TIP3   OH241328   5.751   0.825  15.683 -0.0494 -0.2073  0.1876
 6638TIP3    H141329   5.770   0.917  15.662 -0.0960 -0.2959 -0.2675
 6638TIP3    H241330   5.747   0.822  15.778 -2.3051  0.7263  0.1872
 6639TIP3   OH241331   4.639   3.431  15.296 -0.0050  0.2262  0.0727
 6639TIP3    H141332   4.550   3.455  15.269  0.7581  1.0608 -1.8687
 6639TIP3    H241333   4.637   3.438  15.391 -2.3122 -0.8930  0.1862
 6640TIP3   OH241334   0.101   1.017   2.795 -0.2601 -0.0290  0.3458
 6640TIP3    H141335   0.144   1.099   2.820  0.8192 -0.0645 -1.2861
 6640TIP3    H241336   0.120   0.957   2.868  0.4721  0.6510  0.7250
 6641TIP3   OH241337   2.468   1.772  14.775  0.3854 -0.3505 -0.2956
 6641TIP3    H141338   2.458   1.801  14.685 -1.3710 -0.8304 -0.3082
 6641TIP3    H241339   2.542   1.822  14.809 -0.3251  1.5384 -1.3419
 6642TIP3   OH241340   2.531   5.157   1.008 -0.0984 -0.3940  0.4326
 6642TIP3    H141341   2.540   5.141   0.914  1.5026 -0.6237  0.5884
 6642TIP3    H241342   2.437   5.160   1.023 -0.3868 -0.2746 -1.1898
 6643TIP3   OH241343   5.001   3.839  12.000  0.5744 -0.0872  0.2529
 6643TIP3    H141344   4.974   3.833  12.092  0.9912 -0.7637  0.3437
 6643TIP3    H241345   5.062   3.766  11.989 -0.8136 -1.1262 -1.0225
 6644TIP3   OH241346   6.115   4.416   5.365  0.4654 -0.0959  0.9663
 6644TIP3    H141347   6.085   4.332   5.331 -0.3003  0.5050  0.1088
 6644TIP3    H241348   6.059   4.481   5.323  3.2684  1.1786 -1.2265
 6645TIP3   OH241349   3.178   2.912  11.818 -0.0789  0.3505 -0.2321
 6645TIP3    H141350   3.114   2.971  11.859 -0.1947 -0.3999  0.7136
 6645TIP3    H241351   3.137   2.887  11.735 -0.6270  0.5734 -0.0373
 6646TIP3   OH241352   3.139   2.456  12.788 -0.3562 -0.4518 -0.3618
 6646TIP3    H141353   3.161   2.541  12.749 -2.5675  1.0693  1.4118
 6646TIP3    H241354   3.211   2.399  12.763  2.2571  2.4372 -0.0833
 6647TIP3   OH241355   6.448   6.246  13.649  0.0565 -0.2473 -0.0158
 6647TIP3    H141356   6.401   6.309  13.594 -2.4502 -1.0496  1.0615
 6647TIP3    H241357   6.488   6.299  13.718  1.3251  0.5133 -1.2626
 6648TIP3   OH241358   4.248   1.625   0.193 -0.4822  0.1314  0.1539
 6648TIP3    H141359   4.231   1.717   0.174  0.9770  0.2760 -0.6207
 6648TIP3    H241360   4.316   1.627   0.261 -1.4081 -0.3973  1.1309
 6649TIP3   OH241361   6.684   2.943   1.333  0.1950  0.5118  0.0781
 6649TIP3    H141362   6.660   2.900   1.415 -0.8475 -0.9709 -0.9414
 6649TIP3    H241363   6.668   3.036   1.349 -2.6359  0.0119  0.7575
 6650TIP3   OH241364   5.560   2.428  16.311  0.5012  0.3225  0.2500
 6650TIP3    H141365   5.582   2.518  16.288 -1.4225  0.5638 -0.8163
 6650TIP3    H241366   5.596   2.417  16.399  1.4988  1.8463  0.0766
 6651TIP3   OH241367   1.535   6.103  12.669  0.2738 -0.2772 -0.1066
 6651TIP3    H141368   1.494   6.035  12.615  0.8954 -1.9048  1.4012
 6651TIP3    H241369   1.612   6.130  12.618  0.0280 -0.6965 -0.7143
 6652TIP3   OH241370   1.104   5.656  16.501  0.0177 -0.5703  0.5246
 6652TIP3    H141371   1.109   5.667  16.407 -0.4882  2.1932  0.7329
 6652TIP3    H241372   1.016   5.619  16.516  0.7031 -2.6280 -0.0968
 6653TIP3   OH241373   0.813   0.035  13.553 -0.5399  0.4460 -0.4178
 6653TIP3    H141374   0.894   0.066  13.594 -0.5485 -0.9091  0.7193
 6653TIP3    H241375   0.839   0.002  13.468  0.0533  0.2937 -0.1781
 6654TIP3   OH241376   4.903   3.402   4.611 -0.1616 -0.0678  0.5221
 6654TIP3    H141377   4.946   3.430   4.529 -1.3964  0.6567  0.0997
 6654TIP3    H241378   4.976   3.389   4.672  1.0078 -2.7644 -1.2530
 6655TIP3   OH241379   0.886   2.410   0.721  0.5339 -0.1491 -0.4478
 6655TIP3    H141380   0.824   2.465   0.674 -1.4492 -1.3222  0.6677
 6655TIP3    H241381   0.864   2.422   0.813  1.4973 -1.1642 -0.0603
 6656TIP3   OH241382   5.616   4.815   4.471 -0.2169 -0.1904 -0.3321
 6656TIP3    H141383   5.636   4.839   4.380  0.4173 -1.7875 -0.6487
 6656TIP3    H241384   5.632   4.895   4.521 -2.4727  1.3239 -1.8277
 6657TIP3   OH241385   3.955   5.959   2.474  0.3742  0.7057 -0.0481
 6657TIP3    H141386   3.946   5.931   2.383  1.9393 -1.4102  0.3758
 6657TIP3    H241387   4.031   6.017   2.473  1.4126 -0.6147  0.1266
 6658TIP3   OH241388   6.415   2.819   2.387  0.1184 -1.0286 -0.4939
 6658TIP3    H141389   6.509   2.824   2.403  0.1880 -1.5829 -0.7237
 6658TIP3    H241390   6.379   2.779   2.467 -0.3559  2.1539  1.0469
 6659TIP3   OH241391   4.730   6.237   1.419  0.1569 -0.3426  0.0748
 6659TIP3    H141392   4.704   6.189   1.340 -0.7049  1.1260 -0.5847
 6659TIP3    H241393   4.715   6.176   1.491  0.8288 -1.6710 -0.8643
 6660TIP3   OH241394   1.291   4.804  13.919 -0.0935 -0.1589  0.1734
 6660TIP3    H141395   1.224   4.771  13.860 -0.4707 -0.0418  0.5261
 6660TIP3    H241396   1.243   4.823  14.000  0.0321  1.5950 -0.1202
 6661TIP3   OH241397   4.633   0.180  13.512  0.3935 -0.3087 -0.2578
 6661TIP3    H141398   4.571   0.206  13.443 -2.3572 -1.6768  1.5130
 6661TIP3    H241399   4.703   0.135  13.465 -0.7691 -0.1681 -2.2567
 6662TIP3   OH241400   0.983   3.618   5.283 -1.0278 -0.0878  0.7501
 6662TIP3    H141401   1.075   3.599   5.304 -1.0854 -1.3133  0.0335
 6662TIP3    H241402   0.968   3.706   5.316  0.3039 -0.0129  1.2151
 6663TIP3   OH241403   1.888   1.931  14.432 -0.0375 -0.2291 -0.0299
 6663TIP3    H141404   1.856   1.973  14.352 -0.1423 -0.4975 -0.1293
 6663TIP3    H241405   1.810   1.918  14.485 -0.0111 -0.3425 -0.0194
 6664TIP3   OH241406   4.332   6.481  13.528  0.6367  0.3432 -0.4036
 6664TIP3    H141407   4.256   6.523  13.487  0.3186  1.3745  1.1538
 6664TIP3    H241408   4.294   6.412  13.583  0.7229  1.2848  0.8954
 6665TIP3   OH241409   0.742   3.391  17.181 -0.1160 -0.0906 -0.3098
 6665TIP3    H141410   0.673   3.436  17.132  1.3373  1.0343 -1.4114
 6665TIP3    H241411   0.742   3.302  17.147  1.3743  0.8500 -3.0811
 6666TIP3   OH241412   5.298   1.530  14.440 -0.8653  0.0397  0.8762
 6666TIP3    H141413   5.229   1.492  14.495  0.1122 -0.2567  1.9363
 6666TIP3    H241414   5.375   1.477  14.459 -0.3347  0.3478 -0.3161
 6667TIP3   OH241415   5.995   5.743  16.283 -0.2417  0.4108  1.2243
 6667TIP3    H141416   5.929   5.735  16.351  1.2565 -1.7940  2.5683
 6667TIP3    H241417   6.077   5.755  16.330  0.7272 -0.2955 -0.1986
 6668TIP3   OH241418   3.926   2.472  14.983  0.2976 -0.0319 -0.0063
 6668TIP3    H141419   3.954   2.463  15.074 -0.1823 -0.9935  0.0594
 6668TIP3    H241420   3.915   2.566  14.971  1.0906  0.1653  0.7061
 6669TIP3   OH241421   3.890   3.283   6.215  0.4760  0.0459 -0.2305
 6669TIP3    H141422   3.912   3.199   6.176  0.0029  0.2429 -0.9292
 6669TIP3    H241423   3.975   3.327   6.227  0.7074 -0.4470 -0.0349
 6670TIP3   OH241424   1.338   3.892  15.571 -0.3722  0.2119  0.6890
 6670TIP3    H141425   1.415   3.852  15.531 -1.1297 -0.7401  0.1295
 6670TIP3    H241426   1.370   3.973  15.610  0.8725 -0.0868  0.3249
 6671TIP3   OH241427   4.741   0.027  15.861  0.5684  0.2638  0.1506
 6671TIP3    H141428   4.800  -0.045  15.884  2.0015  1.6273  0.9011
 6671TIP3    H241429   4.754   0.040  15.767  0.3074 -0.4462  0.0137
 6672TIP3   OH241430   6.184   4.992   0.732 -0.5976  0.3744  0.3266
 6672TIP3    H141431   6.231   5.073   0.752 -0.2952  0.1197  0.6615
 6672TIP3    H241432   6.137   5.011   0.651 -1.8686  1.4481  1.2620
 6673TIP3   OH241433   0.975   3.311  11.716  0.5178  0.5504 -0.0418
 6673TIP3    H141434   0.963   3.230  11.765  0.4294  0.3706 -0.3620
 6673TIP3    H241435   0.935   3.295  11.631  1.6933  0.4506 -0.5947
 6674TIP3   OH241436   4.065   2.275   3.325 -0.1165 -0.4043  0.4248
 6674TIP3    H141437   4.017   2.283   3.243  2.5300 -0.4453 -1.2611
 6674TIP3    H241438   4.059   2.361   3.366 -0.1741  0.0925 -0.6079
 6675TIP3   OH241439   5.137   0.911  15.663 -0.1897 -0.2024 -0.0041
 6675TIP3    H141440   5.173   0.822  15.664  0.7656  0.1762  0.6100
 6675TIP3    H241441   5.115   0.929  15.755 -0.5775  0.1119 -0.1590
 6676TIP3   OH241442   4.172   0.897   1.620  0.3556 -0.0255  0.0546
 6676TIP3    H141443   4.251   0.868   1.665 -0.2627 -0.8376  0.6672
 6676TIP3    H241444   4.101   0.851   1.665 -0.5824  1.5753  0.3026
 6677TIP3   OH241445   4.545   4.523   4.240  0.0908 -0.4026  0.1612
 6677TIP3    H141446   4.498   4.594   4.285 -0.6725 -0.2317 -0.8684
 6677TIP3    H241447   4.586   4.566   4.164 -1.4454 -1.2440 -1.2138
 6678TIP3   OH241448   2.682   4.356  16.619 -0.4878  0.7200 -0.7803
 6678TIP3    H141449   2.606   4.298  16.612  0.7120 -1.2202  0.9535
 6678TIP3    H241450   2.677   4.393  16.707  0.2074  1.1201 -0.8958
 6679TIP3   OH241451   0.278   4.432  13.669 -0.1359  0.7643 -0.1066
 6679TIP3    H141452   0.236   4.357  13.711  2.6000 -1.7261 -1.4532
 6679TIP3    H241453   0.316   4.397  13.589  1.5338  3.5561 -0.6988
 6680TIP3   OH241454   0.541   5.177  12.026 -0.1837  0.2170 -0.7681
 6680TIP3    H141455   0.597   5.144  12.097  1.8709  0.6118 -2.0909
 6680TIP3    H241456   0.486   5.102  12.002 -0.1363 -0.2481  0.4891
 6681TIP3   OH241457   0.818   6.268  12.617  0.0900  0.5865 -0.1400
 6681TIP3    H141458   0.753   6.239  12.552 -1.1358  0.3999  1.1264
 6681TIP3    H241459   0.890   6.205  12.609  0.8772  1.6752 -2.6253
 6682TIP3   OH241460   5.677   6.034  16.218  0.6344 -0.3452  0.3997
 6682TIP3    H141461   5.766   6.017  16.187  0.9492  0.2505  0.9603
 6682TIP3    H241462   5.685   6.111  16.273 -0.3258  0.0280  0.0404
 6683TIP3   OH241463   5.483   6.138  15.577 -0.1413 -0.2846  0.3487
 6683TIP3    H141464   5.566   6.091  15.581 -0.4300 -1.0901 -1.8259
 6683TIP3    H241465   5.479   6.173  15.488 -1.0423  1.8763  1.1728
 6684TIP3   OH241466   1.531   4.501   2.085  0.4225  0.4381  0.7323
 6684TIP3    H141467   1.620   4.523   2.056 -0.0049  0.3743 -0.7099
 6684TIP3    H241468   1.477   4.574   2.055 -0.6470 -1.3638 -2.1380
 6685TIP3   OH241469   6.339   1.945   0.650  0.3532 -0.3396 -0.5227
 6685TIP3    H141470   6.308   2.015   0.709 -1.1249 -0.9949 -0.4674
 6685TIP3    H241471   6.272   1.941   0.581  0.7242 -1.3051 -0.8388
 6686TIP3   OH241472   4.510   3.406  12.863 -0.3869 -0.0777  0.4499
 6686TIP3    H141473   4.431   3.454  12.888 -0.4793  0.4681 -0.8318
 6686TIP3    H241474   4.502   3.393  12.769  1.3614  0.5907  0.1699
 6687TIP3   OH241475   0.723   2.417   1.545  0.2818 -0.4316 -0.4376
 6687TIP3    H141476   0.718   2.489   1.483 -1.3864 -0.1642 -0.0249
 6687TIP3    H241477   0.714   2.458   1.631 -1.0292 -1.1247 -0.2118
 6688TIP3   OH241478   0.718   1.643   3.096  0.6868  0.4363  0.0504
 6688TIP3    H141479   0.721   1.578   3.166  0.0296  0.0343 -0.2790
 6688TIP3    H241480   0.658   1.606   3.032 -2.2174  2.6683  1.2167
 6689TIP3   OH241481   1.480   2.753   1.999  0.2718 -0.4339 -0.4782
 6689TIP3    H141482   1.526   2.747   1.915 -0.7601  0.1078 -1.0981
 6689TIP3    H241483   1.448   2.664   2.015 -1.5389 -0.0873 -1.8520
 6690TIP3   OH241484   4.925   6.393   1.571 -0.3320 -0.4799 -0.6558
 6690TIP3    H141485   4.858   6.333   1.538 -0.0330 -1.6705  0.7710
 6690TIP3    H241486   4.876   6.458   1.622 -0.3639 -2.6246  2.2905
 6691TIP3   OH241487   3.311   1.684  17.050  0.1198  0.1936  0.1547
 6691TIP3    H141488   3.340   1.739  16.977  0.1263 -0.8446 -0.6448
 6691TIP3    H241489   3.385   1.628  17.070 -0.7608 -1.4449 -0.9199
 6692TIP3   OH241490   6.053   2.906   0.684 -0.6854 -0.1945  0.3657
 6692TIP3    H141491   6.122   2.910   0.619 -0.1641 -1.1116  0.8446
 6692TIP3    H241492   6.025   2.997   0.696 -0.3180  0.0527 -0.6211
 6693TIP3   OH241493   1.981   2.119  15.714  0.2469  0.3793 -0.0674
 6693TIP3    H141494   2.016   2.173  15.643  0.7783 -0.3462 -0.3678
 6693TIP3    H241495   2.032   2.144  15.791  0.1049  0.7089 -0.0781
 6694TIP3   OH241496   2.066   3.384  17.133 -0.1183  0.0054 -0.0133
 6694TIP3    H141497   1.973   3.407  17.134 -0.1001  0.0791  0.0247
 6694TIP3    H241498   2.073   3.307  17.189 -0.3990 -0.9540 -1.2669
 6695TIP3   OH241499   5.343   2.389   4.729  0.3653 -0.5191 -0.3521
 6695TIP3    H141500   5.402   2.459   4.703  1.3409 -1.1840  0.0025
 6695TIP3    H241501   5.400   2.312   4.738 -0.3625 -0.9397  0.9988
 6696TIP3   OH241502   1.179   3.454  12.965  0.6877  0.3707 -0.7744
 6696TIP3    H141503   1.125   3.410  12.899 -1.6576 -0.5562  1.5898
 6696TIP3    H241504   1.252   3.394  12.980  0.5244 -0.0333 -1.5511
 6697TIP3   OH241505   1.567   1.039  12.757  0.1212 -0.0279 -0.3776
 6697TIP3    H141506   1.630   1.009  12.823  0.2534  0.0333 -0.4754
 6697TIP3    H241507   1.595   1.128  12.737 -0.3468  0.2062  0.0055
 6698TIP3   OH241508   3.661   1.247  11.313  0.0608  0.1587  0.8511
 6698TIP3    H141509   3.618   1.182  11.258  2.2652  0.1394 -1.0366
 6698TIP3    H241510   3.627   1.331  11.282  0.2869  0.0779  0.3675
 6699TIP3   OH241511   2.976   0.135  11.739 -0.4718 -0.1050 -0.4861
 6699TIP3    H141512   2.982   0.043  11.711 -2.5446 -0.7567  0.9215
 6699TIP3    H241513   2.957   0.183  11.659 -2.9249 -1.4503 -0.8404
 6700TIP3   OH241514   6.711   5.802  15.614 -0.1433  0.7557 -0.5172
 6700TIP3    H141515   6.677   5.887  15.640  1.5415  1.1367  0.6502
 6700TIP3    H241516   6.708   5.750  15.694  3.7378  1.4620  0.2813
 6701TIP3   OH241517   6.746   1.348  16.648  0.1523  0.1388 -0.1160
 6701TIP3    H141518   6.665   1.313  16.608  0.5113 -1.2069  0.2724
 6701TIP3    H241519   6.806   1.358  16.574  0.3760 -1.0766 -0.1216
 6702TIP3   OH241520   0.237   2.329   3.299  0.1280  0.7839  0.0736
 6702TIP3    H141521   0.229   2.381   3.379  2.1216 -0.3728  1.1085
 6702TIP3    H241522   0.249   2.393   3.230 -2.4695  1.8583  0.4960
 6703TIP3   OH241523   0.109   0.445   5.907  0.4507 -0.4029 -0.4805
 6703TIP3    H141524   0.029   0.429   5.957 -0.4743 -1.0290 -2.0557
 6703TIP3    H241525   0.136   0.533   5.931 -0.6416 -0.2379  0.1877
 6704TIP3   OH241526   1.821   6.667   0.713  0.0245  0.2479  0.3137
 6704TIP3    H141527   1.816   6.724   0.637  0.0518 -1.0523 -0.6988
 6704TIP3    H241528   1.730   6.643   0.732  0.1530 -1.3533 -0.8613
 6705TIP3   OH241529   0.801   1.916   1.518 -0.0753 -0.1973  0.4839
 6705TIP3    H141530   0.862   1.858   1.471  0.0916  0.2695  0.1197
 6705TIP3    H241531   0.828   2.004   1.494 -1.6758  0.0117 -0.6885
 6706TIP3   OH241532   1.273   2.270   0.805 -0.3422 -0.4609  0.3945
 6706TIP3    H141533   1.262   2.347   0.861 -1.2391 -0.6237  0.4673
 6706TIP3    H241534   1.366   2.268   0.783 -0.2748  0.5138  0.5765
 6707TIP3   OH241535   5.106   2.734  10.918 -0.6894  0.1909 -0.3700
 6707TIP3    H141536   5.171   2.737  10.989  1.1788 -0.7425 -1.9303
 6707TIP3    H241537   5.076   2.643  10.917 -0.4246  0.1078 -0.9947
 6708TIP3   OH241538   4.639   0.137   3.346  0.1094  0.5304  0.5050
 6708TIP3    H141539   4.686   0.077   3.404 -0.7375 -0.5904  0.0763
 6708TIP3    H241540   4.684   0.221   3.356  1.4822 -0.2273  0.9450
 6709TIP3   OH241541   5.733   1.135  16.436  0.7106 -0.3444 -0.3023
 6709TIP3    H141542   5.796   1.117  16.366  0.3602  0.7326 -0.9243
 6709TIP3    H241543   5.709   1.227  16.423 -0.1298 -0.4192  0.6200
 6710TIP3   OH241544   1.418   5.888  17.345 -0.1120  0.8330  0.1624
 6710TIP3    H141545   1.425   5.797  17.314  0.0353  1.4381 -1.6910
 6710TIP3    H241546   1.485   5.895  17.413 -0.3213 -0.5217  0.5361
 6711TIP3   OH241547   5.261   5.369   3.634  0.2870 -0.0719  0.0503
 6711TIP3    H141548   5.334   5.410   3.588 -0.7083 -0.3798 -1.8969
 6711TIP3    H241549   5.298   5.290   3.672  0.8432 -0.5760 -1.4698
 6712TIP3   OH241550   5.786   1.064  12.477  0.3242 -0.4416 -0.1212
 6712TIP3    H141551   5.717   1.000  12.458 -1.5786  1.0577  1.3484
 6712TIP3    H241552   5.843   1.020  12.540 -1.3799 -0.4876  1.4551
 6713TIP3   OH241553   3.841   5.534  13.771 -0.1521  0.4344 -0.3943
 6713TIP3    H141554   3.766   5.493  13.814  1.4656 -0.3668  1.8240
 6713TIP3    H241555   3.868   5.603  13.831  0.4696  1.1970 -1.5183
 6714TIP3   OH241556   1.489   4.383   2.628 -0.1880  0.0938  0.5970
 6714TIP3    H141557   1.578   4.415   2.610 -0.2356  0.0646  0.2944
 6714TIP3    H241558   1.472   4.321   2.557 -0.5609  0.3182  0.4911
 6715TIP3   OH241559   2.978   3.936  16.487  0.8425 -0.0087  0.2635
 6715TIP3    H141560   2.939   3.872  16.428 -0.0545  0.8701 -0.1411
 6715TIP3    H241561   3.055   3.968  16.440  0.0805  0.7558 -0.5029
 6716TIP3   OH241562   4.880   1.908   1.384  0.8311 -0.0355 -0.4113
 6716TIP3    H141563   4.866   1.851   1.460 -0.2821  1.3487  0.4777
 6716TIP3    H241564   4.796   1.911   1.340  0.8458  0.9526 -0.3975
 6717TIP3   OH241565   5.966   6.722   0.209 -0.0482 -0.3569  0.1528
 6717TIP3    H141566   5.919   6.802   0.187  0.5094 -0.1003 -0.1091
 6717TIP3    H241567   5.899   6.665   0.246 -0.2115  0.7423  1.6723
 6718TIP3   OH241568   0.834   5.724   5.153  0.0693 -0.1656 -0.2772
 6718TIP3    H141569   0.740   5.728   5.171  0.2128 -0.8976  0.6826
 6718TIP3    H241570   0.849   5.636   5.120  0.6444 -0.5579  0.9780
 6719TIP3   OH241571   5.951   5.819   5.595  0.4699  0.8890 -0.0930
 6719TIP3    H141572   5.971   5.761   5.669  1.3555 -0.2799 -1.2007
 6719TIP3    H241573   5.856   5.819   5.589  0.4520 -0.4896 -0.0829
 6720TIP3   OH241574   1.235   4.824   2.956 -0.2471 -0.0545 -0.0050
 6720TIP3    H141575   1.308   4.767   2.980  0.1464  0.3300 -0.2787
 6720TIP3    H241576   1.157   4.771   2.974  0.1173 -0.8378 -0.6591
 6721TIP3   OH241577   0.778   1.864  10.609  0.4083  0.4083  0.1694
 6721TIP3    H141578   0.726   1.887  10.685  0.4969 -0.9113  0.6616
 6721TIP3    H241579   0.816   1.947  10.579 -3.2445  1.7996 -1.2552
 6722TIP3   OH241580   0.547   3.362   4.784 -0.1953 -0.2389 -0.0040
 6722TIP3    H141581   0.602   3.288   4.757 -0.0504 -0.0822 -0.1430
 6722TIP3    H241582   0.606   3.419   4.833 -0.2101 -0.0242 -0.2336
 6723TIP3   OH241583   2.496   5.734  11.657  0.1687  0.1982  0.4034
 6723TIP3    H141584   2.482   5.791  11.732  0.1454  0.8533 -0.0910
 6723TIP3    H241585   2.412   5.732  11.612  0.2461 -0.0082  0.2626
 6724TIP3   OH241586   4.804   3.842   2.041  0.3427 -0.2697 -0.1351
 6724TIP3    H141587   4.742   3.784   1.997 -0.0998  1.0516 -1.3220
 6724TIP3    H241588   4.887   3.827   1.995 -0.2919  1.6885 -2.0844
 6725TIP3   OH241589   2.667   2.148   3.448  0.3543  0.2986  0.2259
 6725TIP3    H141590   2.717   2.229   3.443 -0.1938  0.8162  2.2417
 6725TIP3    H241591   2.586   2.167   3.400  1.4764 -0.1562 -2.0080
 6726TIP3   OH241592   1.127   6.053   2.684  0.2882 -0.0237 -0.5101
 6726TIP3    H141593   1.184   6.026   2.612  1.7719  1.6991 -0.0605
 6726TIP3    H241594   1.165   6.136   2.714 -1.3109  0.1606  1.1323
 6727TIP3   OH241595   2.480   1.907  15.190  0.4073  0.1048  0.5554
 6727TIP3    H141596   2.507   1.981  15.136 -0.5291 -0.6618 -1.0497
 6727TIP3    H241597   2.559   1.882  15.238  0.9635  1.5557  0.4342
 6728TIP3   OH241598   1.686   3.963   3.574  0.3767  0.3217  0.7089
 6728TIP3    H141599   1.777   3.950   3.601  0.6034 -0.5410 -0.3862
 6728TIP3    H241600   1.692   4.006   3.489 -0.1057 -2.0563 -0.6381
 6729TIP3   OH241601   4.977   0.368   5.663 -0.0397  0.3237 -0.7700
 6729TIP3    H141602   5.053   0.419   5.693 -1.1344  0.2802  2.5022
 6729TIP3    H241603   5.013   0.281   5.645  0.7103  0.2515  0.9005
 6730TIP3   OH241604   1.908   6.267   2.082  0.4521 -0.2643 -0.0473
 6730TIP3    H141605   1.984   6.278   2.025  0.4079 -1.8163 -0.4605
 6730TIP3    H241606   1.935   6.302   2.166  0.7891  1.3687 -0.8089
 6731TIP3   OH241607   2.517   0.471  13.495  1.3048 -0.0762  0.3056
 6731TIP3    H141608   2.482   0.556  13.466 -2.1642 -1.0591  1.1726
 6731TIP3    H241609   2.533   0.483  13.588  1.1973 -0.2420  0.3454
 6732TIP3   OH241610   5.276   0.578   1.865 -0.4288 -0.3100  0.2294
 6732TIP3    H141611   5.364   0.615   1.866 -0.6796  0.3088 -0.0573
 6732TIP3    H241612   5.285   0.497   1.814  0.0660 -0.5024  0.6185
 6733TIP3   OH241613   1.124   1.519  16.815  0.1235  0.1550 -0.6969
 6733TIP3    H141614   1.176   1.470  16.878 -1.2151 -2.4684 -1.4703
 6733TIP3    H241615   1.043   1.540  16.861  0.5063  1.2790 -0.5161
 6734TIP3   OH241616   5.145   4.729  17.159 -0.7542  0.0561 -0.1846
 6734TIP3    H141617   5.198   4.663  17.113 -0.9253  1.1477 -2.0778
 6734TIP3    H241618   5.191   4.744  17.242  0.9145 -0.3278 -0.9892
 6735TIP3   OH241619   4.052   2.602  14.295  0.2167  0.6175  0.0471
 6735TIP3    H141620   4.120   2.616  14.361  2.8512  0.8038 -2.5090
 6735TIP3    H241621   4.003   2.527  14.328  0.3158  1.6872  2.9573
 6736TIP3   OH241622   4.592   5.459  14.170  0.2872  0.2643 -0.8185
 6736TIP3    H141623   4.680   5.458  14.207  1.5876  0.9318 -3.6167
 6736TIP3    H241624   4.587   5.542  14.122 -1.5460 -0.1753 -1.4680
 6737TIP3   OH241625   4.020   2.110   5.380  0.6057 -0.0900  0.3037
 6737TIP3    H141626   3.978   2.034   5.421 -0.2514 -0.4961 -1.2451
 6737TIP3    H241627   4.100   2.076   5.341 -0.6433 -0.6839 -1.9549
 6738TIP3   OH241628   3.009   5.748   5.947  0.2240  0.1545 -0.2266
 6738TIP3    H141629   2.995   5.815   5.880 -1.1568  0.4132  0.2977
 6738TIP3    H241630   2.930   5.694   5.943 -0.0395  0.3885  1.4347
 6739TIP3   OH241631   2.321   6.649   2.131  0.1927  0.5354 -0.1235
 6739TIP3    H141632   2.342   6.704   2.206  3.9438 -1.1534  0.2970
 6739TIP3    H241633   2.389   6.670   2.066 -0.5301 -0.9072 -1.4106
 6740TIP3   OH241634   1.713   2.873   4.252 -0.1205  0.0931 -0.2037
 6740TIP3    H141635   1.669   2.794   4.284  1.6795  0.0648  2.5134
 6740TIP3    H241636   1.646   2.941   4.255 -1.1347 -0.8592 -0.5578
 6741TIP3   OH241637   4.365   2.351   5.292  0.1272  0.2337 -0.3375
 6741TIP3    H141638   4.444   2.406   5.293 -0.1312  0.5920  0.3717
 6741TIP3    H241639   4.348   2.331   5.384 -0.4039 -0.1468 -0.5141
 6742TIP3   OH241640   4.613   6.599   2.071 -0.0732 -0.3970 -0.0111
 6742TIP3    H141641   4.641   6.513   2.103 -1.9296 -1.1939 -0.4487
 6742TIP3    H241642   4.694   6.640   2.041  0.7793 -2.1944 -0.2890
 6743TIP3   OH241643   6.174   4.782  16.965  0.1812  0.5389  0.5183
 6743TIP3    H141644   6.215   4.835  16.896 -0.7708  1.8131  0.8823
 6743TIP3    H241645   6.245   4.728  16.998  1.3073  1.8188  0.3167
 6744TIP3   OH241646   6.091   3.953   5.495  0.0472 -0.4737  0.0548
 6744TIP3    H141647   6.084   3.952   5.400  0.3002  0.8343  0.0059
 6744TIP3    H241648   6.014   3.906   5.525 -0.9349  0.5614 -0.7717
 6745TIP3   OH241649   0.663   0.627  10.657 -0.9492  0.1403 -0.2394
 6745TIP3    H141650   0.694   0.557  10.599 -0.2369  0.9876 -0.9125
 6745TIP3    H241651   0.694   0.602  10.744 -1.5195 -0.8500 -0.2974
 6746TIP3   OH241652   2.675   4.824   1.749 -0.0615  0.5512 -0.5307
 6746TIP3    H141653   2.591   4.821   1.704  0.6497  1.5961 -2.0051
 6746TIP3    H241654   2.710   4.911   1.731  1.4273  0.0830 -0.1230
 6747TIP3   OH241655   4.480   0.777  13.895 -0.1396 -0.1507  0.6905
 6747TIP3    H141656   4.459   0.859  13.939 -0.1505  0.7136 -0.8338
 6747TIP3    H241657   4.403   0.722  13.908  0.7290 -0.8566  3.6459
 6748TIP3   OH241658   2.108   5.555  16.856  0.4907 -0.2816  0.1195
 6748TIP3    H141659   2.040   5.545  16.789 -0.5168  0.7013  0.9518
 6748TIP3    H241660   2.060   5.576  16.936  1.6801 -1.2756  1.1393
 6749TIP3   OH241661   2.626   0.781   5.775  0.1997 -0.0302  0.0653
 6749TIP3    H141662   2.630   0.844   5.703  0.4974 -0.7224 -0.5375
 6749TIP3    H241663   2.597   0.833   5.851 -0.3982  0.6502 -0.6113
 6750TIP3   OH241664   0.426   3.744  16.907 -0.1509  0.0204  0.2739
 6750TIP3    H141665   0.382   3.720  16.824  2.7195  1.1554 -1.7217
 6750TIP3    H241666   0.386   3.827  16.932  1.0228  1.2747 -1.7515
 6751TIP3   OH241667   0.628   1.088   3.173 -0.3908 -0.3972  0.6656
 6751TIP3    H141668   0.661   1.006   3.210 -0.2436 -0.5809  0.1235
 6751TIP3    H241669   0.702   1.148   3.179 -0.1940 -0.5904  0.1457
 6752TIP3   OH241670   4.253   4.732  11.811 -0.2778 -0.3063 -0.5565
 6752TIP3    H141671   4.272   4.778  11.893 -0.0349 -0.2653 -0.6351
 6752TIP3    H241672   4.336   4.692  11.787 -0.4434 -0.6259 -0.5887
 6753TIP3   OH241673   6.651   2.692  11.632 -0.1823  0.8341 -0.1798
 6753TIP3    H141674   6.631   2.608  11.590 -0.9532  0.8317  0.1802
 6753TIP3    H241675   6.722   2.729  11.579 -0.3722  0.3119 -0.8083
 6754TIP3   OH241676   5.952   6.363  11.020 -0.3587 -0.3498 -0.4031
 6754TIP3    H141677   5.951   6.270  11.042  0.4755  0.1752  2.3191
 6754TIP3    H241678   5.864   6.394  11.042 -0.0244 -0.1465  0.7253
 6755TIP3   OH241679   6.063   3.330  15.175  0.9788 -0.2977 -0.1173
 6755TIP3    H141680   6.046   3.397  15.242 -2.1255 -1.7954  0.7934
 6755TIP3    H241681   6.072   3.379  15.094 -0.3260  1.3125  0.6443
 6756TIP3   OH241682   6.099   2.267  11.583  0.2435  0.0963  0.1773
 6756TIP3    H141683   6.071   2.229  11.499  0.7609 -0.3235  0.1892
 6756TIP3    H241684   6.161   2.336  11.558 -0.7349  0.9817  0.1527
 6757TIP3   OH241685   1.804   1.673  14.023  0.4475  0.0758 -0.2903
 6757TIP3    H141686   1.711   1.652  14.021  0.3910  0.3019 -0.1045
 6757TIP3    H241687   1.846   1.594  14.057  0.4435 -0.4221 -1.3820
 6758TIP3   OH241688   2.966   5.879  14.636 -0.9328 -0.3616  0.5103
 6758TIP3    H141689   3.020   5.829  14.697 -0.1676  0.5632  0.6064
 6758TIP3    H241690   2.967   5.968  14.670 -0.9436  0.0579 -0.5506
 6759TIP3   OH241691   2.225   1.041  10.569 -0.2805 -0.1043  0.2634
 6759TIP3    H141692   2.271   0.957  10.575 -0.5795 -0.7141 -3.3509
 6759TIP3    H241693   2.132   1.018  10.571 -0.5297  0.7172  3.5334
 6760TIP3   OH241694   0.250   2.569  15.114  0.0860  0.2090  0.6621
 6760TIP3    H141695   0.233   2.555  15.208  1.6764 -0.4843  0.8772
 6760TIP3    H241696   0.240   2.482  15.075 -1.3175  0.6219  0.0244
 6761TIP3   OH241697   6.600   3.471  13.606 -0.8547 -0.0261 -1.0883
 6761TIP3    H141698   6.680   3.460  13.657  0.3742  3.1217 -2.0696
 6761TIP3    H241699   6.592   3.390  13.555  0.6487 -1.1565  0.3740
 6762TIP3   OH241700   5.760   5.735  12.352  0.1122  0.0739  0.7047
 6762TIP3    H141701   5.771   5.827  12.374 -2.1483  1.1948 -2.2469
 6762TIP3    H241702   5.672   5.714  12.381 -0.5183 -0.2264 -1.2974
 6763TIP3   OH241703   1.635   2.851   3.926  0.4164 -0.5176 -0.0604
 6763TIP3    H141704   1.542   2.839   3.949  0.2563 -2.3580 -1.3738
 6763TIP3    H241705   1.682   2.793   3.987  0.7649  0.6478  0.8097
 6764TIP3   OH241706   2.004   5.650   0.111 -0.0850  0.0010  0.2043
 6764TIP3    H141707   2.097   5.649   0.134 -0.0663  0.4787  0.1589
 6764TIP3    H241708   1.958   5.638   0.194  0.0192 -0.8651  0.1510
 6765TIP3   OH241709   4.999   4.277   4.653  0.5156  0.1445 -0.0183
 6765TIP3    H141710   5.068   4.262   4.718  0.4774  0.5344  0.1149
 6765TIP3    H241711   5.042   4.262   4.569  0.0390 -2.5420  0.1266
 6766TIP3   OH241712   2.726   3.701   3.554  0.5528 -0.5630  0.0275
 6766TIP3    H141713   2.788   3.662   3.493  0.3076 -1.1025  0.1149
 6766TIP3    H241714   2.704   3.786   3.515  3.0885  0.7100  1.1378
 6767TIP3   OH241715   6.231   3.564  15.925 -0.1639 -0.1753 -0.0570
 6767TIP3    H141716   6.179   3.484  15.934 -2.7264  1.3676 -0.2513
 6767TIP3    H241717   6.271   3.557  15.839 -0.8812 -0.9563 -0.3439
 6768TIP3   OH241718   4.484   0.726  15.664 -0.3764 -0.2053  1.0250
 6768TIP3    H141719   4.502   0.662  15.734  1.4307 -0.2121  0.5982
 6768TIP3    H241720   4.452   0.674  15.591 -1.4396 -0.2959  1.5336
 6769TIP3   OH241721   0.225   3.280   6.601 -0.0504  0.1440  0.0208
 6769TIP3    H141722   0.303   3.297   6.548  0.0256 -0.9720 -0.2508
 6769TIP3    H241723   0.224   3.351   6.666  1.5507 -0.1604  0.4238
 6770TIP3   OH241724   6.490   5.492  11.328 -0.7459 -0.1071 -0.1762
 6770TIP3    H141725   6.463   5.498  11.236  1.0626  0.6384 -0.7121
 6770TIP3    H241726   6.481   5.399  11.349 -2.4121 -0.0931 -0.6711
 6771TIP3   OH241727   2.438   6.537  16.468  0.0787 -0.3121  0.4535
 6771TIP3    H141728   2.526   6.523  16.434 -0.6459  0.1822 -1.8007
 6771TIP3    H241729   2.445   6.618  16.519  0.9462 -0.3075  0.3420
 6772TIP3   OH241730   1.280   1.934   2.569 -0.3890 -0.1668 -0.2024
 6772TIP3    H141731   1.361   1.962   2.611  0.1612 -2.4616  0.4018
 6772TIP3    H241732   1.290   1.960   2.477  0.6086  0.3699  0.0410
 6773TIP3   OH241733   5.375   1.382  14.844 -0.4990  0.2718 -0.1493
 6773TIP3    H141734   5.437   1.450  14.819 -0.3172  0.5803  1.0673
 6773TIP3    H241735   5.316   1.425  14.906 -0.8240 -0.4815  0.0784
 6774TIP3   OH241736   3.332   5.707   0.744 -0.4110  0.0296 -0.0931
 6774TIP3    H141737   3.401   5.745   0.799  0.2773 -0.1868 -0.7849
 6774TIP3    H241738   3.263   5.773   0.743  0.5576  1.0898 -0.8716
 6775TIP3   OH241739   3.264   0.140   4.518 -0.9151 -0.0729  0.3733
 6775TIP3    H141740   3.276   0.205   4.586  0.7057  2.4460 -2.1021
 6775TIP3    H241741   3.258   0.057   4.565 -0.5869  1.5528  3.5607
 6776TIP3   OH241742   0.559   5.930  15.318 -0.9097 -0.5287  0.0053
 6776TIP3    H141743   0.469   5.945  15.289 -1.4027 -0.1283  1.6774
 6776TIP3    H241744   0.584   5.848  15.275 -2.0081 -0.5653 -0.6134
 6777TIP3   OH241745   4.348   0.358  13.018  0.0065 -0.3504  0.0189
 6777TIP3    H141746   4.342   0.372  12.924 -3.2822  0.7904  0.2630
 6777TIP3    H241747   4.406   0.428  13.049 -2.4964  2.2983 -0.7908
 6778TIP3   OH241748   4.550   5.445  12.107  0.2293  0.1823  0.1048
 6778TIP3    H141749   4.564   5.350  12.116 -0.1411  0.2284  1.4716
 6778TIP3    H241750   4.635   5.483  12.126  0.9358  0.0794 -2.5594
 6779TIP3   OH241751   4.596   3.424   3.593 -0.2624  0.3346  0.1635
 6779TIP3    H141752   4.604   3.453   3.503  1.7177 -0.0999  0.1351
 6779TIP3    H241753   4.601   3.504   3.645 -3.2131  0.7806 -0.0950
 6780TIP3   OH241754   3.293   3.395  10.962 -0.0632  0.0496  0.7991
 6780TIP3    H141755   3.218   3.432  11.008  0.1581  1.0305  0.4029
 6780TIP3    H241756   3.324   3.324  11.018  0.6691  1.6788  2.5719
 6781TIP3   OH241757   0.940   3.731  12.698 -0.1722  0.4685  0.2789
 6781TIP3    H141758   0.992   3.792  12.646 -1.0168  1.2196  0.2923
 6781TIP3    H241759   0.853   3.770  12.701 -0.6079 -0.5037  0.6978
 6782TIP3   OH241760   6.651   5.255   2.526  0.0756  0.3108  0.4392
 6782TIP3    H141761   6.604   5.192   2.472 -2.3622 -0.0889  2.8322
 6782TIP3    H241762   6.721   5.204   2.567  0.8908  0.2528 -0.9274
 6783TIP3   OH241763   4.025   3.517  17.227  0.4309  0.1326 -0.0573
 6783TIP3    H141764   3.959   3.585  17.210 -1.1363 -1.5656 -1.1599
 6783TIP3    H241765   4.028   3.510  17.322  0.6433  1.7385  0.0801
 6784TIP3   OH241766   0.869   0.992  10.646 -0.7261 -0.3202 -0.0243
 6784TIP3    H141767   0.886   0.923  10.710  0.1300  1.0058  1.2319
 6784TIP3    H241768   0.956   1.017  10.615 -0.9366  0.9175  0.3541
 6785TIP3   OH241769   3.274   1.543  14.238  0.0347 -0.0942 -0.1218
 6785TIP3    H141770   3.316   1.460  14.212 -0.7771 -0.3877 -0.5263
 6785TIP3    H241771   3.208   1.558  14.171 -0.1230  0.6611  0.2011
 6786TIP3   OH241772   0.874   1.786  14.936  0.1944  0.2413  0.3345
 6786TIP3    H141773   0.941   1.854  14.946  0.4894 -0.1985  1.6411
 6786TIP3    H241774   0.878   1.761  14.844  0.2225  1.8344 -0.1154
 6787TIP3   OH241775   1.248   0.215   1.768 -0.2523 -0.0743  0.4476
 6787TIP3    H141776   1.289   0.258   1.693 -2.7299  0.2318 -0.8347
 6787TIP3    H241777   1.201   0.141   1.731 -4.0918  1.8048  1.0801
 6788TIP3   OH241778   2.431   0.488   2.795  0.0354  0.1582  0.2271
 6788TIP3    H141779   2.349   0.483   2.844 -0.0735 -1.5588 -0.0381
 6788TIP3    H241780   2.432   0.408   2.742  1.9008  0.0971  0.2710
 6789TIP3   OH241781   0.899   0.958   3.606  0.3103 -0.3323  0.0902
 6789TIP3    H141782   0.926   0.933   3.695 -0.6140  0.2452  0.5479
 6789TIP3    H241783   0.807   0.981   3.615  0.4317  0.5779 -0.8569
 6790TIP3   OH241784   1.809   4.554  15.017  0.2398 -0.2228  0.1578
 6790TIP3    H141785   1.864   4.561  14.939 -0.4253 -0.5530 -0.3551
 6790TIP3    H241786   1.735   4.501  14.989  0.9212 -2.0032  1.5472
 6791TIP3   OH241787   1.003   1.084   1.629 -0.1584  0.3005 -0.5264
 6791TIP3    H141788   1.092   1.106   1.600  0.6187 -0.8940  0.8235
 6791TIP3    H241789   0.976   1.158   1.683  0.0800  0.5785 -0.7821
 6792TIP3   OH241790   5.314   0.840  17.013 -0.2544  0.0500 -0.2632
 6792TIP3    H141791   5.394   0.797  17.045  1.0961  2.5824  0.0768
 6792TIP3    H241792   5.332   0.857  16.921  0.0247  1.4158  0.0198
 6793TIP3   OH241793   2.064   4.224   4.494 -0.6368 -0.1567 -0.5193
 6793TIP3    H141794   2.117   4.303   4.479 -0.9631  0.0878 -0.3963
 6793TIP3    H241795   2.112   4.154   4.449 -0.3606  0.1172 -0.6550
 6794TIP3   OH241796   2.686   0.759   3.938 -0.0404  0.5829 -0.9436
 6794TIP3    H141797   2.657   0.724   3.854 -0.0123 -2.1674  0.1126
 6794TIP3    H241798   2.720   0.846   3.916  0.8394 -0.3738 -3.9536
 6795TIP3   OH241799   5.794   2.609  14.135 -0.1703  0.6494 -0.0264
 6795TIP3    H141800   5.702   2.617  14.113 -0.5884 -1.1005  0.8319
 6795TIP3    H241801   5.828   2.542  14.076 -0.0895 -0.4814  1.2428
 6796TIP3   OH241802   0.736   3.458  16.821 -0.0029 -0.0084  0.0561
 6796TIP3    H141803   0.830   3.477  16.816  0.3125 -0.2823  3.1655
 6796TIP3    H241804   0.731   3.364  16.835 -0.7097  0.0662  0.3474
 6797TIP3   OH241805   1.830   6.226   0.896 -0.8495  1.0475  0.6296
 6797TIP3    H141806   1.854   6.303   0.844 -0.8247  0.7058  0.1295
 6797TIP3    H241807   1.904   6.166   0.887 -1.6208  0.2246 -0.4566
 6798TIP3   OH241808   0.231   0.136   2.409  0.3904 -0.4350  0.0425
 6798TIP3    H141809   0.253   0.067   2.472  0.8130 -0.1358  0.2288
 6798TIP3    H241810   0.170   0.095   2.348 -1.8508 -0.1497  1.9287
 6799TIP3   OH241811   0.692   5.361   0.235 -0.3334 -0.1554 -0.1588
 6799TIP3    H141812   0.740   5.309   0.170 -0.3739 -0.4404  0.0373
 6799TIP3    H241813   0.610   5.384   0.191 -0.6514 -0.9113  0.0178
 6800TIP3   OH241814   2.984   4.091   1.724  0.1107 -0.0084 -0.4341
 6800TIP3    H141815   3.035   4.151   1.669  0.7649 -1.2273 -1.2106
 6800TIP3    H241816   3.021   4.101   1.811  1.2127 -0.3452 -0.8467
 6801TIP3   OH241817   5.324   0.218   2.675  0.0340 -1.0586 -0.0749
 6801TIP3    H141818   5.397   0.271   2.644  0.6138 -1.8341 -0.0633
 6801TIP3    H241819   5.286   0.181   2.595  1.2560 -2.7026  0.0536
 6802TIP3   OH241820   5.336   1.751  14.143 -0.0753  0.3805  0.0281
 6802TIP3    H141821   5.318   1.661  14.171  2.2069  0.1995  1.1684
 6802TIP3    H241822   5.258   1.800  14.167 -1.7912 -1.4140 -1.4900
 6803TIP3   OH241823   0.529   1.187   6.241  0.4056  0.5729  0.6368
 6803TIP3    H141824   0.475   1.235   6.304 -0.2373  1.0500 -0.2517
 6803TIP3    H241825   0.470   1.168   6.168  0.6085 -1.6668  0.9681
 6804TIP3   OH241826   3.846   5.049  14.040 -0.5094 -0.1361 -0.2025
 6804TIP3    H141827   3.916   5.002  14.086 -1.5154 -1.3736  0.1191
 6804TIP3    H241828   3.890   5.124  13.999  1.2415 -1.5773 -1.0787
 6805TIP3   OH241829   6.691   4.674  11.997 -0.6096 -0.0839 -0.4639
 6805TIP3    H141830   6.774   4.629  12.016 -0.3139  0.9595  0.9476
 6805TIP3    H241831   6.657   4.698  12.084 -1.9397  0.2953 -1.0662
 6806TIP3   OH241832   0.861   6.070  16.467 -0.4508  0.0836 -0.0521
 6806TIP3    H141833   0.898   6.121  16.538 -1.9877  1.2043  0.0136
 6806TIP3    H241834   0.911   5.988  16.466 -1.2185 -0.5667  3.1799
 6807TIP3   OH241835   6.614   4.276   4.613 -0.4036  0.0107  0.3548
 6807TIP3    H141836   6.597   4.365   4.582  1.2063  0.3367  0.3177
 6807TIP3    H241837   6.569   4.270   4.697 -3.5001 -0.3465 -1.1586
 6808TIP3   OH241838   0.950   4.469  14.174 -0.1347  0.0460 -0.1008
 6808TIP3    H141839   0.898   4.389  14.166  0.0380  0.1305 -2.7974
 6808TIP3    H241840   0.906   4.533  14.118  1.5424  0.8479 -0.5750
 6809TIP3   OH241841   5.553   2.910   4.636  0.4664  0.0241  0.2653
 6809TIP3    H141842   5.520   2.823   4.658  0.9931  0.0098  0.9956
 6809TIP3    H241843   5.553   2.911   4.540  0.6305 -0.8412  0.2460
 6810TIP3   OH241844   0.181   0.995   2.228  0.2797  0.3971  0.1696
 6810TIP3    H141845   0.152   1.006   2.319 -1.3065  0.2993 -0.2949
 6810TIP3    H241846   0.227   0.911   2.228 -1.2001 -0.4672  0.5816
 6811TIP3   OH241847   2.101   3.352   3.883 -0.1189 -0.2993  0.0272
 6811TIP3    H141848   2.154   3.323   3.809 -1.2857 -2.0273 -0.1912
 6811TIP3    H241849   2.011   3.353   3.850 -0.4040  1.3731  0.7368
 6812TIP3   OH241850   5.181   2.345   2.150 -0.0773  0.8426 -0.3876
 6812TIP3    H141851   5.176   2.434   2.185 -0.6151  0.5898  0.1881
 6812TIP3    H241852   5.097   2.332   2.105 -0.7928 -0.0124  1.1086
 6813TIP3   OH241853   1.556   2.880  12.654 -0.2827  0.0794  0.3796
 6813TIP3    H141854   1.477   2.925  12.624 -2.0145 -1.9236  1.5904
 6813TIP3    H241855   1.524   2.796  12.687  2.4810 -1.1186  0.2801
 6814TIP3   OH241856   0.754   5.515  16.073 -0.1990  0.1108  0.6948
 6814TIP3    H141857   0.814   5.583  16.104 -0.4393 -0.6872  3.1504
 6814TIP3    H241858   0.669   5.539  16.111 -0.3962 -1.2482  1.1890
 6815TIP3   OH241859   2.986   3.921  11.932 -0.2044 -0.2923  0.1106
 6815TIP3    H141860   3.003   3.867  11.855  0.0309 -0.8781  0.5601
 6815TIP3    H241861   2.894   3.905  11.954 -0.4747  0.4407 -0.4737
 6816TIP3   OH241862   2.216   1.940   4.310 -0.0121 -0.4318  0.5967
 6816TIP3    H141863   2.133   1.969   4.272  0.1154  1.5456  1.6499
 6816TIP3    H241864   2.190   1.884   4.383 -0.3434 -1.2936 -0.1597
 6817TIP3   OH241865   3.772   1.581  11.047  0.2432  0.0225 -0.0216
 6817TIP3    H141866   3.861   1.575  11.013  0.0959 -0.9345 -0.2802
 6817TIP3    H241867   3.752   1.675  11.048  1.5928  0.3224  0.9632
 6818TIP3   OH241868   2.892   4.452  11.668 -0.4415  0.7813 -0.4740
 6818TIP3    H141869   2.872   4.497  11.586  0.4019 -0.5409 -1.4582
 6818TIP3    H241870   2.829   4.380  11.671 -1.6635  1.8391  0.9958
 6819TIP3   OH241871   6.735   0.785   5.065 -0.5288  0.5225  0.1199
 6819TIP3    H141872   6.704   0.771   4.975 -0.8118  0.6304  0.2011
 6819TIP3    H241873   6.655   0.792   5.117 -0.3711  0.8800  0.3170
 6820TIP3   OH241874   0.122   1.012  16.370 -0.1035  0.6116 -0.2078
 6820TIP3    H141875   0.209   1.052  16.363  0.0984  0.6146  1.7289
 6820TIP3    H241876   0.096   1.028  16.461 -0.9395 -1.7807  0.0495
 6821TIP3   OH241877   5.014   1.604   4.341  0.2491  0.3637 -0.3747
 6821TIP3    H141878   4.921   1.593   4.365 -0.0483  1.6261 -0.8599
 6821TIP3    H241879   5.061   1.551   4.405 -0.8664 -1.4010 -0.9351
 6822TIP3   OH241880   5.401   4.513  15.451  0.1834  0.0540  0.3293
 6822TIP3    H141881   5.340   4.462  15.504  0.9133 -0.8771  0.3002
 6822TIP3    H241882   5.486   4.499  15.492  0.4450  1.0752  0.1775
 6823TIP3   OH241883   6.414   2.110  13.095 -0.3589  0.1337 -0.1371
 6823TIP3    H141884   6.357   2.039  13.125 -0.5456  0.1038 -0.5515
 6823TIP3    H241885   6.411   2.175  13.165  0.1744 -0.4673  0.4502
 6824TIP3   OH241886   2.405   3.950   0.924 -0.2393  0.0113 -0.2669
 6824TIP3    H141887   2.320   3.953   0.880 -0.4724 -0.4367  0.1447
 6824TIP3    H241888   2.399   3.875   0.983 -0.1140  0.9061  0.9213
 6825TIP3   OH241889   2.905   4.800  15.789  0.1863  0.7450  0.4662
 6825TIP3    H141890   2.841   4.866  15.762  0.1691 -0.2890 -2.3132
 6825TIP3    H241891   2.988   4.848  15.797  0.1328  1.1893 -1.3189
 6826TIP3   OH241892   5.511   0.890   3.362 -0.0571 -0.5585  0.7690
 6826TIP3    H141893   5.430   0.908   3.315  0.0613 -1.0969  0.3426
 6826TIP3    H241894   5.570   0.962   3.337 -0.6333  0.2484  1.6721
 6827TIP3   OH241895   4.299   2.213  13.133  0.3475 -0.2960  1.1448
 6827TIP3    H141896   4.238   2.170  13.193  0.6787 -0.2703  1.4998
 6827TIP3    H241897   4.364   2.146  13.113  1.9698  0.5715  3.2139
 6828TIP3   OH241898   6.706   1.853   3.598  0.5907  0.3878 -0.3132
 6828TIP3    H141899   6.784   1.798   3.598  1.3050  1.3342  0.9928
 6828TIP3    H241900   6.645   1.810   3.658  0.6511  0.3785 -0.2592
 6829TIP3   OH241901   6.120   4.568  16.392  0.3096 -0.2545  0.0221
 6829TIP3    H141902   6.154   4.535  16.309  0.9312 -0.1586  0.2324
 6829TIP3    H241903   6.156   4.509  16.458 -0.6328 -0.6641  0.1823
 6830TIP3   OH241904   4.673   0.808   6.127  0.2629  0.3715  0.4391
 6830TIP3    H141905   4.709   0.844   6.046 -0.1433  1.6754  0.8071
 6830TIP3    H241906   4.690   0.876   6.192 -0.1127 -0.3277  1.2784
 6831TIP3   OH241907   1.525   2.613  14.671  0.2731 -0.1710 -0.0317
 6831TIP3    H141908   1.521   2.617  14.767  0.4898  2.6532 -0.0556
 6831TIP3    H241909   1.618   2.605  14.651  0.1116 -2.8392 -0.0645
 6832TIP3   OH241910   1.328   2.891   5.608 -0.0835 -0.1008 -0.3116
 6832TIP3    H141911   1.423   2.898   5.614  0.1336 -2.3892 -0.4074
 6832TIP3    H241912   1.309   2.894   5.514 -0.4052  2.7861 -0.2467
 6833TIP3   OH241913   3.805   6.026  13.734 -0.4227 -0.1395  0.0489
 6833TIP3    H141914   3.739   6.037  13.803  0.1288 -1.9999  0.9150
 6833TIP3    H241915   3.859   5.953  13.763 -0.2537 -1.0931 -2.4263
 6834TIP3   OH241916   0.301   4.376  15.977 -0.4153  0.2156  0.2164
 6834TIP3    H141917   0.264   4.417  15.899 -1.4274  2.1711  1.6166
 6834TIP3    H241918   0.389   4.413  15.984  0.9789 -2.4628 -1.6985
 6835TIP3   OH241919   5.403   0.744   1.617 -0.6609  0.0132  0.1473
 6835TIP3    H141920   5.475   0.704   1.568  0.1783  0.7249  0.7565
 6835TIP3    H241921   5.429   0.836   1.627 -2.2308  0.5981 -0.6712
 6836TIP3   OH241922   5.452   2.954   1.089 -0.2150  0.1998 -0.1927
 6836TIP3    H141923   5.546   2.963   1.075 -0.1481  2.3706  1.1528
 6836TIP3    H241924   5.445   2.900   1.168 -0.1018 -0.0412 -0.3473
 6837TIP3   OH241925   1.662   1.543  15.763  0.7865  0.1186 -0.2638
 6837TIP3    H141926   1.600   1.588  15.821  1.1288  0.0684  0.1450
 6837TIP3    H241927   1.608   1.513  15.689  0.4512  0.6892 -0.2582
 6838TIP3   OH241928   5.693   3.762  13.422 -0.0991  0.4919 -0.4698
 6838TIP3    H141929   5.739   3.790  13.501  1.0491  1.4458 -1.4386
 6838TIP3    H241930   5.748   3.793  13.350  0.6120 -3.0637 -1.6952
 6839TIP3   OH241931   6.640   1.424   3.873 -0.0674 -0.4382  0.5210
 6839TIP3    H141932   6.691   1.387   3.801  0.5256  0.5067  0.4415
 6839TIP3    H241933   6.695   1.411   3.950 -0.2124 -0.4427  0.6239
 6840TIP3   OH241934   5.504   3.218  17.241 -0.3405  0.0867 -0.3738
 6840TIP3    H141935   5.547   3.261  17.315 -0.5900  0.3436 -0.3768
 6840TIP3    H241936   5.460   3.142  17.279  0.7506 -0.6326 -0.4862
 6841TIP3   OH241937   1.914   5.886   0.786  0.0770  0.2272  0.2007
 6841TIP3    H141938   1.979   5.825   0.821  1.2391  1.4117  0.1960
 6841TIP3    H241939   1.932   5.969   0.832 -1.4218  0.5975  0.1813
 6842TIP3   OH241940   4.601   4.353   0.135  0.5526  0.2311 -0.3041
 6842TIP3    H141941   4.664   4.284   0.157 -1.0063 -0.7911  1.2589
 6842TIP3    H241942   4.570   4.331   0.047  0.9509 -0.3724 -0.2973
 6843TIP3   OH241943   1.748   4.811  14.563 -0.1634  0.1537 -0.4959
 6843TIP3    H141944   1.742   4.892  14.613 -1.3051  0.3169 -0.8641
 6843TIP3    H241945   1.657   4.789  14.542 -0.0074 -2.0391  0.8680
 6844TIP3   OH241946   2.161   4.533   3.498 -0.4801  0.8332 -0.1962
 6844TIP3    H141947   2.117   4.589   3.562  1.0373  1.2174  0.5582
 6844TIP3    H241948   2.217   4.476   3.550  1.3138  1.6241 -1.1614
 6845TIP3   OH241949   1.055   4.135  15.069 -0.1937  0.2920 -0.0335
 6845TIP3    H141950   1.070   4.170  15.156  2.1317  0.5819 -0.4679
 6845TIP3    H241951   1.117   4.183  15.013 -0.7713 -0.7196 -1.6254
 6846TIP3   OH241952   2.050   4.416  11.611 -0.1433  0.0649 -0.5417
 6846TIP3    H141953   1.976   4.373  11.569  0.6320 -1.0130 -0.8624
 6846TIP3    H241954   2.063   4.368  11.693  1.1252 -0.7642 -1.1953
 6847TIP3   OH241955   2.279   5.385   2.122 -0.0736 -0.0091  0.0873
 6847TIP3    H141956   2.307   5.294   2.133 -0.9844 -0.0819  2.2947
 6847TIP3    H241957   2.186   5.379   2.100  0.2385  0.3798 -1.4482
 6848TIP3   OH241958   3.813   1.789   1.437 -0.0764 -0.3250  0.2728
 6848TIP3    H141959   3.780   1.739   1.363 -0.7750  1.5963 -0.7891
 6848TIP3    H241960   3.736   1.829   1.476  0.4292 -0.2890  1.2767
 6849TIP3   OH241961   1.473   2.526   4.143  0.1478  0.1050 -0.4441
 6849TIP3    H141962   1.534   2.564   4.205  1.0884 -0.0437 -1.2604
 6849TIP3    H241963   1.458   2.595   4.078 -0.6771  0.1912 -0.1803
 6850TIP3   OH241964   4.784   0.672  16.831  0.0684 -0.0674 -0.0256
 6850TIP3    H141965   4.871   0.656  16.868 -0.4240  0.5902  1.5009
 6850TIP3    H241966   4.759   0.757  16.865 -0.9993 -0.0388 -0.8300
 6851TIP3   OH241967   4.104   1.724   2.863 -0.2638  0.0093  0.5385
 6851TIP3    H141968   4.185   1.701   2.817 -0.7589  0.2219 -0.4847
 6851TIP3    H241969   4.050   1.764   2.795 -0.7518  0.9983  1.4956
 6852TIP3   OH241970   0.697   0.755  14.437 -0.0757 -0.5929 -0.0569
 6852TIP3    H141971   0.676   0.661  14.445 -0.5606 -0.4190  0.9105
 6852TIP3    H241972   0.723   0.780  14.526 -0.5500  0.3318 -0.1764
 6853TIP3   OH241973   0.105   2.054   1.969  0.0507 -0.4163 -0.0890
 6853TIP3    H141974   0.154   2.066   1.888 -0.4190  0.5721 -0.2399
 6853TIP3    H241975   0.034   2.118   1.965  1.0927  0.9935  1.9219
 6854TIP3   OH241976   3.656   2.084  16.196  0.5323 -0.0972  0.0788
 6854TIP3    H141977   3.709   2.024  16.144  0.5165  0.1777 -0.2604
 6854TIP3    H241978   3.568   2.047  16.195  0.9509 -1.2719  1.7455
 6855TIP3   OH241979   6.720   3.736  11.504  0.6393  0.2036 -0.6689
 6855TIP3    H141980   6.754   3.661  11.552  2.2314  1.2572 -0.0744
 6855TIP3    H241981   6.629   3.714  11.486  0.9365 -1.6406 -0.0695
 6856TIP3   OH241982   2.516   1.637  15.709  0.2678 -0.2147  0.2264
 6856TIP3    H141983   2.523   1.549  15.673  0.3008 -0.2415  0.2984
 6856TIP3    H241984   2.432   1.669  15.677  0.7851  0.1751 -0.7923
 6857TIP3   OH241985   0.968   5.212  12.468  0.2973 -0.4254  0.1113
 6857TIP3    H141986   0.886   5.258  12.484 -0.5423 -1.9608  0.4325
 6857TIP3    H241987   1.034   5.263  12.515 -0.6852  0.1113  0.9515
 6858TIP3   OH241988   6.179   0.804   1.138 -0.0187  0.4313 -0.4204
 6858TIP3    H141989   6.129   0.760   1.207  0.4300  0.4252 -0.0902
 6858TIP3    H241990   6.152   0.895   1.143 -0.4203  0.3206 -0.6224
 6859TIP3   OH241991   1.064   2.690   0.094 -0.0749 -0.2143  0.2222
 6859TIP3    H141992   0.979   2.689   0.136 -0.5927 -0.9878 -0.7973
 6859TIP3    H241993   1.048   2.728   0.007  0.3999 -1.2843 -0.3588
 6860TIP3   OH241994   3.679   2.723   1.408 -0.3342  0.8731  0.2103
 6860TIP3    H141995   3.715   2.638   1.433  2.3781  1.7876 -0.2787
 6860TIP3    H241996   3.686   2.775   1.488 -1.1046  0.9138  0.2533
 6861TIP3   OH241997   2.401   6.586  15.900  0.3093  0.4039  0.4480
 6861TIP3    H141998   2.368   6.630  15.978 -1.3031 -0.0247  0.0592
 6861TIP3    H241999   2.437   6.657  15.846  0.8129  0.7876  1.2632
 6862TIP3   OH242000   5.710   2.841  17.394 -0.1008  0.0901 -0.1394
 6862TIP3    H142001   5.683   2.913  17.452  1.1961  0.0765  0.5304
 6862TIP3    H242002   5.725   2.883  17.309  1.8334  0.9137  0.5333
 6863TIP3   OH242003   1.784   2.747   0.190 -0.2685 -0.9772 -0.4730
 6863TIP3    H142004   1.868   2.741   0.234 -0.6878 -1.9619  0.2079
 6863TIP3    H242005   1.719   2.751   0.260 -0.6929  3.4252 -0.8206
 6864TIP3   OH242006   3.085   2.384   4.489 -0.1152  0.4988  0.2469
 6864TIP3    H142007   3.087   2.320   4.561  0.0379  1.1480  0.8334
 6864TIP3    H242008   3.137   2.458   4.522  2.5533 -0.3643 -1.6690
 6865TIP3   OH242009   0.075   1.186   0.396  0.4296  0.0855  0.1423
 6865TIP3    H142010   0.141   1.142   0.343 -0.3685 -2.4382  1.0975
 6865TIP3    H242011  -0.004   1.185   0.342  0.5042  0.7515  0.0123
 6866TIP3   OH242012   6.095   0.919  13.125  0.1753 -0.2940  0.5126
 6866TIP3    H142013   6.161   0.927  13.056 -0.7345 -0.1865 -0.3581
 6866TIP3    H242014   6.096   1.004  13.169  0.1793 -0.0855  0.1096
 6867TIP3   OH242015   1.334   6.022  15.305 -0.3683 -0.6168 -0.5875
 6867TIP3    H142016   1.381   5.951  15.263  0.2115 -0.5650 -0.0393
 6867TIP3    H242017   1.356   6.100  15.254 -0.1549 -0.6564 -0.5561
 6868TIP3   OH242018   2.807   1.800  15.331 -0.2904  0.4099  0.3931
 6868TIP3    H142019   2.844   1.724  15.286  1.6087 -0.1327  2.6541
 6868TIP3    H242020   2.739   1.763  15.388  0.0909  0.4823  0.9073
 6869TIP3   OH242021   1.556   3.682  11.601 -0.4535 -0.2947 -0.3049
 6869TIP3    H142022   1.590   3.716  11.684 -2.0436  3.7096 -1.0530
 6869TIP3    H242023   1.634   3.653  11.554  0.5435 -2.2177  2.2890
 6870TIP3   OH242024   4.527   6.200  13.668 -0.0992  0.4957 -0.5164
 6870TIP3    H142025   4.604   6.189  13.724 -0.1729 -1.1698 -0.6921
 6870TIP3    H242026   4.463   6.246  13.724  0.7104  1.1577 -0.1048
 6871TIP3   OH242027   6.196   2.624  12.618  0.2406 -0.6002 -0.4085
 6871TIP3    H142028   6.111   2.607  12.659  0.9777  0.8477  1.9209
 6871TIP3    H242029   6.229   2.537  12.594 -0.4246 -1.5581  1.8267
 6872TIP3   OH242030   0.035   5.541  13.790 -0.3072  0.9219  0.5630
 6872TIP3    H142031  -0.059   5.556  13.805 -0.5946  0.1881 -0.4066
 6872TIP3    H242032   0.074   5.544  13.878 -1.3169  0.7442  1.0355
 6873TIP3   OH242033   3.697   2.454  17.444 -0.4093  0.6067 -0.0871
 6873TIP3    H142034   3.780   2.420  17.478 -1.0333 -0.6633  0.2426
 6873TIP3    H242035   3.719   2.539  17.407  0.6025  1.4226  2.1915
 6874TIP3   OH242036   4.855   5.457   4.884  0.5555  0.0598 -0.7315
 6874TIP3    H142037   4.784   5.484   4.827 -4.5147 -1.4712  3.9606
 6874TIP3    H242038   4.873   5.366   4.859  0.8056  0.4114 -1.8778
 6875TIP3   OH242039   1.785   6.055  13.018  0.3480  0.4857 -0.6135
 6875TIP3    H142040   1.729   6.049  13.095  1.3345 -1.9440 -0.0013
 6875TIP3    H242041   1.872   6.032  13.050  0.7599 -0.6785 -2.4454
 6876TIP3   OH242042   3.816   5.284  11.336 -0.9233  0.1625  0.3758
 6876TIP3    H142043   3.779   5.278  11.248  0.6302 -0.6274 -0.2529
 6876TIP3    H242044   3.768   5.356  11.377 -1.2852  0.9252 -1.3054
 6877TIP3   OH242045   0.690   5.551  14.359  0.3252  0.4427  0.2017
 6877TIP3    H142046   0.755   5.495  14.402 -0.3786 -0.6879 -0.1927
 6877TIP3    H242047   0.646   5.494  14.296  1.1027  1.9593 -1.8369
 6878TIP3   OH242048   6.051   4.489  10.812 -0.3046  0.5836  0.3188
 6878TIP3    H142049   6.123   4.551  10.827 -0.1336  0.3390  0.5167
 6878TIP3    H242050   6.040   4.488  10.717  1.1426 -0.7011  0.1166
 6879TIP3   OH242051   3.432   1.777  15.986 -0.5763  0.2884  0.1929
 6879TIP3    H142052   3.462   1.850  15.932  0.2791 -1.4083 -1.7736
 6879TIP3    H242053   3.336   1.780  15.979 -0.7747  2.7602  2.4053
 6880TIP3   OH242054   3.956   2.307   4.807 -0.2776  0.1722  0.1871
 6880TIP3    H142055   3.894   2.306   4.880 -0.0973  0.8580  0.3553
 6880TIP3    H242056   3.959   2.399   4.780  1.7868  0.4301  1.1438
 6881TIP3   OH242057   5.474   5.107  14.506  0.2705  0.3393 -0.1573
 6881TIP3    H142058   5.486   5.194  14.544 -0.4152  1.9118 -3.2441
 6881TIP3    H242059   5.400   5.070  14.555 -0.5634  2.2195  0.0780
 6882TIP3   OH242060   3.202   2.426   4.979  0.0569 -0.2138 -0.2150
 6882TIP3    H142061   3.216   2.514   5.013  2.9492 -0.7956  0.4159
 6882TIP3    H242062   3.144   2.384   5.044 -1.7663  1.2787 -0.7901
 6883TIP3   OH242063   1.874   5.001  17.387 -1.1967 -0.4955  0.3196
 6883TIP3    H142064   1.965   5.001  17.417 -0.1812 -0.7631 -2.4654
 6883TIP3    H242065   1.860   4.912  17.354 -2.2858 -0.2845  0.1994
 6884TIP3   OH242066   5.357   2.117   0.461  0.1791  0.1807  0.2226
 6884TIP3    H142067   5.439   2.129   0.413 -0.5869 -0.9162 -1.4526
 6884TIP3    H242068   5.383   2.089   0.548  1.6066  1.6023  0.2980
 6885TIP3   OH242069   5.342   5.216  12.731 -0.3493  0.3370 -0.6007
 6885TIP3    H142070   5.262   5.221  12.679  0.7122  1.9130 -2.1986
 6885TIP3    H242071   5.358   5.307  12.757  2.2838  0.5320 -2.5663
 6886TIP3   OH242072   1.968   0.132   1.613 -0.2056 -0.2789 -0.4478
 6886TIP3    H142073   1.942   0.153   1.703 -0.1159 -1.9706  0.0152
 6886TIP3    H242074   1.894   0.083   1.578 -1.2351  2.2867 -2.1437
 6887TIP3   OH242075   0.592   5.169  13.601  0.2614  0.4552 -0.3121
 6887TIP3    H142076   0.665   5.212  13.645 -1.6812  0.7494  3.0395
 6887TIP3    H242077   0.615   5.076  13.601  1.5034  0.7338 -1.3055
 6888TIP3   OH242078   0.779   0.239  12.218  0.4832 -0.3470  0.2877
 6888TIP3    H142079   0.776   0.297  12.294  1.2135 -0.1402  0.1715
 6888TIP3    H242080   0.781   0.298  12.142  0.0502 -0.5459  0.1225
 6889TIP3   OH242081   1.220   0.930   5.756  0.0229  0.2079  0.3207
 6889TIP3    H142082   1.182   0.922   5.669 -2.2556  0.5001  1.2184
 6889TIP3    H242083   1.313   0.910   5.744 -0.0070  1.3370 -2.3275
 6890TIP3   OH242084   5.764   6.134  15.605  0.5797  0.3844 -0.7539
 6890TIP3    H142085   5.853   6.100  15.598  0.5637  0.4641 -1.4465
 6890TIP3    H242086   5.769   6.224  15.572  0.2883  0.4632 -0.5889
 6891TIP3   OH242087   6.399   1.458   0.889 -0.9530 -0.0143 -0.3531
 6891TIP3    H142088   6.454   1.537   0.891 -1.0358  0.0692  2.1506
 6891TIP3    H242089   6.453   1.391   0.931 -1.3903 -0.9557 -1.2663
 6892TIP3   OH242090   4.278   0.687  13.484 -0.5343  0.1343 -0.3216
 6892TIP3    H142091   4.260   0.771  13.440 -0.9273  0.8429  1.1501
 6892TIP3    H242092   4.373   0.689  13.500 -0.2271 -0.5216 -1.8720
 6893TIP3   OH242093   4.189   6.099  15.115  0.3019 -0.3503  0.7100
 6893TIP3    H142094   4.135   6.099  15.194 -0.1313 -0.5778  0.4241
 6893TIP3    H242095   4.134   6.143  15.049  1.5903  2.0310  1.1234
 6894TIP3   OH242096   1.596   0.807  12.954 -0.2827  0.1753  0.2093
 6894TIP3    H142097   1.690   0.820  12.967 -0.1512 -1.6708  1.6461
 6894TIP3    H242098   1.584   0.712  12.962 -2.3861  0.4482  0.9457
 6895TIP3   OH242099   5.460   4.252   0.161 -0.6205  0.9977 -0.0200
 6895TIP3    H142100   5.383   4.196   0.152 -0.1848  0.6098 -1.7625
 6895TIP3    H242101   5.521   4.221   0.094  1.4854  0.6626  1.9139
 6896TIP3   OH242102   1.916   4.003  12.414  0.2452 -0.0228  0.0951
 6896TIP3    H142103   1.974   4.009  12.489  1.5841 -0.1511 -0.8909
 6896TIP3    H242104   1.832   3.977  12.451  0.5625  1.0584  1.6600
 6897TIP3   OH242105   0.659   4.820  17.446  0.4530 -0.0815 -0.1947
 6897TIP3    H142106   0.641   4.734  17.483  1.8738 -1.1333 -1.7637
 6897TIP3    H242107   0.753   4.832  17.457  0.5325  0.5587 -1.3873
 6898TIP3   OH242108   5.699   1.972   5.072 -0.5533 -0.5927 -0.2543
 6898TIP3    H142109   5.623   2.003   5.023 -1.5324 -2.3264  0.0837
 6898TIP3    H242110   5.721   1.888   5.032  0.2899 -0.7958  0.5883
 6899TIP3   OH242111   5.063   3.715  12.616  0.0020 -0.2440 -0.3501
 6899TIP3    H142112   4.980   3.760  12.599 -0.4429 -0.1049  1.9338
 6899TIP3    H242113   5.124   3.752  12.552 -0.5890  2.9216  0.7832
 6900TIP3   OH242114   6.646   4.862   3.076 -0.4994 -0.1835 -0.1389
 6900TIP3    H142115   6.573   4.857   3.013 -0.5872 -1.2372  0.0332
 6900TIP3    H242116   6.689   4.777   3.070  0.7135  0.4115 -0.2086
 6901TIP3   OH242117   0.653   3.866   4.207  0.5026  0.3943  0.5810
 6901TIP3    H142118   0.658   3.846   4.113  1.1356 -0.1070  0.7138
 6901TIP3    H242119   0.596   3.798   4.243 -0.1138  0.8568  0.4928
 6902TIP3   OH242120   4.844   3.309   3.399 -0.1533 -0.6137 -0.6845
 6902TIP3    H142121   4.897   3.271   3.329 -0.5886 -0.6945 -0.9746
 6902TIP3    H242122   4.783   3.239   3.424  0.0823 -0.6236 -0.1422
 6903TIP3   OH242123   2.061   3.895  14.560 -0.4884  0.1268  0.2622
 6903TIP3    H142124   2.042   3.873  14.469  1.4114 -0.9412  0.0545
 6903TIP3    H242125   2.141   3.948  14.556 -0.8490  0.7787  1.2543
 6904TIP3   OH242126   2.595   6.690  13.611  0.0404 -0.2762  0.6626
 6904TIP3    H142127   2.554   6.630  13.673 -1.0001  0.8441  1.1153
 6904TIP3    H242128   2.536   6.765  13.609  1.3231  0.7504  0.1504
 6905TIP3   OH242129   2.187   4.589  14.309  0.6077 -0.1998  0.1626
 6905TIP3    H142130   2.135   4.511  14.331 -0.4355  0.0401 -1.3317
 6905TIP3    H242131   2.137   4.633  14.240  1.0308  1.9685  1.1647
 6906TIP3   OH242132   2.365   3.426   3.180 -0.1536  0.2749 -0.1677
 6906TIP3    H142133   2.367   3.338   3.217  1.0838 -0.1104 -1.1058
 6906TIP3    H242134   2.446   3.467   3.211 -0.9125  1.2541  0.6018
 6907TIP3   OH242135   3.899   2.112  13.182 -0.6984  0.0528 -0.8052
 6907TIP3    H142136   3.949   2.053  13.126 -0.9092  0.4562 -1.4307
 6907TIP3    H242137   3.840   2.158  13.122 -0.2177  1.2389 -0.3943
 6908TIP3   OH242138   5.932   2.705   2.877 -0.6850  0.2928 -0.2499
 6908TIP3    H142139   5.846   2.673   2.850 -1.5105  1.3271  1.0080
 6908TIP3    H242140   5.931   2.798   2.855  0.0907  0.3354 -0.1468
 6909TIP3   OH242141   5.073   6.134   5.923  0.0845 -0.5866 -0.1031
 6909TIP3    H142142   5.049   6.046   5.895 -0.6854 -0.1087 -1.0102
 6909TIP3    H242143   5.165   6.144   5.897  0.6861 -1.6857  1.4819
 6910TIP3   OH242144   0.090   6.008   4.129 -0.8069 -0.0515 -0.2989
 6910TIP3    H142145   0.139   5.926   4.132 -1.1181 -0.2388 -0.1358
 6910TIP3    H242146   0.118   6.055   4.207  0.2557  0.5278 -1.0175
 6911TIP3   OH242147   5.165   4.600  14.235 -0.1178  0.2698  0.2738
 6911TIP3    H142148   5.147   4.507  14.223  0.1355  0.3296 -0.6720
 6911TIP3    H242149   5.253   4.603  14.274 -0.0935  0.1101  0.2326
 6912TIP3   OH242150   1.932   4.621   2.527 -0.3360 -0.1474 -0.1646
 6912TIP3    H142151   2.001   4.628   2.460  0.3918  0.6027  0.6239
 6912TIP3    H242152   1.885   4.704   2.522 -1.8060 -1.0163 -1.3198
 6913TIP3   OH242153   0.560   2.784   4.829  0.1682 -0.6733  0.2612
 6913TIP3    H142154   0.485   2.818   4.878 -0.1564  1.3610 -1.5083
 6913TIP3    H242155   0.522   2.734   4.757  0.5936 -1.5599  0.6342
 6914TIP3   OH242156   5.323   0.948   2.026 -0.0750  0.1111  0.1535
 6914TIP3    H142157   5.370   0.866   2.017 -0.3419  0.0384 -0.6224
 6914TIP3    H242158   5.379   1.013   1.982 -0.2064  0.2097  0.1298
 6915TIP3   OH242159   4.417   3.291  11.573  0.0712 -0.2181  0.3094
 6915TIP3    H142160   4.475   3.225  11.612  0.8756  0.2708 -0.0537
 6915TIP3    H242161   4.381   3.339  11.648  2.3848  1.3833  0.4891
 6916TIP3   OH242162   2.365   4.057   1.752 -0.3777  0.1343 -0.1828
 6916TIP3    H142163   2.375   4.134   1.806 -3.4583 -0.1921  1.0248
 6916TIP3    H242164   2.371   4.090   1.662  0.8734  1.3192  0.3039
 6917TIP3   OH242165   5.453   0.613   0.404 -0.1074  0.5025  0.8898
 6917TIP3    H142166   5.504   0.666   0.465  1.4382  1.5743 -1.1994
 6917TIP3    H242167   5.505   0.533   0.394 -0.1287  0.5203  0.6434
 6918TIP3   OH242168   3.159   1.424   0.570  0.7454  0.2521  0.7427
 6918TIP3    H142169   3.207   1.478   0.507  0.8694 -1.0634 -0.3557
 6918TIP3    H242170   3.071   1.459   0.570  0.3747 -0.5351 -1.2584
 6919TIP3   OH242171   3.714   5.566  12.742 -0.0871  0.1553  0.6385
 6919TIP3    H142172   3.680   5.655  12.733  0.5435  0.3030 -0.4346
 6919TIP3    H242173   3.802   5.577  12.777 -0.3357 -0.1086  1.3686
 6920TIP3   OH242174   6.142   4.517   4.139  0.3572  0.1561  0.4742
 6920TIP3    H142175   6.108   4.583   4.200  0.3994  0.4061  0.2259
 6920TIP3    H242176   6.067   4.459   4.123  0.4621 -0.1700  1.1048
 6921TIP3   OH242177   4.515   4.363  14.147 -0.0176  0.0681  0.1016
 6921TIP3    H142178   4.454   4.399  14.082  1.7414 -0.6808 -2.1021
 6921TIP3    H242179   4.468   4.287  14.183 -0.7682  0.0429 -0.8609
 6922TIP3   OH242180   0.823   6.370   1.015 -0.2577 -0.3523 -0.3537
 6922TIP3    H142181   0.740   6.386   1.060  0.2944  2.2376 -0.1153
 6922TIP3    H242182   0.886   6.425   1.061  0.9743 -0.0144 -2.3326
 6923TIP3   OH242183   2.695   1.435   0.177  0.1643  0.1524 -0.1919
 6923TIP3    H142184   2.710   1.360   0.120 -0.3207 -0.5958  0.6388
 6923TIP3    H242185   2.601   1.434   0.195  0.0026  1.4745 -0.8570
 6924TIP3   OH242186   1.140   2.541   0.702  0.5041 -0.0654 -0.8801
 6924TIP3    H142187   1.206   2.493   0.651 -1.2035 -2.0789 -1.3271
 6924TIP3    H242188   1.060   2.489   0.692 -1.0989  2.1421 -0.1330
 6925TIP3   OH242189   4.430   6.069  13.454  0.0275  0.0534 -0.1226
 6925TIP3    H142190   4.514   6.023  13.449  1.3957  2.4261 -0.4766
 6925TIP3    H242191   4.434   6.116  13.538 -1.5015 -0.7192  0.4215
 6926TIP3   OH242192   4.534   6.689  13.937 -0.5119 -0.4207  0.3294
 6926TIP3    H142193   4.501   6.684  13.848 -0.3261  1.4677  0.1153
 6926TIP3    H242194   4.626   6.664  13.930 -0.5165 -0.3505  0.0003
 6927TIP3   OH242195   3.694   2.169   0.329  0.3176  0.0267 -0.1249
 6927TIP3    H142196   3.700   2.120   0.247 -1.0307 -0.0859 -0.1743
 6927TIP3    H242197   3.664   2.256   0.302  1.6720  0.5869  0.0754
 6928TIP3   OH242198   2.210   3.863  16.386  0.3936  0.2781 -0.5873
 6928TIP3    H142199   2.246   3.948  16.362  1.0616 -0.3131 -1.7439
 6928TIP3    H242200   2.163   3.880  16.468 -0.5559  2.0313 -1.4256
 6929TIP3   OH242201   5.919   4.824   5.679 -0.3301 -0.4624 -0.4888
 6929TIP3    H142202   5.997   4.843   5.731 -0.6875  0.5906 -0.3106
 6929TIP3    H242203   5.860   4.780   5.740  0.2394 -1.5577 -0.7133
 6930TIP3   OH242204   2.832   0.040   1.782 -0.1653  0.0281 -0.3729
 6930TIP3    H142205   2.889   0.018   1.708  0.8365  0.4649  0.2477
 6930TIP3    H242206   2.756   0.081   1.741  0.8714  1.3083 -1.1345
 6931TIP3   OH242207   5.401   5.809  16.439  0.2170 -0.1646 -0.0669
 6931TIP3    H142208   5.365   5.881  16.490  1.7530  1.9893 -1.7947
 6931TIP3    H242209   5.345   5.804  16.362  0.3683 -0.5335 -0.1574
 6932TIP3   OH242210   5.370   0.403  12.715 -0.0986  0.8526  0.0903
 6932TIP3    H142211   5.425   0.482  12.722  0.8699  0.0319  4.3150
 6932TIP3    H242212   5.411   0.352  12.645  0.3848  3.1920 -1.4514
 6933TIP3   OH242213   3.031   3.348   6.537 -0.1648  0.3701  0.4554
 6933TIP3    H142214   2.963   3.286   6.509  0.0327 -0.1301  1.0500
 6933TIP3    H242215   2.988   3.433   6.533 -0.3125  0.2536 -0.7933
 6934TIP3   OH242216   0.616   1.625  13.670 -0.0452 -0.9973 -0.0138
 6934TIP3    H142217   0.610   1.659  13.759 -0.4166 -1.6783  0.2239
 6934TIP3    H242218   0.706   1.593  13.662  1.1119  2.1293 -1.0239
 6935TIP3   OH242219   4.500   3.653   4.822  0.4174  0.3337 -0.0442
 6935TIP3    H142220   4.581   3.704   4.830  0.2589  0.3706  1.6258
 6935TIP3    H242221   4.524   3.565   4.849 -0.3262  0.6032  1.6000
 6936TIP3   OH242222   3.090   4.883   5.881  0.1244  0.3112  0.3738
 6936TIP3    H142223   3.023   4.922   5.937 -1.8125  0.2003 -1.7502
 6936TIP3    H242224   3.141   4.827   5.941 -0.6047  1.6627  2.3620
 6937TIP3   OH242225   5.718   4.438  14.253  0.0199 -0.4172 -0.0669
 6937TIP3    H142226   5.747   4.471  14.338 -1.8070 -0.4660  0.6318
 6937TIP3    H242227   5.750   4.502  14.190  0.3150  0.3050  0.7985
 6938TIP3   OH242228   4.475   5.677  13.410 -0.1514  0.1605  0.4140
 6938TIP3    H142229   4.565   5.647  13.408 -0.7342 -1.8701  1.4772
 6938TIP3    H242230   4.455   5.689  13.503 -0.7152  1.5452  0.1478
 6939TIP3   OH242231   0.820   5.224  15.434 -0.0962  0.0290 -0.4564
 6939TIP3    H142232   0.881   5.273  15.380 -2.0107  3.3285  0.0763
 6939TIP3    H242233   0.755   5.189  15.373  0.4067 -0.4885 -0.6995
 6940TIP3   OH242234   2.220   0.586   3.887  0.5763  0.7143  0.9424
 6940TIP3    H142235   2.194   0.647   3.818  1.8785  1.0329  0.7010
 6940TIP3    H242236   2.161   0.512   3.878  0.4212  0.9706 -0.2172
 6941TIP3   OH242237   2.673   1.426  11.360  0.1238  0.4877  0.3402
 6941TIP3    H142238   2.731   1.359  11.396 -0.2358  0.1559  0.3147
 6941TIP3    H242239   2.592   1.417  11.412  1.0741  2.9455  2.5012
 6942TIP3   OH242240   5.060   3.366   3.912 -0.0405  0.1875 -0.3995
 6942TIP3    H142241   5.064   3.389   4.005  0.4510 -0.6387 -0.2007
 6942TIP3    H242242   5.000   3.291   3.909 -0.9081  0.8891 -0.9051
 6943TIP3   OH242243   5.502   6.461  15.906 -0.0849  0.3530  0.7015
 6943TIP3    H142244   5.440   6.534  15.914  0.7698  0.9754  1.9891
 6943TIP3    H242245   5.448   6.387  15.878 -1.4750  0.8019  2.0662
 6944TIP3   OH242246   0.363   4.847   2.272  0.1096 -0.0605 -0.2583
 6944TIP3    H142247   0.343   4.798   2.352 -1.6395  0.4499 -0.3453
 6944TIP3    H242248   0.449   4.886   2.288  0.2486 -0.8255  0.9430
 6945TIP3   OH242249   2.551   2.063   0.211 -0.3465  0.2125  0.4127
 6945TIP3    H142250   2.577   2.064   0.304 -1.9574  1.3802  0.8866
 6945TIP3    H242251   2.544   2.155   0.187 -1.0092 -0.0809 -0.5627
 6946TIP3   OH242252   3.869   2.243   5.635  0.0150  0.2667  0.2672
 6946TIP3    H142253   3.926   2.254   5.559 -0.9745  2.8381 -0.2096
 6946TIP3    H242254   3.926   2.257   5.710  0.4795  0.5092 -0.1259
 6947TIP3   OH242255   1.624   5.609   1.795  0.3474 -0.3143  0.2007
 6947TIP3    H142256   1.622   5.705   1.802  1.0735 -0.1806 -1.1248
 6947TIP3    H242257   1.653   5.580   1.882 -1.1852  0.5663  1.0537
 6948TIP3   OH242258   5.285   0.985   5.903 -0.4132  0.7112 -0.1136
 6948TIP3    H142259   5.257   1.075   5.889 -0.0018  0.9589  0.6377
 6948TIP3    H242260   5.206   0.939   5.933 -0.0692  1.4116  2.0242
 6949TIP3   OH242261   2.883   5.045  17.252  0.0994 -0.7332  0.2837
 6949TIP3    H142262   2.915   4.986  17.184 -0.4707 -0.3158 -0.3603
 6949TIP3    H242263   2.822   5.103  17.206  2.0332  1.6061  0.4368
 6950TIP3   OH242264   5.684   0.212   6.026 -0.1879 -0.0754 -0.8593
 6950TIP3    H142265   5.670   0.228   6.119 -0.6590  0.5578 -1.0326
 6950TIP3    H242266   5.762   0.157   6.023 -0.3076 -0.3038 -0.0802
 6951TIP3   OH242267   2.102   0.548  16.923  0.1033 -0.3001  0.6102
 6951TIP3    H142268   2.171   0.487  16.951 -0.1731 -1.2127 -0.5682
 6951TIP3    H242269   2.035   0.542  16.991  1.1845  0.6460  1.8068
 6952TIP3   OH242270   3.400   5.883  14.701 -0.4925  0.5441  0.4209
 6952TIP3    H142271   3.339   5.951  14.728 -0.6876  1.5143 -2.2360
 6952TIP3    H242272   3.481   5.930  14.678 -0.2264 -0.2293 -0.2835
 6953TIP3   OH242273   6.406   3.564   0.940 -0.0738 -0.2106 -0.0652
 6953TIP3    H142274   6.401   3.648   0.896  0.1292  0.0054  0.3182
 6953TIP3    H242275   6.418   3.500   0.870 -0.2435  0.0768 -0.3553
 6954TIP3   OH242276   4.706   2.566   3.903 -0.2735 -0.2671 -0.3798
 6954TIP3    H142277   4.691   2.564   3.997  1.2369  0.8452 -0.0670
 6954TIP3    H242278   4.777   2.629   3.892 -0.3769 -0.4261 -2.2648
 6955TIP3   OH242279   4.137   5.190   5.614 -0.2301  0.4140  0.2868
 6955TIP3    H142280   4.089   5.222   5.690  0.2162 -0.9395  1.1652
 6955TIP3    H242281   4.072   5.143   5.562 -0.1021 -0.5975  0.9978
 6956TIP3   OH242282   6.379   0.945  13.705  0.0188  0.3615 -0.2463
 6956TIP3    H142283   6.314   0.877  13.723 -2.3038  1.9492 -2.0866
 6956TIP3    H242284   6.393   0.987  13.790 -3.2781  1.5109 -0.1402
 6957TIP3   OH242285   3.823   1.309  16.937  0.2496  0.0705 -0.1973
 6957TIP3    H142286   3.837   1.393  16.981  1.3974 -0.4399  0.4562
 6957TIP3    H242287   3.758   1.328  16.869  1.9022  1.9295 -1.3663
 6958TIP3   OH242288   2.558   3.241  12.307  0.4686 -0.5265  0.2906
 6958TIP3    H142289   2.620   3.252  12.235  0.3082 -0.6709  0.1318
 6958TIP3    H242290   2.553   3.328  12.348  0.3081 -0.3657 -0.0710
 6959TIP3   OH242291   5.810   0.263   0.629  0.2678 -0.3663 -0.4029
 6959TIP3    H142292   5.833   0.214   0.707  1.4038 -0.0858 -0.5447
 6959TIP3    H242293   5.837   0.207   0.556 -0.3631 -0.4306 -0.5898
 6960TIP3   OH242294   1.151   3.104  15.121 -0.0905 -0.3141  0.7543
 6960TIP3    H142295   1.168   3.182  15.175 -2.2508  1.4200 -0.8984
 6960TIP3    H242296   1.211   3.114  15.046  0.3996 -0.8525  1.0654
 6961TIP3   OH242297   5.895   1.050  15.880 -0.5397  0.1793 -0.1343
 6961TIP3    H142298   5.831   1.008  15.937 -0.0279  1.0978  1.1755
 6961TIP3    H242299   5.967   0.987  15.874 -1.0592 -0.3683 -0.6550
 6962TIP3   OH242300   5.960   2.880   4.872 -0.1797 -0.4481 -0.4628
 6962TIP3    H142301   6.053   2.863   4.887 -0.3887 -0.8511  0.4348
 6962TIP3    H242302   5.951   2.882   4.777  1.0316  1.1514 -0.5893
 6963TIP3   OH242303   0.648   0.320   2.126  0.3943  0.6362  0.5170
 6963TIP3    H142304   0.661   0.295   2.035  0.2957  1.4609  0.2648
 6963TIP3    H242305   0.557   0.300   2.144  0.1544  1.3360  0.1368
 6964TIP3   OH242306   5.089   2.557   0.078 -0.0752  0.2595  0.5787
 6964TIP3    H142307   5.060   2.648   0.083  1.4093  0.7841  0.3365
 6964TIP3    H242308   5.045   2.521   0.001 -1.5354  0.4265  1.3123
 6965TIP3   OH242309   5.925   3.559   3.345  0.3952  0.4403 -0.2197
 6965TIP3    H142310   5.843   3.558   3.395  0.6463 -1.8773  0.2682
 6965TIP3    H242311   5.911   3.497   3.274  1.9237 -0.5612  0.2958
 6966TIP3   OH242312   4.407   3.761   4.542  0.0722  0.7449  0.2780
 6966TIP3    H142313   4.500   3.743   4.550 -0.2185 -0.9272  0.4337
 6966TIP3    H242314   4.369   3.676   4.519 -1.4489  1.3229  0.5464
 6967TIP3   OH242315   2.802   0.925  11.956  0.1092 -0.3875 -0.1877
 6967TIP3    H142316   2.826   1.017  11.952  0.0876 -0.4004 -0.7674
 6967TIP3    H242317   2.778   0.903  11.866 -0.4088 -0.8201  0.0483
 6968TIP3   OH242318   4.392   3.317   0.436  0.2637 -0.2127  0.7431
 6968TIP3    H142319   4.410   3.354   0.522  0.2668 -0.1654  0.7223
 6968TIP3    H242320   4.314   3.264   0.449 -1.6358  2.2420  0.1353
 6969TIP3   OH242321   1.280   2.257   0.460  0.5649 -0.2309 -0.1509
 6969TIP3    H142322   1.327   2.262   0.544 -0.0838 -1.5272  0.3153
 6969TIP3    H242323   1.262   2.164   0.448  3.4008 -0.5689 -3.3029
 6970TIP3   OH242324   5.123   6.483  12.904  0.3462  0.0961  0.5863
 6970TIP3    H142325   5.050   6.531  12.865  2.2899  2.4729 -0.3258
 6970TIP3    H242326   5.161   6.543  12.967  3.1388  0.0539 -0.9045
 6971TIP3   OH242327   4.783   1.215   1.610 -0.2391  0.3204 -0.0958
 6971TIP3    H142328   4.777   1.219   1.514 -0.6453 -0.2090 -0.0947
 6971TIP3    H242329   4.701   1.255   1.640  0.4149  1.5802  0.0533
 6972TIP3   OH242330   3.654   5.385  15.259 -0.1605 -0.1686 -0.0332
 6972TIP3    H142331   3.726   5.325  15.238 -0.2012 -0.5035  0.7529
 6972TIP3    H242332   3.692   5.448  15.320 -0.2375  0.3413 -0.5083
 6973TIP3   OH242333   0.955   2.914  12.176  0.2756  0.0627 -0.2982
 6973TIP3    H142334   1.013   2.851  12.132 -0.1653 -1.5683  1.3013
 6973TIP3    H242335   0.867   2.879  12.162  0.0387  0.1796  0.7802
 6974TIP3   OH242336   6.349   3.160  12.358  0.0379 -0.1323  0.4463
 6974TIP3    H142337   6.277   3.222  12.343 -0.6932 -0.9767  0.3520
 6974TIP3    H242338   6.307   3.074  12.352  1.0302 -0.6335  0.5957
 6975TIP3   OH242339   5.558   2.343   2.364  0.5457 -0.4680 -0.0136
 6975TIP3    H142340   5.626   2.277   2.357  0.6843 -0.2797 -0.4704
 6975TIP3    H242341   5.515   2.343   2.279  0.5330  0.0118 -0.0123
 6976TIP3   OH242342   3.136   4.107   0.820 -0.5254 -0.3311  0.0262
 6976TIP3    H142343   3.145   4.109   0.915  1.3051 -0.2593 -0.1203
 6976TIP3    H242344   3.197   4.174   0.789 -1.1372 -0.3234 -1.2043
 6977TIP3   OH242345   3.733   4.521   0.437  0.6386  0.2701  0.1558
 6977TIP3    H142346   3.769   4.435   0.459  0.4315  0.4376  1.2106
 6977TIP3    H242347   3.809   4.578   0.433  0.7345  0.1233 -0.1026
 6978TIP3   OH242348   4.459   4.732  13.115 -0.6649  0.3782  0.0895
 6978TIP3    H142349   4.458   4.638  13.135  0.3250 -0.1969 -2.2030
 6978TIP3    H242350   4.473   4.774  13.199 -1.0278 -1.5219  1.1707
 6979TIP3   OH242351   5.646   4.684  12.885  0.4093 -0.2234 -0.0031
 6979TIP3    H142352   5.661   4.749  12.954 -0.4298 -0.9345  0.8926
 6979TIP3    H242353   5.733   4.658  12.857  0.8589 -1.1365  2.0115
 6980TIP3   OH242354   0.240   2.200  17.211  0.3262 -0.3517  0.3008
 6980TIP3    H142355   0.220   2.270  17.273  0.4394  0.5062 -0.6148
 6980TIP3    H242356   0.305   2.146  17.256 -0.0430 -0.1035  1.1681
 6981TIP3   OH242357   5.006   0.418  14.363  0.7715 -0.3302  0.2023
 6981TIP3    H142358   5.008   0.339  14.308  0.9685  0.5231 -1.0482
 6981TIP3    H242359   4.915   0.448  14.358  0.6625 -0.5305  0.7967
 6982TIP3   OH242360   1.318   6.207  17.375  0.2949 -0.3271 -0.0072
 6982TIP3    H142361   1.237   6.227  17.421  1.8215  1.8878  1.9176
 6982TIP3    H242362   1.295   6.133  17.318 -3.3881  1.0384 -0.5879
 6983TIP3   OH242363   1.210   6.295  17.089  0.0647  0.4829  0.4101
 6983TIP3    H142364   1.244   6.290  17.178 -1.0831  0.9312  0.8967
 6983TIP3    H242365   1.183   6.206  17.068  1.5336  0.1088 -0.0090
 6984TIP3   OH242366   0.629   3.793   1.185 -0.5945  0.0259 -0.5048
 6984TIP3    H142367   0.675   3.840   1.255  2.9263 -0.0127 -2.5610
 6984TIP3    H242368   0.599   3.861   1.126 -1.6986 -0.0585 -0.0733
 6985TIP3   OH242369   2.115   1.240   0.939 -0.2303 -0.2419  0.4468
 6985TIP3    H142370   2.138   1.174   0.873 -0.5860  0.4677 -0.4118
 6985TIP3    H242371   2.043   1.200   0.988 -0.6365 -0.4004 -0.2540
 6986TIP3   OH242372   6.648   5.408  15.764  0.1131 -0.1714  0.0791
 6986TIP3    H142373   6.564   5.454  15.758 -0.0143 -0.5008 -0.7970
 6986TIP3    H242374   6.644   5.342  15.695  1.6383  0.7039 -0.9116
 6987TIP3   OH242375   1.854   4.849   1.130  0.1841  0.5854 -0.3077
 6987TIP3    H142376   1.777   4.875   1.079  0.8689  2.3830 -0.5171
 6987TIP3    H242377   1.859   4.754   1.120  0.1593  0.8149 -3.4669
 6988TIP3   OH242378   3.867   3.724  11.116 -0.3873  0.2075 -0.5912
 6988TIP3    H142379   3.866   3.810  11.074 -1.0010 -0.0593 -1.1413
 6988TIP3    H242380   3.915   3.668  11.055 -3.4411 -0.8115 -2.3025
 6989TIP3   OH242381   0.232   0.832  15.174 -0.0433 -0.3501  0.0005
 6989TIP3    H142382   0.289   0.778  15.118  1.0432  1.1770 -0.4173
 6989TIP3    H242383   0.211   0.908  15.121  2.2919  1.9445  2.1061
 6990TIP3   OH242384   2.813   3.150   3.866  0.2004 -0.3927  0.0172
 6990TIP3    H142385   2.842   3.153   3.957  2.1947  0.4857 -0.5929
 6990TIP3    H242386   2.838   3.063   3.835 -0.3581 -0.6424  0.2439
 6991TIP3   OH242387   0.892   5.280  13.181  0.3757  0.1212 -0.3999
 6991TIP3    H142388   0.836   5.330  13.242  0.5965 -0.4074  0.2513
 6991TIP3    H242389   0.831   5.225  13.133  0.2720 -0.0515 -0.0776
 6992TIP3   OH242390   5.339   4.770   4.144 -0.1087  0.0542  0.3738
 6992TIP3    H142391   5.313   4.839   4.205 -1.6481  0.1672 -0.3532
 6992TIP3    H242392   5.275   4.776   4.073  1.2189 -0.5224 -0.9228
 6993TIP3   OH242393   1.026   3.882  13.796 -0.3316  0.3620 -0.3936
 6993TIP3    H142394   1.010   3.942  13.723 -0.3707  1.5014  0.5272
 6993TIP3    H242395   0.967   3.809  13.780  0.1602  0.2540 -1.8715
 6994TIP3   OH242396   6.187   6.017   0.098  0.1430  0.1687  0.8667
 6994TIP3    H142397   6.146   6.103   0.111  0.6051  0.7881 -1.2861
 6994TIP3    H242398   6.278   6.029   0.126 -0.0047  0.1266  1.3697
 6995TIP3   OH242399   4.326   0.319   1.457  0.0593 -0.2928  1.1052
 6995TIP3    H142400   4.386   0.389   1.432 -1.1235  0.0023 -1.1759
 6995TIP3    H242401   4.303   0.339   1.548  1.6981  0.8028  1.3191
 6996TIP3   OH242402   6.713   4.510  17.073 -0.5273 -0.8306 -0.0106
 6996TIP3    H142403   6.680   4.526  16.984 -1.7231  1.6567  0.7954
 6996TIP3    H242404   6.808   4.520  17.064 -0.3953 -2.8150 -1.3759
 6997TIP3   OH242405   3.060   5.723   3.043  0.5696 -0.5842 -0.0521
 6997TIP3    H142406   3.123   5.713   2.972  1.3080 -2.4580  0.7873
 6997TIP3    H242407   3.107   5.693   3.121 -0.2757  1.1982  1.2094
 6998TIP3   OH242408   0.150   1.913   1.648  0.0884  0.2614 -0.2660
 6998TIP3    H142409   0.105   1.829   1.651 -0.8631  0.7195  3.4962
 6998TIP3    H242410   0.084   1.975   1.616 -0.9577  0.3578  1.9424
 6999TIP3   OH242411   4.235   4.505  15.288 -0.0262 -0.4181 -0.5225
 6999TIP3    H142412   4.309   4.559  15.260  0.3507 -0.8324 -0.3507
 6999TIP3    H242413   4.158   4.559  15.271  0.4162  0.7754  1.0658
 7000TIP3   OH242414   3.478   4.297  14.434  0.7593  0.1291  0.6445
 7000TIP3    H142415   3.504   4.389  14.435  0.6341  0.1611  2.0543
 7000TIP3    H242416   3.524   4.257  14.508 -0.7792 -0.4723  1.3210
 7001TIP3   OH242417   2.275   6.205  13.430  0.1078 -0.9693 -0.4447
 7001TIP3    H142418   2.368   6.183  13.424  0.3310 -0.2255  0.1709
 7001TIP3    H242419   2.234   6.126  13.467  0.9153 -0.3609  1.8847
 7002TIP3   OH242420   3.883   6.307   1.364 -0.6011  0.4748  0.3908
 7002TIP3    H142421   3.791   6.307   1.390 -1.1651  3.3122 -1.1336
 7002TIP3    H242422   3.882   6.278   1.272  0.3122 -1.2348  0.8724
 7003TIP3   OH242423   3.771   4.094   3.463 -0.3060  0.0932  0.3110
 7003TIP3    H142424   3.839   4.162   3.466 -0.1205 -0.0967  0.4305
 7003TIP3    H242425   3.751   4.085   3.370  2.5345 -2.4977 -0.1785
 7004TIP3   OH242426   1.970   3.711   4.726  0.0810  0.3174 -0.0588
 7004TIP3    H142427   1.919   3.701   4.646 -0.1888 -0.4068  0.1951
 7004TIP3    H242428   2.038   3.644   4.719  0.7017  0.9513 -0.1661
 7005TIP3   OH242429   0.884   2.524   5.917 -0.5545  0.6631 -0.3295
 7005TIP3    H142430   0.790   2.543   5.925 -0.3664  1.2662  0.5663
 7005TIP3    H242431   0.926   2.587   5.974  0.3557 -0.0555 -0.1838
 7006TIP3   OH242432   1.130   4.828   6.046  0.3213  0.7073  0.2228
 7006TIP3    H142433   1.152   4.825   6.139 -0.4235 -1.6233  0.3873
 7006TIP3    H242434   1.037   4.804   6.043 -0.0579  2.1649 -1.0562
 7007TIP3   OH242435   5.184   4.412   4.424 -0.1433 -0.0307 -0.0069
 7007TIP3    H142436   5.157   4.495   4.383 -1.0100  0.8792  2.2567
 7007TIP3    H242437   5.237   4.438   4.498  1.4724 -1.6376 -0.5299
 7008TIP3   OH242438   6.044   3.383   4.173  0.4930 -0.2611 -0.3505
 7008TIP3    H142439   6.059   3.305   4.227  2.5524  0.5080  0.3048
 7008TIP3    H242440   6.022   3.452   4.236 -1.3768 -0.2815 -0.9322
 7009TIP3   OH242441   4.960   6.589  14.774 -0.5061 -0.3635  0.7354
 7009TIP3    H142442   4.961   6.532  14.697 -1.8015  0.8756 -0.2452
 7009TIP3    H242443   5.045   6.573  14.816  0.6042 -0.4603 -1.3939
 7010TIP3   OH242444   3.044   6.384  11.487 -0.5087 -0.3393 -0.0088
 7010TIP3    H142445   2.965   6.361  11.439 -0.1161  1.2468 -1.5016
 7010TIP3    H242446   3.018   6.457  11.543 -0.1305  0.1596 -0.4743
 7011TIP3   OH242447   5.793   0.826   5.720 -0.3237  0.0977 -0.3445
 7011TIP3    H142448   5.790   0.811   5.626  0.4477 -0.8737 -0.2267
 7011TIP3    H242449   5.810   0.919   5.730 -2.0351  0.5348 -1.1404
 7012TIP3   OH242450   4.310   6.433   6.815  0.1126 -0.0935 -0.1297
 7012TIP3    H142451   4.296   6.522   6.782 -0.9932  0.3097  1.3526
 7012TIP3    H242452   4.380   6.443   6.880  0.1174 -0.3540 -0.0947
 7013TIP3   OH242453   0.031   0.074   2.226  0.8457  0.3598 -0.3531
 7013TIP3    H142454   0.045   0.029   2.142 -0.0877  1.8399 -1.3534
 7013TIP3    H242455  -0.028   0.016   2.274  3.1924 -1.6491  0.3214
 7014TIP3   OH242456   3.429   4.543  15.907  0.5244  0.3048 -0.2432
 7014TIP3    H142457   3.336   4.525  15.920  0.7626 -0.6138  0.3311
 7014TIP3    H242458   3.441   4.632  15.941 -0.2758  0.7211 -1.0175
 7015TIP3   OH242459   3.626   6.359   3.833  0.0767  0.1801  0.3663
 7015TIP3    H142460   3.614   6.297   3.905  1.6602  0.8039  1.2270
 7015TIP3    H242461   3.716   6.344   3.804  0.0482  1.1723 -0.2918
 7016TIP3   OH242462   4.924   3.317  11.480 -0.4193  0.3957  0.3880
 7016TIP3    H142463   4.992   3.318  11.547 -0.2225  2.3936  0.2128
 7016TIP3    H242464   4.845   3.289  11.527  0.0006  0.4640  1.1542
 7017TIP3   OH242465   2.736   6.471   1.567 -0.2240 -0.7064  0.3069
 7017TIP3    H142466   2.788   6.550   1.550 -0.9781 -0.5710 -1.6065
 7017TIP3    H242467   2.760   6.446   1.657  0.9422  0.9852  0.5277
 7018TIP3   OH242468   3.042   5.835   5.674 -0.1782 -0.0524  0.8412
 7018TIP3    H142469   3.070   5.835   5.582  0.8774 -1.9930  1.0981
 7018TIP3    H242470   2.947   5.835   5.670 -0.1477  0.8741 -0.2245
 7019TIP3   OH242471   2.080   6.081   0.850  0.2828  0.2062  0.1006
 7019TIP3    H142472   2.155   6.124   0.891  0.6642  0.9704 -1.3371
 7019TIP3    H242473   2.102   6.079   0.757  0.8476 -4.1547  0.0881
 7020TIP3   OH242474   2.575   2.758  12.666  0.4960  0.2903  0.1992
 7020TIP3    H142475   2.647   2.782  12.609 -0.4330  0.5111 -0.9110
 7020TIP3    H242476   2.563   2.664  12.652 -0.6179  0.5968 -1.0382
 7021TIP3   OH242477   0.723   3.904   6.048  0.1185 -0.2252 -0.4258
 7021TIP3    H142478   0.695   3.971   5.986  0.0277 -1.0669 -1.3000
 7021TIP3    H242479   0.819   3.902   6.039 -0.0060 -1.4197 -1.6737
 7022TIP3   OH242480   4.766   3.898   1.408  0.1928 -0.1222  0.0388
 7022TIP3    H142481   4.763   3.960   1.336 -0.3313 -0.6558 -0.4159
 7022TIP3    H242482   4.803   3.818   1.370  1.5246  0.1038  0.7797
 7023TIP3   OH242483   1.039   5.047   5.611  0.0332 -0.1031  0.2372
 7023TIP3    H142484   1.050   5.010   5.524 -1.7434  0.8370 -0.4303
 7023TIP3    H242485   1.062   4.976   5.671  0.6270 -0.9628 -0.9827
 7024TIP3   OH242486   3.667   4.815   0.473  0.5438 -0.8777  0.6544
 7024TIP3    H142487   3.694   4.735   0.517  2.2569  0.5877  2.4792
 7024TIP3    H242488   3.579   4.833   0.506  0.2406 -1.8479  0.4012
 7025TIP3   OH242489   5.620   5.925   2.125  0.3500 -0.0347  0.0349
 7025TIP3    H142490   5.535   5.957   2.157  0.6156 -0.0685  0.7998
 7025TIP3    H242491   5.610   5.830   2.120  0.4892 -0.0866  0.6076
 7026TIP3   OH242492   0.147   5.694   0.610 -0.8854  0.0666  0.2021
 7026TIP3    H142493   0.204   5.617   0.603 -0.5392  0.1118  2.0793
 7026TIP3    H242494   0.184   5.756   0.546 -1.3632 -1.3731 -1.5731
 7027TIP3   OH242495   4.611   0.409   0.816  0.2096  0.3174 -0.0727
 7027TIP3    H142496   4.530   0.442   0.856  2.2669  1.9448  3.1531
 7027TIP3    H242497   4.646   0.348   0.881  1.0430 -1.3050 -1.9609
 7028TIP3   OH242498   0.007   3.883   4.097 -0.3720 -0.7656 -0.0663
 7028TIP3    H142499   0.073   3.906   4.031 -1.7560 -1.1902 -1.6670
 7028TIP3    H242500   0.050   3.902   4.181  1.1411  0.6501 -1.0852
 7029TIP3   OH242501   0.785   5.870   4.259  0.0148 -0.2851  0.8667
 7029TIP3    H142502   0.844   5.810   4.214 -1.2070 -2.2474  1.7416
 7029TIP3    H242503   0.840   5.915   4.324  0.7683 -1.2088  0.8795
 7030TIP3   OH242504   5.276   1.881   2.774 -0.0316  0.1030  0.0627
 7030TIP3    H142505   5.358   1.836   2.792  0.0977  0.7979  1.3854
 7030TIP3    H242506   5.262   1.937   2.851 -1.3236  0.6119 -0.5041
 7031TIP3   OH242507   3.945   5.191   5.807  0.0395 -0.3266 -0.0938
 7031TIP3    H142508   3.860   5.147   5.803  0.9769 -2.4240  1.1845
 7031TIP3    H242509   3.947   5.233   5.893  0.3446 -0.4115 -0.0557
 7032TIP3   OH242510   5.373   5.484   4.524  0.3890  0.1649  0.3738
 7032TIP3    H142511   5.318   5.468   4.447  0.7635  0.4773  0.0362
 7032TIP3    H242512   5.379   5.579   4.529  1.7115  0.1441 -0.1925
 7033TIP3   OH242513   2.853   4.778  11.566  0.2624  0.0196  0.6810
 7033TIP3    H142514   2.945   4.783  11.542  0.4505  0.1589  1.3898
 7033TIP3    H242515   2.832   4.866  11.598 -1.0578  1.0777 -2.6168
 7034TIP3   OH242516   5.885   6.168  13.070  0.3466  0.4019 -0.1115
 7034TIP3    H142517   5.828   6.190  12.996 -1.2171 -0.4847  0.7751
 7034TIP3    H242518   5.882   6.245  13.127 -0.7788  0.0064  0.3923
 7035TIP3   OH242519   4.716   3.049  15.920 -0.2031 -0.0167 -0.3047
 7035TIP3    H142520   4.800   3.020  15.886 -0.6074 -0.7841 -0.6788
 7035TIP3    H242521   4.657   2.975  15.906 -0.4407 -0.3358  1.8852
 7036TIP3   OH242522   6.472   6.392   1.074 -0.1594  0.6598 -0.2094
 7036TIP3    H142523   6.485   6.298   1.085  0.5751  0.7092 -0.5711
 7036TIP3    H242524   6.435   6.421   1.157 -2.2147 -0.2438 -0.7460
 7037TIP3   OH242525   5.273   4.270   6.054 -0.0818 -0.2281 -0.4955
 7037TIP3    H142526   5.356   4.280   6.009 -0.9930 -0.2759 -2.2629
 7037TIP3    H242527   5.267   4.176   6.072  0.5657 -0.1253  0.3434
 7038TIP3   OH242528   1.213   6.017   0.250  0.1167  0.1438  0.2833
 7038TIP3    H142529   1.204   5.943   0.190  3.3834  0.1430 -0.3415
 7038TIP3    H242530   1.128   6.021   0.295 -1.0081 -2.4127 -1.3752
 7039TIP3   OH242531   2.445   5.625  15.461  0.5816  0.0853  0.0232
 7039TIP3    H142532   2.396   5.676  15.525  0.7122 -2.0263  1.9597
 7039TIP3    H242533   2.484   5.689  15.403 -2.3283  1.9748 -0.0211
 7040TIP3   OH242534   0.336   3.318   4.627 -0.3469  0.0218  0.0302
 7040TIP3    H142535   0.354   3.319   4.533 -2.2567  1.3315 -0.3699
 7040TIP3    H242536   0.417   3.349   4.667 -0.1689  1.5050 -1.3591
 7041TIP3   OH242537   6.375   6.407   3.072 -0.3922  0.2428 -0.2121
 7041TIP3    H142538   6.444   6.458   3.116 -1.8357  1.2450  0.9918
 7041TIP3    H242539   6.293   6.444   3.106 -1.6067  0.4780 -3.1527
 7042TIP3   OH242540   2.306   0.952  16.650  0.0336 -0.8087  0.3936
 7042TIP3    H142541   2.315   0.946  16.554 -0.9616 -0.1375  0.2440
 7042TIP3    H242542   2.239   0.886  16.671 -0.2144 -0.5125  0.5385
 7043TIP3   OH242543   3.639   4.553  11.684  0.0022  0.4662  0.2065
 7043TIP3    H142544   3.578   4.503  11.629 -0.0072  0.8001 -0.0891
 7043TIP3    H242545   3.668   4.490  11.750 -0.7995  0.3490  0.4611
 7044TIP3   OH242546   4.810   1.215   2.810 -0.1070  0.0850 -0.3594
 7044TIP3    H142547   4.859   1.282   2.857 -0.1606  1.6941 -2.4467
 7044TIP3    H242548   4.719   1.226   2.839  0.1353 -0.1775  0.5039
 7045TIP3   OH242549   6.407   0.173   2.651 -0.2434 -0.0579  0.2973
 7045TIP3    H142550   6.495   0.209   2.662  0.5344  0.9871 -5.6908
 7045TIP3    H242551   6.350   0.232   2.699  2.0587  0.6528  2.3503
 7046TIP3   OH242552   3.161   4.767   5.642 -0.3106  0.0411  0.6002
 7046TIP3    H142553   3.123   4.805   5.721 -2.5515 -1.1785  0.1745
 7046TIP3    H242554   3.228   4.707   5.674 -1.8819 -1.2002  1.6619
 7047TIP3   OH242555   5.770   0.686   3.398 -0.1731  0.7547  0.0576
 7047TIP3    H142556   5.857   0.712   3.427  0.4518  0.6531 -1.6059
 7047TIP3    H242557   5.775   0.688   3.302 -1.2976 -1.5721 -0.1131
 7048TIP3   OH242558   2.441   2.293   4.748  0.7835  0.3978 -0.2381
 7048TIP3    H142559   2.381   2.239   4.697  1.0726  0.3871 -0.5771
 7048TIP3    H242560   2.396   2.309   4.830  0.2551  0.5183 -0.5481
 7049TIP3   OH242561   2.317   3.632   2.873  0.6663  0.1874 -0.0962
 7049TIP3    H142562   2.315   3.681   2.955 -0.7230 -0.9598  0.6175
 7049TIP3    H242563   2.385   3.565   2.887 -1.2668 -1.6413  1.2098
 7050TIP3   OH242564   5.690   2.860   0.282  0.3078  0.0399 -0.2942
 7050TIP3    H142565   5.771   2.834   0.326 -0.2440  0.5851  1.0991
 7050TIP3    H242566   5.719   2.904   0.202  1.3026 -2.0980 -1.1720
 7051TIP3   OH242567   2.810   2.104   6.525 -0.4958  0.8113 -0.3628
 7051TIP3    H142568   2.744   2.136   6.587 -0.8892  0.9874 -0.8674
 7051TIP3    H242569   2.883   2.075   6.580 -0.0269  2.7677  0.1287
 7052TIP3   OH242570   0.080   1.690   4.416  0.0212  0.3679  0.8576
 7052TIP3    H142571   0.113   1.752   4.482 -0.4376  0.4622  0.9995
 7052TIP3    H242572  -0.007   1.666   4.447  0.9164 -1.8990  1.8812
 7053TIP3   OH242573   4.777   0.061   7.037  0.3954  0.6219 -0.3276
 7053TIP3    H142574   4.705   0.105   6.993 -0.2526  0.3758  0.4786
 7053TIP3    H242575   4.820   0.129   7.088 -1.6343  0.0706  2.2811
 7054TIP3   OH242576   2.783   6.214  17.081  0.3020  0.3915 -0.2866
 7054TIP3    H142577   2.775   6.304  17.112  0.0851  0.2266  0.1525
 7054TIP3    H242578   2.816   6.222  16.992 -0.8527  0.9563 -0.6906
 7055TIP3   OH242579   2.904   6.377  16.863  0.1012 -0.3565 -0.5340
 7055TIP3    H142580   2.840   6.425  16.810 -0.0154  0.3360  0.2083
 7055TIP3    H242581   2.985   6.383  16.813  0.3430  1.5439  0.0212
 7056TIP3   OH242582   2.475   4.040   2.757 -0.3848  0.1920  0.0545
 7056TIP3    H142583   2.541   4.109   2.759  1.2714 -1.3050 -0.9703
 7056TIP3    H242584   2.428   4.054   2.674 -1.8729  1.6361  1.0674
 7057TIP3   OH242585   0.001   5.995  16.687  0.0612 -0.0242  0.0796
 7057TIP3    H142586  -0.086   6.021  16.659  0.5224 -0.2256 -1.6118
 7057TIP3    H242587   0.046   5.967  16.607  1.3228 -0.9693  1.0666
 7058TIP3   OH242588   4.310   3.835  11.949 -0.3406  0.0257  0.0212
 7058TIP3    H142589   4.335   3.857  11.859 -0.0642 -1.0562 -0.1827
 7058TIP3    H242590   4.363   3.893  12.003  0.6436 -0.3673 -0.4881
 7059TIP3   OH242591   3.879   6.019  17.133  0.7240 -0.4173  0.7302
 7059TIP3    H142592   3.876   5.941  17.077 -0.1001  1.0187 -1.3283
 7059TIP3    H242593   3.966   6.056  17.119  1.1435 -0.9414  1.7667
 7060TIP3   OH242594   3.238   5.421  14.173  0.4830 -0.3061  0.2424
 7060TIP3    H142595   3.265   5.424  14.265  0.4640 -1.7150  0.3224
 7060TIP3    H242596   3.150   5.460  14.172  1.2118  1.4043  0.4948
 7061TIP3   OH242597   5.654   6.091  11.504  0.0894 -0.4635 -0.5158
 7061TIP3    H142598   5.598   6.014  11.503  0.2071 -0.5511 -0.4296
 7061TIP3    H242599   5.716   6.076  11.432  0.1974 -0.5148 -0.4133
 7062TIP3   OH242600   3.800   1.202  17.240  1.1470  0.2096 -0.2593
 7062TIP3    H142601   3.778   1.232  17.152  1.7880 -2.3869 -1.4123
 7062TIP3    H242602   3.733   1.137  17.260  0.5555  1.3212  1.5484
 7063TIP3   OH242603   6.656   3.797  16.987 -0.5386  0.1319 -0.3522
 7063TIP3    H142604   6.568   3.800  17.023  0.0113 -2.0231  1.3776
 7063TIP3    H242605   6.676   3.888  16.964 -1.9167  1.2457  2.4579
 7064TIP3   OH242606   2.383   5.153  11.619 -0.2445 -0.3454  0.2607
 7064TIP3    H142607   2.429   5.069  11.611  1.8044  0.7423  0.1763
 7064TIP3    H242608   2.404   5.200  11.538  0.9556  1.3403  1.5063
 7065TIP3   OH242609   2.367   2.259  16.062 -0.6403 -0.5590 -0.2453
 7065TIP3    H142610   2.297   2.240  16.000 -1.3655  0.2008  0.3119
 7065TIP3    H242611   2.356   2.351  16.083 -0.1820 -0.7061  0.7206
 7066TIP3   OH242612   3.806   4.642   2.969  0.0398  0.2396  0.1305
 7066TIP3    H142613   3.901   4.656   2.959 -0.0897  0.4105 -1.0428
 7066TIP3    H242614   3.782   4.694   3.046  0.7935  0.7168  0.0565
 7067TIP3   OH242615   1.866   1.338   3.600  0.1983 -0.0159  0.2266
 7067TIP3    H142616   1.953   1.298   3.609 -0.0155 -0.3126  1.1134
 7067TIP3    H242617   1.806   1.272   3.633 -0.3930  0.1096 -0.5798
 7068TIP3   OH242618   2.617   1.004   3.182 -0.2895  0.1595 -0.6281
 7068TIP3    H142619   2.704   0.969   3.203 -0.2883 -0.2826 -1.3524
 7068TIP3    H242620   2.572   0.931   3.140 -1.0656  0.3446 -0.1233
 7069TIP3   OH242621   3.956   5.915   3.420 -0.5746  0.2987  0.4529
 7069TIP3    H142622   3.984   5.823   3.414  1.1384  0.8484 -1.2439
 7069TIP3    H242623   3.993   5.945   3.503  0.9380  0.0433 -0.0868
 7070TIP3   OH242624   3.451   5.015   4.886  0.0863  0.1877  0.1699
 7070TIP3    H142625   3.437   4.969   4.969  1.1702  2.1882  1.5659
 7070TIP3    H242626   3.544   5.038   4.888 -0.3425  2.1818 -0.5313
 7071TIP3   OH242627   3.430   5.861   5.001 -0.0940 -0.1745 -0.3338
 7071TIP3    H142628   3.437   5.777   4.956 -0.1518  0.0672 -0.8002
 7071TIP3    H242629   3.373   5.913   4.945  1.2808  0.7510 -0.9278
 7072TIP3   OH242630   2.987   2.922   3.443  0.0045  0.3751  0.4236
 7072TIP3    H142631   2.905   2.945   3.485  0.0620 -1.0987  1.4185
 7072TIP3    H242632   3.021   3.004   3.408 -2.9306  0.7234 -2.0034
 7073TIP3   OH242633   1.302   4.456  16.902  0.6875  0.3178 -0.1834
 7073TIP3    H142634   1.217   4.497  16.914  0.3663 -0.6746  1.1998
 7073TIP3    H242635   1.300   4.379  16.959  2.7297  0.5941  0.3492
 7074TIP3   OH242636   2.219   1.103   3.231 -0.6725  0.0615 -0.0182
 7074TIP3    H142637   2.130   1.126   3.201 -0.8909 -0.3346  0.3128
 7074TIP3    H242638   2.275   1.128   3.158 -1.1468 -0.4137 -0.5651
 7075TIP3   OH242639   3.706   3.448   5.732  0.5156  0.1274 -0.0431
 7075TIP3    H142640   3.721   3.458   5.638 -0.4668  0.8821 -0.1297
 7075TIP3    H242641   3.724   3.355   5.749  0.5736 -0.0441 -0.9960
 7076TIP3   OH242642   6.532   6.522   3.290  0.1665  0.0767  0.3348
 7076TIP3    H142643   6.577   6.602   3.317  0.5095 -0.4467  1.3514
 7076TIP3    H242644   6.448   6.525   3.336 -1.2512  1.4013 -2.0954
 7077TIP3   OH242645   3.355   3.228  15.499 -0.1539  0.1190 -0.3865
 7077TIP3    H142646   3.308   3.191  15.424 -0.1746  0.6979 -0.6623
 7077TIP3    H242647   3.371   3.319  15.475  0.8343  0.0145 -0.1644
 7078TIP3   OH242648   0.814   0.331  16.471  0.1601 -0.1873 -0.4299
 7078TIP3    H142649   0.893   0.301  16.425 -0.7669 -0.4941 -1.8937
 7078TIP3    H242650   0.826   0.425  16.480  0.7048 -0.2298 -0.6532
 7079TIP3   OH242651   3.159   4.964  15.803  0.0025 -0.0140  0.7216
 7079TIP3    H142652   3.190   4.967  15.712 -0.6559 -0.1470  0.4896
 7079TIP3    H242653   3.205   5.036  15.846 -0.4632  0.7061  0.0389
 7080TIP3   OH242654   3.471   3.133  13.817 -0.2981 -0.2351 -0.0278
 7080TIP3    H142655   3.433   3.062  13.765  0.6929 -0.8545  0.0601
 7080TIP3    H242656   3.563   3.108  13.828  0.4932  1.8062 -1.3188
 7081TIP3   OH242657   6.105   0.202   0.804 -0.0785 -0.8738 -0.0784
 7081TIP3    H142658   6.012   0.184   0.815 -0.6253  0.3071 -2.1124
 7081TIP3    H242659   6.141   0.122   0.765 -0.0677 -1.5756  1.3241
 7082TIP3   OH242660   1.364   0.839   3.789 -0.1183  0.5181  0.0704
 7082TIP3    H142661   1.332   0.761   3.744 -0.6663  1.6801 -1.6335
 7082TIP3    H242662   1.414   0.887   3.723  0.8700  1.2605  1.2943
 7083TIP3   OH242663   4.259   1.995   5.605 -0.2290 -0.1091 -0.0478
 7083TIP3    H142664   4.222   1.991   5.694  0.5971  0.1858  0.3110
 7083TIP3    H242665   4.294   1.907   5.591  1.4609  0.4099  0.7201
 7084TIP3   OH242666   3.511   2.659  16.557  0.1461 -0.2550  0.1626
 7084TIP3    H142667   3.427   2.692  16.523 -0.4710 -1.8582  0.0405
 7084TIP3    H242668   3.495   2.647  16.651 -0.3873 -2.2564 -0.1435
 7085TIP3   OH242669   5.188   3.681   0.497  0.7552  0.0278  0.5990
 7085TIP3    H142670   5.181   3.644   0.585  1.5660 -1.0850  0.2145
 7085TIP3    H242671   5.226   3.611   0.444 -0.2737  0.4630 -0.7780
 7086TIP3   OH242672   2.092   0.528   4.354  0.3155  0.4757 -0.6686
 7086TIP3    H142673   2.180   0.491   4.350  0.3400  0.4191  0.2961
 7086TIP3    H242674   2.036   0.457   4.386 -0.0480  0.5709 -1.0754
 7087TIP3   OH242675   4.283   5.539  16.045 -0.3111  0.0115  0.5858
 7087TIP3    H142676   4.200   5.528  15.998  1.0172 -0.7337 -1.7691
 7087TIP3    H242677   4.281   5.471  16.112 -0.1472 -2.5165 -1.7898
 7088TIP3   OH242678   3.117   4.882   0.583  0.0059  0.3341 -0.2368
 7088TIP3    H142679   3.157   4.951   0.636 -0.5486 -0.5111  1.3574
 7088TIP3    H242680   3.030   4.869   0.622  0.7635 -2.5387  0.8171
 7089TIP3   OH242681   3.172   0.052   3.150 -0.0353  0.5941 -0.0406
 7089TIP3    H142682   3.135  -0.035   3.136  1.0600  0.1472 -0.2599
 7089TIP3    H242683   3.261   0.036   3.182 -0.3202  1.6330  1.3976
 7090TIP3   OH242684   0.018   4.450  13.231  0.1038  0.1693 -0.4243
 7090TIP3    H142685  -0.073   4.481  13.237  0.6208  1.8973 -0.7963
 7090TIP3    H242686   0.065   4.505  13.294  1.0042 -0.2181 -0.7542
 7091TIP3   OH242687   0.919   2.740  11.686  0.8541  0.2709  0.0110
 7091TIP3    H142688   0.948   2.654  11.657  0.1144 -0.2275  0.7367
 7091TIP3    H242689   0.845   2.723  11.743  1.4999  1.3062  1.2153
 7092TIP3   OH242690   1.360   4.269   4.450 -0.3817 -0.5352  0.2478
 7092TIP3    H142691   1.373   4.359   4.480 -2.1572 -1.2795  3.8040
 7092TIP3    H242692   1.289   4.276   4.386 -1.3692  0.5525  1.3830
 7093TIP3   OH242693   2.813   0.476   0.900  0.0212 -0.3605 -0.4645
 7093TIP3    H142694   2.722   0.485   0.926 -0.4449 -0.9432 -1.8180
 7093TIP3    H242695   2.846   0.401   0.950 -0.3162 -0.3249 -0.1902
 7094TIP3   OH242696   0.052   6.649  14.699 -0.3819  0.4243 -0.3558
 7094TIP3    H142697   0.079   6.738  14.677 -0.3302  0.8159  1.1795
 7094TIP3    H242698   0.134   6.599  14.701 -0.4029  0.3540 -1.1474
 7095TIP3   OH242699   1.669   3.469   4.288 -0.0227 -0.1606 -0.3353
 7095TIP3    H142700   1.606   3.522   4.338 -0.7816 -0.4965 -0.9120
 7095TIP3    H242701   1.615   3.423   4.223  0.8922 -0.0638 -1.1836
 7096TIP3   OH242702   6.008   0.783   3.537 -0.4245 -0.7406 -0.0422
 7096TIP3    H142703   6.010   0.868   3.580 -0.2091 -0.5897 -0.3430
 7096TIP3    H242704   6.023   0.720   3.607 -0.5633 -0.5271  0.1780
 7097TIP3   OH242705   3.574   0.867  16.510 -0.2590 -0.0626 -0.1488
 7097TIP3    H142706   3.624   0.790  16.538 -1.9611 -1.0120  0.4252
 7097TIP3    H242707   3.486   0.853  16.546 -0.4372  2.5409  0.6705
 7098TIP3   OH242708   2.427   3.617  13.138  0.1314 -0.3151  0.1539
 7098TIP3    H142709   2.498   3.605  13.201  0.9407  0.1190 -0.6383
 7098TIP3    H242710   2.422   3.534  13.091  1.0130  0.0538 -0.6461
 7099TIP3   OH242711   2.956   0.459  11.803  0.3363  0.1171 -0.0883
 7099TIP3    H142712   2.981   0.464  11.710 -1.3770  0.2921 -0.5779
 7099TIP3    H242713   2.862   0.439  11.801 -0.0718  1.6276  1.5988
 7100TIP3   OH242714   3.778   4.626  14.958  0.1838  1.2181  0.0213
 7100TIP3    H142715   3.695   4.663  14.987  1.0203  2.5680  0.8334
 7100TIP3    H242716   3.822   4.600  15.039  0.6397  0.7378 -0.3748
 7101TIP3   OH242717   3.750   1.891  16.423 -0.0116 -0.2508 -0.5542
 7101TIP3    H142718   3.772   1.798  16.426 -0.2694 -0.3241 -0.9024
 7101TIP3    H242719   3.803   1.926  16.351  1.7688  0.3280  0.9614
 7102TIP3   OH242720   6.372   2.009  13.541  0.1155 -0.7621 -0.9237
 7102TIP3    H142721   6.425   1.930  13.541 -0.0199 -0.8553 -0.4255
 7102TIP3    H242722   6.285   1.981  13.571  0.3411 -0.2593  0.2592
 7103TIP3   OH242723   3.339   0.447  17.333 -0.0716 -0.4000 -0.1320
 7103TIP3    H142724   3.349   0.527  17.385 -0.0318 -0.4581 -0.0494
 7103TIP3    H242725   3.253   0.455  17.292  1.1983  1.2108 -2.7263
 7104TIP3   OH242726   5.172   3.046  11.087  0.3630  0.3915 -0.1387
 7104TIP3    H142727   5.213   2.969  11.127 -2.7699 -0.9120  0.9077
 7104TIP3    H242728   5.152   3.018  10.997 -0.4398  0.0599  0.1290
 7105TIP3   OH242729   0.749   3.811   2.978  0.5923  0.3083  0.4273
 7105TIP3    H142730   0.783   3.768   2.899  0.6655  1.1612 -0.0089
 7105TIP3    H242731   0.823   3.813   3.038  1.1282  1.4765 -0.2396
 7106TIP3   OH242732   5.163   3.605  13.153  0.1832  0.0966  0.1468
 7106TIP3    H142733   5.136   3.618  13.244  0.1037 -0.0266  0.1406
 7106TIP3    H242734   5.188   3.513  13.149  1.9517  0.5189  0.5032
 7107TIP3   OH242735   3.922   1.715  13.414  0.3885  0.6255  0.3778
 7107TIP3    H142736   3.867   1.707  13.492 -0.4236 -3.4940 -0.3888
 7107TIP3    H242737   3.860   1.707  13.341  1.5072  0.8612 -0.6236
 7108TIP3   OH242738   3.796   4.702  14.468 -0.2756  0.3591  0.2938
 7108TIP3    H142739   3.770   4.761  14.397  1.1369 -0.3177 -0.8581
 7108TIP3    H242740   3.853   4.755  14.523  0.9643  0.1413 -0.7217
 7109TIP3   OH242741   0.400   4.045   0.762 -0.1761  0.0802 -0.0184
 7109TIP3    H142742   0.322   3.991   0.753  0.9679 -2.0351  1.6197
 7109TIP3    H242743   0.432   4.057   0.673 -1.6294 -0.1378 -0.5942
 7110TIP3   OH242744   4.546   6.013  11.597  0.6229 -0.1799  0.2946
 7110TIP3    H142745   4.458   5.981  11.576  0.8497 -1.0023  0.5489
 7110TIP3    H242746   4.553   6.001  11.692  0.9404  0.0666  0.3045
 7111TIP3   OH242747   4.617   3.137  13.535 -0.0619 -0.5082  0.9824
 7111TIP3    H142748   4.545   3.151  13.473 -0.2489 -1.6315  0.9176
 7111TIP3    H242749   4.573   3.122  13.619  0.1764  0.6119  1.3200
 7112TIP3   OH242750   2.233   5.830   5.850  0.1864  0.0095 -0.1049
 7112TIP3    H142751   2.262   5.755   5.797  0.6753 -0.1092  0.3243
 7112TIP3    H242752   2.218   5.900   5.786  1.0307 -0.0501 -0.3832
 7113TIP3   OH242753   0.829   0.687   4.996 -0.0353 -0.4236  0.5620
 7113TIP3    H142754   0.832   0.666   4.903  0.3270  1.9814 -0.0415
 7113TIP3    H242755   0.736   0.694   5.016 -0.1675  2.1955 -0.5091
 7114TIP3   OH242756   0.819   6.665   3.467 -0.2477  0.0749 -0.6804
 7114TIP3    H142757   0.735   6.633   3.500  0.3405 -2.1037 -1.1988
 7114TIP3    H242758   0.830   6.624   3.382  0.8830  1.1544 -1.0934
 7115TIP3   OH242759   4.970   4.375  11.650  0.4786 -0.1588 -0.1902
 7115TIP3    H142760   4.991   4.310  11.584  0.1115 -1.6367  1.0906
 7115TIP3    H242761   4.880   4.401  11.630  0.9465  0.6908 -1.2700
 7116TIP3   OH242762   4.388   5.207   5.130 -0.1383 -0.7014 -0.0801
 7116TIP3    H142763   4.447   5.275   5.164 -3.2267  1.4150  1.4745
 7116TIP3    H242764   4.395   5.215   5.035  0.5995  0.8585  0.0722
 7117TIP3   OH242765   5.459   6.631  13.104  0.1867 -0.3330 -0.1722
 7117TIP3    H142766   5.400   6.595  13.170  0.5021 -0.8854 -0.1878
 7117TIP3    H242767   5.409   6.702  13.063 -0.0989 -0.1443  0.4894
 7118TIP3   OH242768   5.908   4.312   1.505  0.1995  0.4105 -0.0229
 7118TIP3    H142769   5.828   4.261   1.495  0.7029 -0.4581  0.2629
 7118TIP3    H242770   5.891   4.393   1.457  0.1664 -0.9005 -2.3733
 7119TIP3   OH242771   6.322   4.529  13.427  0.0633  0.0094  0.4008
 7119TIP3    H142772   6.343   4.570  13.343 -1.2783 -0.0622  0.0163
 7119TIP3    H242773   6.337   4.436  13.413 -0.6828 -0.0641  0.0666
 7120TIP3   OH242774   4.906   5.504   5.167  0.4855  0.0175  0.3789
 7120TIP3    H142775   4.835   5.474   5.224  1.0552  0.0565  1.1184
 7120TIP3    H242776   4.866   5.507   5.079 -0.2586 -0.5246  0.6852
 7121TIP3   OH242777   0.081   0.559   2.832 -0.2465 -0.7354  0.1482
 7121TIP3    H142778   0.138   0.489   2.863  0.1440  0.3977  2.1296
 7121TIP3    H242779   0.077   0.621   2.905 -1.8377  0.5434 -0.9626
 7122TIP3   OH242780   3.712   6.676   1.248 -0.0452  0.3463 -0.4665
 7122TIP3    H142781   3.717   6.624   1.328 -2.5062  0.5083 -0.1329
 7122TIP3    H242782   3.657   6.751   1.272  0.0306  0.9363 -2.0421
 7123TIP3   OH242783   2.973   1.858  16.806  0.3334  0.4130 -0.2074
 7123TIP3    H142784   3.030   1.891  16.875 -0.1711  2.4963 -0.7315
 7123TIP3    H242785   3.023   1.787  16.766  1.7489  0.9324  0.5713
 7124TIP3   OH242786   1.893   2.485   4.361  0.1624 -0.5808 -0.1567
 7124TIP3    H142787   1.885   2.395   4.392  1.0835 -1.0986 -1.3137
 7124TIP3    H242788   1.956   2.526   4.420  0.4277 -0.9651 -0.1721
 7125TIP3   OH242789   2.474   4.411  16.413 -0.3935  0.1999 -0.2781
 7125TIP3    H142790   2.442   4.343  16.472 -1.5802  1.0133  0.0572
 7125TIP3    H242791   2.497   4.364  16.332  0.8879 -0.8704  0.6610
 7126TIP3   OH242792   5.879   1.754  14.571 -0.5662 -0.0801  0.0604
 7126TIP3    H142793   5.936   1.778  14.645  0.4949  2.2801 -1.3866
 7126TIP3    H242794   5.795   1.794  14.592 -1.2216 -2.0343  1.3631
 7127TIP3   OH242795   5.714   5.627  11.395  0.0313  0.1189 -0.6859
 7127TIP3    H142796   5.725   5.721  11.383  0.5910  0.1210 -0.2179
 7127TIP3    H242797   5.642   5.603  11.337 -0.4725  0.9294 -0.4007
 7128TIP3   OH242798   1.039   2.410   4.499 -0.6533 -0.0013 -0.0706
 7128TIP3    H142799   1.102   2.375   4.562  0.7826 -0.4492 -1.6852
 7128TIP3    H242800   1.085   2.483   4.457 -1.6663  0.4332 -0.4444
 7129TIP3   OH242801   3.289   0.168   4.949  0.1191  0.6921 -1.0995
 7129TIP3    H142802   3.264   0.206   5.034  1.2505 -2.4966  0.8392
 7129TIP3    H242803   3.380   0.194   4.938  0.5418 -0.4189 -0.3544
 7130TIP3   OH242804   0.578   3.009  17.420  0.3644  0.5856 -0.5500
 7130TIP3    H142805   0.562   3.103  17.410  0.2459  0.5933 -0.3049
 7130TIP3    H242806   0.491   2.970  17.425  0.4101  0.3906 -1.2673
 7131TIP3   OH242807   3.166   0.803   0.548 -0.1352 -0.4122  0.0108
 7131TIP3    H142808   3.093   0.768   0.497 -1.0857 -1.4217  1.9313
 7131TIP3    H242809   3.242   0.752   0.519 -0.3417  0.0252 -1.3719
 7132TIP3   OH242810   5.087   5.854  11.624 -0.2262 -0.0112 -0.4787
 7132TIP3    H142811   5.009   5.811  11.659 -0.5217 -0.8003 -2.0319
 7132TIP3    H242812   5.054   5.917  11.560  0.3613  0.6417 -0.1680
 7133TIP3   OH242813   6.727   2.456   4.313  0.0186  0.0362 -0.2330
 7133TIP3    H142814   6.649   2.477   4.364  0.4912  0.2420  0.4280
 7133TIP3    H242815   6.720   2.363   4.294  0.4888 -0.3753  1.4119
 7134TIP3   OH242816   2.116   2.449  11.264  0.2209 -0.2541 -0.5408
 7134TIP3    H142817   2.112   2.389  11.189 -0.0221 -1.2405  0.2249
 7134TIP3    H242818   2.159   2.527  11.231 -0.2131 -0.5265 -1.8033
 7135TIP3   OH242819   0.835   2.127  13.413 -0.3565 -0.0287 -0.0780
 7135TIP3    H142820   0.823   2.071  13.489 -0.2244 -0.6041 -0.4747
 7135TIP3    H242821   0.910   2.182  13.435 -0.8109  0.3568  0.5232
 7136TIP3   OH242822   4.207   6.569  14.096  0.2080 -0.6551 -0.0692
 7136TIP3    H142823   4.215   6.574  14.001  0.1068  1.5984 -0.0058
 7136TIP3    H242824   4.297   6.569  14.128  0.2650 -2.0866 -0.1331
 7137TIP3   OH242825   3.141   5.019  11.922 -0.1680 -0.4610 -0.7804
 7137TIP3    H142826   3.059   5.067  11.924 -1.1771 -2.1341  0.5559
 7137TIP3    H242827   3.116   4.927  11.921  1.6917 -1.0220 -0.4826
 7138TIP3   OH242828   2.128   4.584   4.291 -0.5092 -0.4260 -0.0001
 7138TIP3    H142829   2.195   4.537   4.341 -0.8629 -3.1197 -1.8378
 7138TIP3    H242830   2.176   4.623   4.218 -0.6100 -0.2668  0.0178
 7139TIP3   OH242831   3.135   4.942  17.468  0.1702 -0.7006  0.3814
 7139TIP3    H142832   3.073   4.874  17.492  0.5970 -0.7394  1.4391
 7139TIP3    H242833   3.150   4.929  17.374 -0.0484 -1.8147  0.4854
 7140TIP3   OH242834   4.893   1.749  12.748 -0.2060 -1.0063  0.2904
 7140TIP3    H142835   4.895   1.687  12.675 -1.9046 -0.7495 -0.0214
 7140TIP3    H242836   4.835   1.708  12.812 -0.4375 -0.2676  0.5673
 7141TIP3   OH242837   2.056   5.074   4.760  0.4790  0.3176  0.2198
 7141TIP3    H142838   2.122   5.100   4.824  1.4253  2.0946 -1.3681
 7141TIP3    H242839   1.975   5.066   4.810  1.4011  0.5329  1.7993
 7142TIP3   OH242840   1.233   4.181  13.583  0.0136  0.2347 -0.2053
 7142TIP3    H142841   1.155   4.131  13.606 -0.1428  0.5970  0.0677
 7142TIP3    H242842   1.288   4.176  13.661 -0.7044  1.8265  0.4598
 7143TIP3   OH242843   3.168   6.467  16.301 -0.6397 -0.0396 -0.3236
 7143TIP3    H142844   3.084   6.430  16.328 -0.2093  0.1478  1.4297
 7143TIP3    H242845   3.229   6.392  16.304 -1.0371 -0.5999 -3.4072
 7144TIP3   OH242846   6.187   6.439  15.332  0.4338 -0.9408  0.1764
 7144TIP3    H142847   6.268   6.402  15.367  0.9472 -0.6139 -0.6528
 7144TIP3    H242848   6.167   6.511  15.393  1.6172 -0.0283 -0.4616
 7145TIP3   OH242849   0.964   1.689   1.447  0.2271 -0.0050  0.7719
 7145TIP3    H142850   0.917   1.679   1.364 -1.0282  2.6368  1.0715
 7145TIP3    H242851   1.057   1.686   1.422 -0.1290  0.5927 -0.7208
 7146TIP3   OH242852   6.314   1.188  13.384  0.2713  0.0879  0.3851
 7146TIP3    H142853   6.285   1.157  13.470 -0.8586  1.4689  0.5204
 7146TIP3    H242854   6.407   1.165  13.382  0.0823 -0.9347  1.5253
 7147TIP3   OH242855   2.530   0.160   3.478  0.5236 -0.4714 -0.1961
 7147TIP3    H142856   2.515   0.072   3.511 -0.6579 -0.6620 -1.1768
 7147TIP3    H242857   2.486   0.162   3.393 -0.7084  1.4776  0.4198
 7148TIP3   OH242858   4.982   2.239  15.241 -0.6321  0.4209 -0.5648
 7148TIP3    H142859   5.062   2.195  15.268 -0.5420  0.5394 -0.6352
 7148TIP3    H242860   4.918   2.215  15.307 -0.4859  0.4869 -0.3993
 7149TIP3   OH242861   3.426   4.216  11.625 -0.4087  0.1359  0.5838
 7149TIP3    H142862   3.412   4.305  11.658  0.0446  0.4961 -0.1762
 7149TIP3    H242863   3.475   4.172  11.695 -1.4638  0.1805  1.3731
 7150TIP3   OH242864   4.022   5.014   1.394  0.1110 -0.3215 -0.3805
 7150TIP3    H142865   4.079   4.945   1.426 -0.2140 -0.5172 -0.2092
 7150TIP3    H242866   4.079   5.072   1.345  0.7007  0.1955  0.8643
 7151TIP3   OH242867   5.267   1.203  14.624 -0.3622  0.1739 -0.2990
 7151TIP3    H142868   5.334   1.218  14.557 -0.2927  0.9018 -0.0719
 7151TIP3    H242869   5.287   1.267  14.693  0.2694 -1.2965  0.9636
 7152TIP3   OH242870   4.607   4.224  13.104 -0.3816 -0.4030  0.1763
 7152TIP3    H142871   4.605   4.205  13.010  1.7601  0.9061 -0.1983
 7152TIP3    H242872   4.693   4.193  13.133  0.3810  2.1862  0.9533
 7153TIP3   OH242873   3.192   0.943  16.461 -0.0757  0.1878 -0.0145
 7153TIP3    H142874   3.146   0.969  16.382 -0.5710 -0.1348  0.1613
 7153TIP3    H242875   3.282   0.927  16.433 -0.4163 -0.6684 -0.6653
 7154TIP3   OH242876   6.653   1.840   3.330  0.0335  0.2667  0.5235
 7154TIP3    H142877   6.717   1.905   3.300 -0.8741  0.9316  0.0092
 7154TIP3    H242878   6.656   1.846   3.425 -0.5530  1.5818  0.4773
 7155TIP3   OH242879   5.608   0.257  14.617 -0.5374 -0.4653  0.1137
 7155TIP3    H142880   5.576   0.205  14.691  2.5137 -1.6730  0.7052
 7155TIP3    H242881   5.662   0.197  14.566  2.4685  1.8044  0.3344
 7156TIP3   OH242882   3.478   4.524   3.959  0.4182 -1.0012  0.2810
 7156TIP3    H142883   3.527   4.598   3.924 -0.5578 -1.3820 -2.1685
 7156TIP3    H242884   3.409   4.563   4.013 -1.0229  0.1131 -2.1592
 7157TIP3   OH242885   3.247   6.609   4.337  0.6281  0.2453 -0.0931
 7157TIP3    H142886   3.274   6.520   4.358 -0.8916 -0.3563 -0.6077
 7157TIP3    H242887   3.162   6.620   4.381  0.5595  1.2647 -0.4457
 7158TIP3   OH242888   6.700   3.309  12.859 -0.4019  0.4510 -0.4440
 7158TIP3    H142889   6.752   3.229  12.867  0.5338  1.0175 -0.7067
 7158TIP3    H242890   6.744   3.360  12.791 -0.8733  1.2853 -0.1444
 7159TIP3   OH242891   1.750   6.662   1.541  0.8072 -0.5226 -0.2361
 7159TIP3    H142892   1.662   6.670   1.504  0.5947  2.3000  0.6196
 7159TIP3    H242893   1.807   6.653   1.465 -0.1879 -2.7810 -0.7894
 7160TIP3   OH242894   4.293   2.194   3.492  0.2098  0.0240 -0.5118
 7160TIP3    H142895   4.216   2.194   3.435 -2.4562 -1.3673  2.6965
 7160TIP3    H242896   4.336   2.110   3.474  1.8812  1.3159 -3.1821
 7161TIP3   OH242897   5.479   5.936  12.401  0.4023  0.3064 -0.5350
 7161TIP3    H142898   5.486   5.852  12.357 -0.6838  0.4298 -0.9904
 7161TIP3    H242899   5.460   5.998  12.331 -0.3308  0.6737 -0.0236
 7162TIP3   OH242900   2.707   3.290   2.021 -0.5613  0.1523  0.6670
 7162TIP3    H142901   2.720   3.306   2.115 -1.0741  1.7109  0.4873
 7162TIP3    H242902   2.775   3.341   1.978  1.0603 -2.2404  0.2188
 7163TIP3   OH242903   0.967   5.571   5.339  0.0763 -0.3572 -0.9433
 7163TIP3    H142904   0.900   5.508   5.364 -1.1724  1.3353  0.2106
 7163TIP3    H242905   1.049   5.529   5.365 -0.6861 -1.6078 -0.4330
 7164TIP3   OH242906   2.139   6.390  12.643 -0.0817  0.2566  0.3788
 7164TIP3    H142907   2.122   6.319  12.581 -3.0513  2.3514 -1.4502
 7164TIP3    H242908   2.228   6.418  12.624 -0.3444 -0.2586 -1.8182
 7165TIP3   OH242909   3.364   3.651   1.590  0.0975  0.6148 -0.8069
 7165TIP3    H142910   3.350   3.561   1.558  0.3519  0.4443 -0.4468
 7165TIP3    H242911   3.282   3.675   1.632  0.2022  0.3558 -0.4482
 7166TIP3   OH242912   6.113   5.898  13.194 -0.4974 -0.2225 -0.4162
 7166TIP3    H142913   6.085   5.875  13.106 -1.8382 -1.6024  0.3080
 7166TIP3    H242914   6.197   5.854  13.205 -0.7469 -0.7772 -0.7104
 7167TIP3   OH242915   5.567   1.456  13.750 -0.2352 -0.1385  0.4407
 7167TIP3    H142916   5.640   1.464  13.688 -0.8036 -0.8703 -0.3468
 7167TIP3    H242917   5.505   1.524  13.724 -0.7584 -0.8462 -0.2185
 7168TIP3   OH242918   5.823   0.016   4.820 -0.4103 -0.1242 -0.5208
 7168TIP3    H142919   5.852  -0.048   4.755 -3.1365 -2.2162  0.0920
 7168TIP3    H242920   5.860  -0.016   4.903 -1.3313 -0.6702 -0.2982
 7169TIP3   OH242921   0.861   2.738   5.103 -0.3218  0.2295 -0.0796
 7169TIP3    H142922   0.874   2.832   5.115  0.3971 -0.0262  1.3332
 7169TIP3    H242923   0.929   2.711   5.041  0.8648  0.2854  1.1666
 7170TIP3   OH242924   1.006   0.030  17.484  0.3583  0.2398 -0.4083
 7170TIP3    H142925   1.036   0.111  17.444  0.6808  0.1065 -0.4443
 7170TIP3    H242926   1.062  -0.038  17.445  1.0169  0.1665  0.6091
 7171TIP3   OH242927   6.378   1.334  11.669 -0.0830 -0.3921 -0.1433
 7171TIP3    H142928   6.341   1.263  11.618  1.9964 -0.8906 -1.0871
 7171TIP3    H242929   6.390   1.405  11.606  1.2051 -0.5173 -0.0644
 7172TIP3   OH242930   6.142   3.576   5.012  0.0525 -0.1436 -0.1635
 7172TIP3    H142931   6.091   3.497   5.030 -0.4308  0.0628 -0.6075
 7172TIP3    H242932   6.194   3.590   5.091  0.4407 -1.1325 -0.2282
 7173TIP3   OH242933   0.356   0.853  15.723  0.3282 -0.1994 -0.7209
 7173TIP3    H142934   0.360   0.859  15.627 -0.9125 -3.8154 -1.1188
 7173TIP3    H242935   0.268   0.821  15.742  0.0439  1.7284  1.8212
 7174TIP3   OH242936   3.094   0.145  16.342  0.2597 -0.2734  0.4966
 7174TIP3    H142937   3.181   0.152  16.303 -1.1915  4.0552 -2.7485
 7174TIP3    H242938   3.034   0.168  16.271 -3.5868 -2.3455  2.7419
 7175TIP3   OH242939   4.328   6.080   2.215  0.2897 -0.2727 -0.4232
 7175TIP3    H142940   4.398   6.137   2.182  0.5955  0.5355  1.4997
 7175TIP3    H242941   4.372   5.997   2.234  1.1011  0.6406  2.0405
 7176TIP3   OH242942   6.358   0.707   0.339  0.2216  0.3890  0.6657
 7176TIP3    H142943   6.283   0.744   0.292  0.6794 -0.1218 -0.4974
 7176TIP3    H242944   6.403   0.784   0.375  0.2664  0.8678 -0.3618
 7177TIP3   OH242945   1.724   6.079  11.743 -0.2316  0.9157  0.1733
 7177TIP3    H142946   1.647   6.111  11.792 -1.6221 -0.6440 -0.8788
 7177TIP3    H242947   1.687   6.018  11.679  2.0576 -1.1724  0.7020
 7178TIP3   OH242948   5.051   4.261   2.935 -0.0829  0.5072  0.0814
 7178TIP3    H142949   5.022   4.216   3.014  0.9082  0.5930  0.5130
 7178TIP3    H242950   5.145   4.273   2.948 -0.2085  2.0910 -0.3300
 7179TIP3   OH242951   3.209   1.202   0.361  0.1663  0.0374 -0.2208
 7179TIP3    H142952   3.261   1.249   0.427  1.9750 -0.7432 -1.0257
 7179TIP3    H242953   3.140   1.160   0.411  0.2924  1.0979  0.9014
 7180TIP3   OH242954   5.832   5.598  13.061 -0.3272 -0.1001 -0.3887
 7180TIP3    H142955   5.834   5.670  13.125 -0.9998 -0.4650  0.0528
 7180TIP3    H242956   5.852   5.520  13.112 -0.1773 -0.3031 -0.7587
 7181TIP3   OH242957   1.466   2.466   3.064 -0.2931  0.3095  0.0029
 7181TIP3    H142958   1.390   2.521   3.046 -1.7449 -1.4594  0.4800
 7181TIP3    H242959   1.437   2.406   3.132  0.9547 -1.5660 -1.0263
 7182TIP3   OH242960   3.327   5.285  11.093  0.4369 -0.2079 -0.2041
 7182TIP3    H142961   3.282   5.225  11.034 -1.2989  1.2872 -0.5005
 7182TIP3    H242962   3.276   5.366  11.088  1.5340  0.6651  1.6659
 7183TIP3   OH242963   1.544   5.434  11.337 -0.6090  0.2092 -0.4559
 7183TIP3    H142964   1.526   5.528  11.328  2.8202  0.9819 -0.5878
 7183TIP3    H242965   1.571   5.407  11.249 -1.6082 -0.9900 -0.4305
 7184TIP3   OH242966   0.435   0.459   0.835  0.1856  0.9303 -0.2182
 7184TIP3    H142967   0.441   0.469   0.740 -0.3615 -0.4721 -0.4121
 7184TIP3    H242968   0.524   0.436   0.862 -0.2241 -1.6985 -0.8162
 7185TIP3   OH242969   0.688   0.299   3.475 -0.7763 -0.6229  0.5494
 7185TIP3    H142970   0.598   0.272   3.454 -0.5982 -2.7862  2.2562
 7185TIP3    H242971   0.677   0.365   3.543 -1.0707  0.0658 -0.1406
 7186TIP3   OH242972   0.313   5.577   6.448 -0.0826  0.2393 -0.1498
 7186TIP3    H142973   0.320   5.508   6.514 -1.4631 -1.6433 -1.8757
 7186TIP3    H242974   0.315   5.658   6.499  0.6517 -1.0520  2.0371
 7187TIP3   OH242975   2.232   5.862   2.275 -0.3912 -0.6039  0.6902
 7187TIP3    H142976   2.251   5.880   2.367  0.3418  1.8955  0.1485
 7187TIP3    H242977   2.190   5.943   2.243  0.3747 -0.9662 -1.4157
 7188TIP3   OH242978   2.040   5.668  14.008 -0.3036  0.4790  0.2342
 7188TIP3    H142979   2.092   5.745  14.030 -0.3100  0.6688 -0.3933
 7188TIP3    H242980   2.000   5.641  14.091  0.5704  0.4930  0.6747
 7189TIP3   OH242981   6.325   4.878  12.454 -0.3809  0.3221  0.3857
 7189TIP3    H142982   6.264   4.814  12.417  0.5176 -0.7799  0.7503
 7189TIP3    H242983   6.395   4.885  12.388  0.1636 -0.0467  0.9206
 7190TIP3   OH242984   4.167   0.258  10.799  0.3311  0.5886  0.0169
 7190TIP3    H142985   4.203   0.275  10.711 -1.0708  1.1031 -0.4758
 7190TIP3    H242986   4.115   0.335  10.819 -0.2751 -0.0153  0.8311
 7191TIP3   OH242987   1.874   2.350  15.300  0.0681 -0.1895  0.2497
 7191TIP3    H142988   1.904   2.261  15.319 -0.7759 -0.4574  0.3612
 7191TIP3    H242989   1.936   2.407  15.346  0.1982 -0.7414  0.7665
 7192TIP3   OH242990   3.510   2.159  14.458 -0.4365 -1.1789  0.6665
 7192TIP3    H142991   3.504   2.238  14.404 -1.0182 -1.3922  0.4105
 7192TIP3    H242992   3.474   2.090  14.403 -1.7158 -1.2710  1.5724
 7193TIP3   OH242993   1.476   1.934   2.019  0.8359  0.3495  0.5046
 7193TIP3    H142994   1.537   1.860   2.025 -0.7998 -1.0134  1.0360
 7193TIP3    H242995   1.475   1.957   1.926  1.7351  0.0468  0.4080
 7194TIP3   OH242996   0.020   0.433  15.400  0.1805  0.5937  0.6768
 7194TIP3    H142997   0.012   0.498  15.330  1.0187  1.1723  1.1058
 7194TIP3    H242998  -0.068   0.428  15.437 -0.2006  0.5150 -0.2034
 7195TIP3   OH242999   5.740   5.886  11.296  0.2157  0.6306 -0.2480
 7195TIP3    H143000   5.817   5.941  11.277  1.1635 -0.1695  1.0663
 7195TIP3    H243001   5.677   5.909  11.228  0.7470  2.9927 -0.0434
 7196TIP3   OH243002   5.471   6.294  12.842 -0.1962 -0.7092 -0.4232
 7196TIP3    H143003   5.484   6.238  12.765 -0.2974 -0.5123 -0.5858
 7196TIP3    H243004   5.507   6.378  12.816  0.7181 -0.9211  0.1216
 7197TIP3   OH243005   5.846   5.232   3.268 -0.0885 -0.3174 -0.4664
 7197TIP3    H143006   5.926   5.272   3.234  0.6092  0.0612  1.4579
 7197TIP3    H243007   5.860   5.138   3.260  1.7736 -0.3795  2.1781
 7198TIP3   OH243008   2.323   5.966  15.580  0.0134 -0.5291 -0.3728
 7198TIP3    H143009   2.314   6.046  15.528 -0.6658 -0.0139  0.5155
 7198TIP3    H243010   2.310   5.895  15.517  1.4477  0.0183 -1.3434
 7199TIP3   OH243011   1.716   3.686  16.657  0.1973 -0.7118  0.0210
 7199TIP3    H143012   1.706   3.605  16.706 -2.5525 -0.7774 -0.5067
 7199TIP3    H243013   1.627   3.714  16.638  1.1089  0.6291 -2.8093
 7200TIP3   OH243014   5.528   5.055  13.364 -0.3211  0.5630  0.5169
 7200TIP3    H143015   5.614   5.084  13.394  0.1243 -0.0889 -0.1071
 7200TIP3    H243016   5.504   5.118  13.296  0.5993 -0.4130 -0.7641
 7201TIP3   OH243017   5.460   0.634   1.133  0.0305  0.7430  0.3967
 7201TIP3    H143018   5.395   0.570   1.163  0.9373 -1.2766 -1.6186
 7201TIP3    H243019   5.408   0.709   1.102 -1.1460  0.4011  1.4913
 7202TIP3   OH243020   6.128   0.966  14.770  0.1518  0.5858  0.5364
 7202TIP3    H143021   6.120   1.005  14.683  1.0114 -0.8234 -0.2301
 7202TIP3    H243022   6.117   1.038  14.831  0.0477  1.6978 -0.7612
 7203TIP3   OH243023   4.570   5.249   2.138 -0.4445  0.1211  0.9769
 7203TIP3    H143024   4.588   5.160   2.109  1.1439  0.6488  0.1916
 7203TIP3    H243025   4.523   5.289   2.064 -1.4046 -0.1223  1.4399
 7204TIP3   OH243026   4.949   5.641   4.256 -0.4034 -0.2879  0.4028
 7204TIP3    H143027   4.880   5.660   4.320 -0.2673 -0.5965  0.6420
 7204TIP3    H243028   5.002   5.720   4.253 -1.4125  0.4021 -0.6207
 7205TIP3   OH243029   6.677   5.598  15.403 -0.2918  0.1635  0.2194
 7205TIP3    H143030   6.727   5.526  15.443  1.0983 -0.7272 -2.8429
 7205TIP3    H243031   6.703   5.676  15.453  1.6714 -0.8076  0.7992
 7206TIP3   OH243032   1.429   2.485   2.006  0.1621  0.0837  0.0656
 7206TIP3    H143033   1.472   2.444   2.082 -0.8557  1.3947  1.4173
 7206TIP3    H243034   1.441   2.422   1.935  1.8363 -0.8527  1.1049
 7207TIP3   OH243035   6.488   2.876  11.985  0.4758  0.8805  0.4749
 7207TIP3    H143036   6.393   2.872  11.970  0.7431  0.2487 -1.3869
 7207TIP3    H243037   6.504   2.966  12.013 -0.6444  1.0723  0.5648
 7208TIP3   OH243038   4.487   0.920   5.026  0.0115 -0.1472  0.7692
 7208TIP3    H143039   4.409   0.916   4.970  1.2658 -1.6506 -0.9658
 7208TIP3    H243040   4.489   0.835   5.071 -0.7809  0.8995  2.9436
 7209TIP3   OH243041   5.832   4.767   0.641  0.5063  0.6124  0.2119
 7209TIP3    H143042   5.772   4.813   0.583 -0.6801 -0.9745  0.1424
 7209TIP3    H243043   5.919   4.789   0.608 -0.0756  1.4929 -0.7880
 7210TIP3   OH243044   2.087   5.849   5.092 -0.2661  0.9565  0.1741
 7210TIP3    H143045   2.062   5.875   5.181  0.0539  0.9162  0.2802
 7210TIP3    H243046   2.080   5.930   5.041 -0.8666  0.8859  0.1382
 7211TIP3   OH243047   3.584   2.049  11.071  0.0494 -0.2702 -0.1463
 7211TIP3    H143048   3.654   1.996  11.034  1.0198  1.0971 -0.3728
 7211TIP3    H243049   3.520   1.986  11.104  0.9305 -1.5457 -0.7982
 7212TIP3   OH243050   6.284   5.682  13.255  0.0942 -0.1783  0.0647
 7212TIP3    H143051   6.232   5.644  13.185 -2.9605 -0.2433  2.1464
 7212TIP3    H243052   6.279   5.618  13.326 -0.3709  1.5499  1.6779
 7213TIP3   OH243053   1.520   5.668   1.379  0.8543  0.6607  0.0899
 7213TIP3    H143054   1.528   5.647   1.286  0.5566 -0.1752  0.2465
 7213TIP3    H243055   1.598   5.630   1.420  0.3207 -0.1412  0.3750
 7214TIP3   OH243056   3.835   5.716   4.046  0.1639 -0.2827  0.0714
 7214TIP3    H143057   3.764   5.750   3.990  0.1590 -0.6941 -0.1799
 7214TIP3    H243058   3.915   5.740   4.000  0.1813 -0.0505  0.2213
 7215TIP3   OH243059   0.838   3.095   3.241 -0.3605 -0.1759 -0.1506
 7215TIP3    H143060   0.802   3.140   3.317 -0.3938  0.6934 -0.6718
 7215TIP3    H243061   0.770   3.102   3.175 -0.5467 -1.3885 -0.1095
 7216TIP3   OH243062   4.788   3.426  11.251 -0.4236 -0.2739 -0.6669
 7216TIP3    H143063   4.720   3.363  11.227 -0.6767  0.5887 -2.3782
 7216TIP3    H243064   4.825   3.393  11.333 -1.0028 -2.2589 -1.1733
 7217TIP3   OH243065   1.389   4.045   5.432 -0.9366 -0.2735  0.2672
 7217TIP3    H143066   1.372   4.077   5.343  2.7653  0.5154 -0.2832
 7217TIP3    H243067   1.337   4.103   5.488 -0.7725  1.3762 -1.2049
 7218TIP3   OH243068   3.856   5.142   0.908 -0.0635  0.2627 -0.1787
 7218TIP3    H143069   3.814   5.208   0.962 -0.7379  0.0779 -0.4763
 7218TIP3    H243070   3.897   5.083   0.971 -1.6035 -0.4617  0.1830
 7219TIP3   OH243071   2.855   3.101  17.387  0.5390  0.5382 -0.2835
 7219TIP3    H143072   2.793   3.123  17.317  0.8965 -0.5102 -0.9366
 7219TIP3    H243073   2.804   3.049  17.449  0.4590  0.7047 -0.2077
 7220TIP3   OH243074   4.878   0.273  12.091 -0.0868 -0.0652  0.1205
 7220TIP3    H143075   4.904   0.199  12.146  0.2866 -0.6288 -0.8044
 7220TIP3    H243076   4.907   0.250  12.003 -0.9530  0.6842 -0.3829
 7221TIP3   OH243077   1.936   0.775   0.240  0.2467  0.2587 -0.2910
 7221TIP3    H143078   1.910   0.790   0.331  1.7476 -2.2610  0.6630
 7221TIP3    H243079   2.022   0.733   0.247  0.1586 -0.4869 -2.8614
 7222TIP3   OH243080   1.917   2.553  11.865 -0.0299  0.1074  0.4506
 7222TIP3    H143081   1.991   2.611  11.844 -0.2308 -0.1706 -1.1726
 7222TIP3    H243082   1.843   2.590  11.817 -0.5614 -0.5583  0.7381
 7223TIP3   OH243083   2.752   6.344  15.336 -0.3061 -0.1084  0.2913
 7223TIP3    H143084   2.840   6.378  15.348  0.0649 -0.3536 -1.4862
 7223TIP3    H243085   2.698   6.422  15.321 -0.7100  0.1708  2.7702
 7224TIP3   OH243086   6.640   1.269   3.592 -0.2756  0.0982  0.6920
 7224TIP3    H143087   6.600   1.316   3.519 -3.3306 -0.0870  2.1109
 7224TIP3    H243088   6.618   1.177   3.576 -0.5555  0.0049  1.5586
 7225TIP3   OH243089   1.377   2.422  16.227  0.6274 -0.2555 -0.1348
 7225TIP3    H143090   1.309   2.371  16.184  0.3437 -0.3041  0.3628
 7225TIP3    H243091   1.407   2.366  16.299  0.6832  0.0588  0.0897
 7226TIP3   OH243092   3.478   0.845   3.353 -0.2606  0.3374  0.7632
 7226TIP3    H143093   3.439   0.775   3.404  1.4425  0.3065  2.0895
 7226TIP3    H243094   3.551   0.804   3.306 -1.2523  0.5534 -1.0936
 7227TIP3   OH243095   3.196   0.350  15.430 -0.7421 -0.2339 -0.3305
 7227TIP3    H143096   3.282   0.308  15.432 -1.2894 -1.4737 -1.3062
 7227TIP3    H243097   3.206   0.422  15.368 -0.3073 -0.1180 -0.1312
 7228TIP3   OH243098   0.316   2.638   1.997 -0.3950  0.3529  0.4555
 7228TIP3    H143099   0.314   2.731   2.018 -1.3477  0.4057  0.1609
 7228TIP3    H243100   0.322   2.594   2.081  0.3754  0.6789  0.5838
 7229TIP3   OH243101   1.917   5.667   5.295  0.0095 -0.3287 -0.1659
 7229TIP3    H143102   2.007   5.645   5.267 -0.4148 -0.6774 -1.3366
 7229TIP3    H243103   1.875   5.582   5.308  0.0834 -0.1628  1.2251
 7230TIP3   OH243104   2.380   5.025  16.990  0.1340 -0.3579  0.0570
 7230TIP3    H143105   2.399   4.991  16.903 -0.3581 -0.0256 -0.1894
 7230TIP3    H243106   2.408   4.956  17.050  1.1107 -0.3078 -0.3233
 7231TIP3   OH243107   6.161   0.090  16.416 -0.2107 -0.0709  0.3439
 7231TIP3    H143108   6.129   0.002  16.398  2.2771 -0.7553 -1.2611
 7231TIP3    H243109   6.235   0.076  16.476  0.7453  0.8068 -0.5983
 7232TIP3   OH243110   6.038   5.583  11.628  0.3720 -0.1430 -0.0317
 7232TIP3    H143111   6.006   5.660  11.675  0.0584  0.9348 -1.8916
 7232TIP3    H243112   5.967   5.519  11.636 -0.8062  0.9480 -1.1132
 7233TIP3   OH243113   1.189   0.540   0.101  0.6740 -0.5075 -0.6717
 7233TIP3    H143114   1.201   0.541   0.006 -0.3531  0.2476 -0.8130
 7233TIP3    H243115   1.228   0.622   0.131  1.3351 -0.9194 -0.3864
 7234TIP3   OH243116   1.278   5.687   4.064  0.4823  0.2707 -0.7185
 7234TIP3    H143117   1.217   5.631   4.017  1.9143 -2.0898  0.0397
 7234TIP3    H243118   1.364   5.669   4.025  1.1103  1.4030  0.0447
 7235TIP3   OH243119   0.219   4.842   2.826 -0.7480  0.3007 -0.1322
 7235TIP3    H143120   0.125   4.856   2.810 -1.1728 -1.2828  0.7619
 7235TIP3    H243121   0.240   4.902   2.898 -1.0856  0.6200 -0.2934
 7236TIP3   OH243122   3.841   3.167  11.565  0.1020 -0.3288  0.3683
 7236TIP3    H143123   3.757   3.176  11.519  0.0686 -3.0497 -0.2677
 7236TIP3    H243124   3.816   3.152  11.657 -0.0549 -0.2172  0.3450
 7237TIP3   OH243125   0.361   5.785  10.970 -0.3483 -0.4333 -0.4563
 7237TIP3    H143126   0.402   5.871  10.962  1.3551 -1.1148  0.5007
 7237TIP3    H243127   0.400   5.733  10.900 -0.6172 -0.7046 -0.4058
 7238TIP3   OH243128   2.640   5.606   2.405 -0.2341  0.4247 -0.1185
 7238TIP3    H143129   2.666   5.514   2.410 -0.8851  0.2409  0.0914
 7238TIP3    H243130   2.714   5.654   2.441 -1.1386 -0.2581  3.0459
 7239TIP3   OH243131   4.990   3.890  17.469 -0.0149 -0.1507 -0.6489
 7239TIP3    H143132   5.002   3.960  17.405  2.4942 -0.8667 -1.0539
 7239TIP3    H243133   5.078   3.861  17.490 -0.9549 -3.1151 -0.3747
 7240TIP3   OH243134   1.403   3.692  13.498 -0.2817  0.5169  0.2525
 7240TIP3    H143135   1.432   3.666  13.411 -0.4389 -0.3185  0.4382
 7240TIP3    H243136   1.308   3.676  13.497  0.0460 -1.9398  1.3649
 7241TIP3   OH243137   6.376   4.885  11.013  0.3693 -0.5882 -0.3308
 7241TIP3    H143138   6.391   4.810  11.070  0.8143 -0.1352  0.1483
 7241TIP3    H243139   6.284   4.877  10.988 -0.0567 -0.3667  1.0757
 7242TIP3   OH243140   5.926   3.763   1.922  0.4781 -0.4527 -0.4280
 7242TIP3    H143141   5.902   3.819   1.995  1.4104  0.2079 -0.6034
 7242TIP3    H243142   6.022   3.769   1.918  0.7923 -3.4413  0.6550
 7243TIP3   OH243143   2.733   2.146   5.907  0.0105 -0.0257 -0.0580
 7243TIP3    H143144   2.772   2.059   5.914 -0.3706 -0.4839 -2.7318
 7243TIP3    H243145   2.638   2.130   5.907 -0.0636  0.1681 -2.0783
 7244TIP3   OH243146   1.246   0.856  11.942 -1.1878 -0.0799  0.1510
 7244TIP3    H143147   1.191   0.896  12.009  0.4701  1.2721  0.7654
 7244TIP3    H243148   1.276   0.929  11.889 -1.3283 -0.9888 -1.2203
 7245TIP3   OH243149   1.379   6.122   5.712  0.3027 -0.3080 -0.6566
 7245TIP3    H143150   1.343   6.205   5.745 -0.0365  0.3669 -2.5981
 7245TIP3    H243151   1.394   6.070   5.791  0.6917  1.6504  0.6400
 7246TIP3   OH243152   5.563   1.666   1.797  0.5116 -0.5282 -0.3365
 7246TIP3    H143153   5.616   1.684   1.720 -0.0851 -0.1030 -0.6509
 7246TIP3    H243154   5.620   1.685   1.871  1.3979 -1.8134 -0.6506
 7247TIP3   OH243155   4.621   6.099   3.684 -0.5997 -0.8217 -0.1458
 7247TIP3    H143156   4.544   6.154   3.667  0.2733  1.9645  3.6436
 7247TIP3    H243157   4.589   6.030   3.742 -0.4668 -0.3484  0.4933
 7248TIP3   OH243158   1.320   5.288  16.400 -0.7697  0.7218  0.0474
 7248TIP3    H143159   1.411   5.260  16.415 -0.4629  1.8004  0.3316
 7248TIP3    H243160   1.328   5.374  16.358 -1.6624  0.8995  0.2167
 7249TIP3   OH243161   1.291   4.453   0.106 -0.0017 -0.0586  0.0641
 7249TIP3    H143162   1.307   4.518   0.174  1.1962 -0.7427  0.4739
 7249TIP3    H243163   1.210   4.410   0.133 -1.0841  1.5618 -0.4815
 7250TIP3   OH243164   6.555   5.745  12.189  0.2688 -0.5553 -0.5547
 7250TIP3    H143165   6.631   5.803  12.186 -0.4798  0.6689  1.5425
 7250TIP3    H243166   6.588   5.665  12.230  0.9709 -1.0604 -2.0561
 7251TIP3   OH243167   1.882   1.917   5.189 -0.2320 -0.4036 -0.0958
 7251TIP3    H143168   1.956   1.862   5.215  0.3330  0.8664  1.0828
 7251TIP3    H243169   1.807   1.858   5.191  0.8745 -2.0943 -2.6812
 7252TIP3   OH243170   0.231   3.362   5.676  0.4513 -0.0532  0.4669
 7252TIP3    H143171   0.228   3.324   5.588  0.1124 -1.0640  0.8953
 7252TIP3    H243172   0.227   3.286   5.734 -1.6265  0.6872  1.3857
 7253TIP3   OH243173   2.961   0.719   4.945  0.1683  0.3825 -0.4279
 7253TIP3    H143174   2.875   0.688   4.975 -0.5581  2.4242 -0.1951
 7253TIP3    H243175   2.944   0.757   4.858  0.3690  2.5328  0.4005
 7254TIP3   OH243176   2.255   0.512   1.247 -0.2658  0.3052  0.8158
 7254TIP3    H143177   2.213   0.570   1.310  0.1200  0.0110  1.3522
 7254TIP3    H243178   2.308   0.453   1.300 -0.9091 -0.7694  0.3125
 7255TIP3   OH243179   4.309   6.415  17.094  0.8838 -0.3453  0.0192
 7255TIP3    H143180   4.287   6.419  17.187  0.2261  0.1575 -0.1526
 7255TIP3    H243181   4.369   6.488  17.081  1.1282 -0.5308  0.0791
 7256TIP3   OH243182   0.963   6.562   1.161 -0.0334 -0.0297 -0.1146
 7256TIP3    H143183   0.874   6.595   1.177 -0.8121 -2.0759 -0.0296
 7256TIP3    H243184   1.019   6.621   1.212 -1.1581  2.1413 -1.2137
 7257TIP3   OH243185   1.175   3.498  17.259  0.6900  0.2335 -0.3707
 7257TIP3    H143186   1.258   3.491  17.212 -0.9753 -2.8101 -3.3062
 7257TIP3    H243187   1.140   3.583  17.231  1.3446  0.0355 -1.9365
 7258TIP3   OH243188   3.805   2.061  13.837  0.2196  0.6056  0.8910
 7258TIP3    H143189   3.858   2.001  13.890  0.8399 -0.2579 -0.6326
 7258TIP3    H243190   3.819   2.031  13.747 -0.7150  2.0833  0.2265
 7259TIP3   OH243191   0.304   2.854  16.011 -0.5124 -0.3886 -0.8181
 7259TIP3    H143192   0.276   2.944  15.997 -0.0127 -0.2044 -0.6610
 7259TIP3    H243193   0.391   2.850  15.972  0.2029 -0.3235  0.6854
 7260TIP3   OH243194   4.558   2.698   2.736  0.3759  0.0990 -0.1257
 7260TIP3    H143195   4.612   2.775   2.720 -1.1829  1.2038 -0.2716
 7260TIP3    H243196   4.468   2.730   2.734 -0.2766 -1.2464  2.3215
 7261TIP3   OH243197   4.887   3.994  15.091 -0.0760  0.0979 -0.3123
 7261TIP3    H143198   4.947   3.999  15.165 -0.6422  1.2376  0.1049
 7261TIP3    H243199   4.873   3.901  15.077 -1.2125 -0.1816  2.0957
 7262TIP3   OH243200   6.681   6.222  16.877 -0.0447  0.6174 -0.3912
 7262TIP3    H143201   6.608   6.169  16.910  0.5379  0.2827  0.3840
 7262TIP3    H243202   6.679   6.207  16.782 -1.4141  1.1780 -0.4736
 7263TIP3   OH243203   3.021   4.580  12.090  0.1932 -0.0046  0.7058
 7263TIP3    H143204   3.064   4.599  12.174  0.4325  0.5973  0.4546
 7263TIP3    H243205   3.084   4.608  12.024 -0.5195  0.7526  0.3306
 7264TIP3   OH243206   5.609   5.337   6.736  0.2003 -0.2695  0.3840
 7264TIP3    H143207   5.644   5.423   6.761 -0.0532  0.0276 -0.2682
 7264TIP3    H243208   5.678   5.298   6.682  0.1974 -0.3585  0.4451
 7265TIP3   OH243209   0.680   2.450  14.551 -0.1604 -0.2561 -0.0530
 7265TIP3    H143210   0.731   2.442  14.471 -0.4318 -3.0836 -0.0355
 7265TIP3    H243211   0.685   2.543  14.573  2.0521  0.1691 -1.9288
 7266TIP3   OH243212   6.126   0.735  11.847  0.0652  0.1320 -0.0452
 7266TIP3    H143213   6.118   0.830  11.856 -1.0610  0.1055 -0.6446
 7266TIP3    H243214   6.078   0.714  11.767  1.0191 -0.8564 -0.3863
 7267TIP3   OH243215   3.952   3.329   4.154  0.1045  0.0485  0.5048
 7267TIP3    H143216   3.917   3.241   4.167 -0.9123  0.1945 -1.0209
 7267TIP3    H243217   4.000   3.325   4.071  0.6782  0.7656  0.7804
 7268TIP3   OH243218   3.460   4.568  12.698 -0.4577  0.4350  0.4278
 7268TIP3    H143219   3.409   4.633  12.649 -0.3527  0.2682  0.0934
 7268TIP3    H243220   3.526   4.620  12.745  0.8596  0.4201 -1.3403
 7269TIP3   OH243221   6.054   4.725   2.212  0.3308 -0.2718 -0.5164
 7269TIP3    H143222   5.972   4.775   2.215  0.7763  0.5483 -1.4431
 7269TIP3    H243223   6.118   4.781   2.257  0.9716  0.3187 -2.0767
 7270TIP3   OH243224   0.483   3.484   4.402  0.3329 -0.0605 -0.0859
 7270TIP3    H143225   0.489   3.564   4.349  3.1446  0.3115  0.6397
 7270TIP3    H243226   0.552   3.427   4.368 -1.3182 -2.0586 -0.2692
 7271TIP3   OH243227   4.023   0.266   4.905 -0.0873 -0.0798  0.3184
 7271TIP3    H143228   3.991   0.354   4.925  1.8757  0.4371  1.4600
 7271TIP3    H243229   4.105   0.281   4.857  0.4636 -1.2726  0.8511
 7272TIP3   OH243230   3.325   2.347   6.152  0.2893 -0.3965  0.2317
 7272TIP3    H143231   3.360   2.426   6.193  0.8518  0.0002 -0.9442
 7272TIP3    H243232   3.364   2.275   6.201 -0.6956  0.0285  1.6985
 7273TIP3   OH243233   5.629   5.431  13.350 -0.5270 -0.1156 -0.4103
 7273TIP3    H143234   5.570   5.424  13.425  0.5819  0.2532  0.5228
 7273TIP3    H243235   5.641   5.525  13.337  2.0827 -0.0758  1.3041
 7274TIP3   OH243236   1.771   2.871   1.993  0.0307 -0.8547  0.1601
 7274TIP3    H143237   1.696   2.924   2.018 -0.5635 -0.5757 -2.0152
 7274TIP3    H243238   1.847   2.925   2.013 -0.5558  0.8612 -1.9302
 7275TIP3   OH243239   1.143   2.959   1.539 -0.1592 -0.3975  0.1966
 7275TIP3    H143240   1.212   2.896   1.561  0.2504 -0.2572 -0.6199
 7275TIP3    H243241   1.133   3.012   1.618 -0.3322 -1.3132  0.8090
 7276TIP3   OH243242   2.888   1.278   4.248 -0.1413  0.5564  0.2203
 7276TIP3    H143243   2.837   1.201   4.226 -0.7440  0.3673  2.1281
 7276TIP3    H243244   2.832   1.352   4.224  0.1437  0.4002 -0.9428
 7277TIP3   OH243245   2.070   3.816  15.631 -0.1083  0.4543 -0.4604
 7277TIP3    H143246   2.110   3.768  15.704  0.1215 -0.2056 -1.0155
 7277TIP3    H243247   2.141   3.833  15.570 -0.6163 -0.6216 -1.3974
 7278TIP3   OH243248   5.999   1.933  11.524  0.1617  0.1711  0.1466
 7278TIP3    H143249   5.925   1.881  11.495  1.8689 -1.6914 -1.1027
 7278TIP3    H243250   5.984   2.020  11.486  0.5699 -1.2265 -3.6121
 7279TIP3   OH243251   5.231   3.680  14.491  0.5837  0.2092 -0.0916
 7279TIP3    H143252   5.206   3.683  14.399  1.5751 -1.8391 -0.4801
 7279TIP3    H243253   5.157   3.717  14.537 -0.8400 -0.6615 -1.5828
 7280TIP3   OH243254   0.402   6.301  12.997  0.2390  0.3230  0.4243
 7280TIP3    H143255   0.477   6.276  12.943 -1.6854 -0.4142 -2.1093
 7280TIP3    H243256   0.353   6.220  13.008 -0.2998  0.8270  1.8870
 7281TIP3   OH243257   4.173   1.251  11.668  0.2673  0.8719  0.0704
 7281TIP3    H143258   4.210   1.240  11.581  0.1701 -0.5593  0.1866
 7281TIP3    H243259   4.097   1.193  11.669  1.4416 -0.7388  1.7741
 7282TIP3   OH243260   6.555   4.492  17.299 -0.1194  0.5124 -0.8384
 7282TIP3    H143261   6.598   4.482  17.214 -0.8052 -0.1808 -1.1079
 7282TIP3    H243262   6.489   4.422  17.302  0.5394 -0.0997  0.6619
 7283TIP3   OH243263   1.437   4.438  12.396 -0.1854 -0.4608  0.2901
 7283TIP3    H143264   1.514   4.490  12.369  0.9071 -0.8197  2.4973
 7283TIP3    H243265   1.451   4.352  12.357 -0.4449  0.0001 -0.8555
 7284TIP3   OH243266   3.879   1.716  11.776  0.3248 -0.1454 -0.5370
 7284TIP3    H143267   3.945   1.784  11.784 -0.1503  0.1170  2.1860
 7284TIP3    H243268   3.799   1.763  11.751  0.2804  0.1339  0.1140
 7285TIP3   OH243269   6.051   4.655  13.904 -0.3353  0.0907  0.6170
 7285TIP3    H143270   6.087   4.630  13.820  1.1465 -0.7028  1.4504
 7285TIP3    H243271   6.122   4.701  13.948 -1.3349  1.1882  1.1527
 7286TIP3   OH243272   0.661   3.635  12.947 -0.4710  0.4401 -0.4627
 7286TIP3    H143273   0.709   3.615  13.027  0.2739  0.3120 -0.9294
 7286TIP3    H243274   0.624   3.722  12.962 -0.2807  0.4437 -0.0064
 7287TIP3   OH243275   2.334   2.383   2.228 -0.2831  0.3407  0.4722
 7287TIP3    H143276   2.368   2.388   2.317  0.4524 -0.6302  0.2639
 7287TIP3    H243277   2.247   2.345   2.239 -0.0793 -0.0587  0.7619
 7288TIP3   OH243278   6.038   2.232   4.929  0.0548  0.3595  0.0364
 7288TIP3    H143279   5.967   2.293   4.911 -0.6743 -0.4035  0.2663
 7288TIP3    H243280   6.117   2.287   4.931 -0.5474  1.2475 -0.0165
 7289TIP3   OH243281   5.366   3.753  11.558 -0.3815  0.0376  0.7524
 7289TIP3    H143282   5.377   3.841  11.594 -0.8688  1.2980 -1.9216
 7289TIP3    H243283   5.406   3.757  11.471 -1.5819 -1.9877  0.0210
 7290TIP3   OH243284   1.364   6.221   1.770  0.3234  0.5295  0.2090
 7290TIP3    H143285   1.378   6.256   1.858  0.6089  0.2824  0.2639
 7290TIP3    H243286   1.452   6.203   1.736  0.1920 -0.0711  0.1639
 7291TIP3   OH243287   0.643   0.364  15.571 -0.1582  0.0486  0.5209
 7291TIP3    H143288   0.639   0.295  15.505 -2.0172  0.0465  0.5641
 7291TIP3    H243289   0.576   0.339  15.635 -0.5960  1.6625  0.7471
 7292TIP3   OH243290   1.592   2.472  14.396 -0.0027 -0.5034  0.0476
 7292TIP3    H143291   1.588   2.393  14.450  0.9057 -1.3303 -1.0478
 7292TIP3    H243292   1.531   2.533  14.438  0.8796 -0.9895  2.1715
 7293TIP3   OH243293   2.282   2.238  16.461 -0.4140  0.2035 -0.4284
 7293TIP3    H143294   2.206   2.236  16.520 -0.9572  0.4488 -1.0985
 7293TIP3    H243295   2.335   2.311  16.492 -0.4885  0.0803 -0.0010
 7294TIP3   OH243296   4.799   1.774  16.178  0.0196 -0.3797  0.2129
 7294TIP3    H143297   4.836   1.686  16.191  0.7600 -0.1002  0.0433
 7294TIP3    H243298   4.849   1.810  16.104 -1.0848 -0.2618 -0.5065
 7295TIP3   OH243299   4.082   5.645   5.067  0.1876 -0.0105  0.3421
 7295TIP3    H143300   4.115   5.592   5.140  2.6166  1.2544  0.2601
 7295TIP3    H243301   3.990   5.660   5.088  0.6513 -0.2261  2.8182
 7296TIP3   OH243302   1.315   0.708   0.442  0.4470 -0.4382 -0.1047
 7296TIP3    H143303   1.231   0.700   0.488  0.5367  0.5172  0.2327
 7296TIP3    H243304   1.377   0.736   0.509  1.0378 -1.0598 -0.3691
 7297TIP3   OH243305   0.351   1.144  11.422  0.6928  0.3814  0.0806
 7297TIP3    H143306   0.384   1.115  11.507 -1.5448 -1.0232  0.5562
 7297TIP3    H243307   0.286   1.212  11.443  0.0803 -0.0161 -0.4785
 7298TIP3   OH243308   4.544   5.966  12.172 -0.1484 -0.0604  0.1324
 7298TIP3    H143309   4.633   5.951  12.203 -0.3850 -1.8344  0.0630
 7298TIP3    H243310   4.491   5.969  12.252 -0.0340  1.0184  0.1748
 7299TIP3   OH243311   6.364   4.798  13.787 -0.0459 -0.3390  0.0169
 7299TIP3    H143312   6.418   4.764  13.858  0.9396  0.0125 -0.5502
 7299TIP3    H243313   6.346   4.722  13.732 -0.3232 -0.4999  0.3277
 7300TIP3   OH243314   0.401   2.482  11.714 -0.3740  0.3542 -0.7944
 7300TIP3    H143315   0.462   2.457  11.784 -0.7339  1.1361 -0.1805
 7300TIP3    H243316   0.417   2.418  11.645  1.3798  0.7288 -0.7931
 7301TIP3   OH243317   1.500   5.808  16.329 -0.4599 -0.1292  0.3092
 7301TIP3    H143318   1.414   5.768  16.314 -1.0753  1.1322  0.3203
 7301TIP3    H243319   1.551   5.786  16.251 -1.7983  1.6124 -1.1705
 7302TIP3   OH243320   6.353   4.219   1.700 -0.3011  0.0429  0.1148
 7302TIP3    H143321   6.293   4.290   1.723 -0.9257 -0.4170 -0.0715
 7302TIP3    H243322   6.348   4.213   1.605  0.0808  0.0268  0.0939
 7303TIP3   OH243323   0.035   3.297   3.523 -0.4462  0.0785 -0.6302
 7303TIP3    H143324   0.086   3.302   3.442  1.1091 -0.2234  0.2751
 7303TIP3    H243325  -0.056   3.295   3.495  0.0330  0.6583 -2.3318
 7304TIP3   OH243326   0.918   5.091  14.159 -0.0255 -0.5081 -0.4737
 7304TIP3    H143327   0.839   5.141  14.142  0.2852  1.0825  2.2999
 7304TIP3    H243328   0.970   5.100  14.079 -0.8858  1.9004 -0.8391
 7305TIP3   OH243329   4.161   3.135   1.871 -0.0320 -1.0630  0.1640
 7305TIP3    H143330   4.186   3.199   1.805 -0.5923 -1.4352 -0.4222
 7305TIP3    H243331   4.096   3.180   1.924  1.5329 -0.2261  1.4530
 7306TIP3   OH243332   5.624   2.139   0.439  0.0587  0.0765  0.2235
 7306TIP3    H143333   5.623   2.062   0.495  2.2649 -1.3852 -1.5536
 7306TIP3    H243334   5.707   2.183   0.459  0.5817 -0.1281 -1.3596
 7307TIP3   OH243335   2.313   6.598  17.304 -0.2248  0.3757  0.2701
 7307TIP3    H143336   2.367   6.676  17.311 -1.1888  1.1557 -0.7310
 7307TIP3    H243337   2.327   6.566  17.215 -1.9349  1.0353 -0.2871
 7308TIP3   OH243338   4.867   1.354   2.546  0.3677 -0.1667  0.0928
 7308TIP3    H143339   4.861   1.446   2.571  1.7236  0.2467 -0.9795
 7308TIP3    H243340   4.848   1.306   2.626 -0.8483  1.0213  0.5616
 7309TIP3   OH243341   2.134   4.075  15.975 -0.2416  0.3539  0.1582
 7309TIP3    H143342   2.178   4.116  15.900  0.2031  1.1680  0.8517
 7309TIP3    H243343   2.205   4.041  16.028 -0.3633  2.1910  1.5910
 7310TIP3   OH243344   4.671   0.385  12.638  0.7205 -0.0003 -0.4465
 7310TIP3    H143345   4.709   0.415  12.721  1.4960 -0.6883 -0.5419
 7310TIP3    H243346   4.682   0.290  12.640 -0.2517 -0.1352 -0.8584
 7311TIP3   OH243347   0.470   5.107   4.583 -0.7403 -0.0873 -0.2002
 7311TIP3    H143348   0.494   5.113   4.676 -0.7260  0.8911 -0.2522
 7311TIP3    H243349   0.551   5.084   4.538 -0.3006  1.2719 -0.1586
 7312TIP3   OH243350   2.030   6.468  15.577  0.2404  0.1931 -0.6221
 7312TIP3    H143351   2.066   6.458  15.665  0.0567  1.2471 -0.4160
 7312TIP3    H243352   2.100   6.437  15.520  0.9045  0.7705 -0.1523
 7313TIP3   OH243353   5.798   3.576   2.819  0.1335  0.0132  0.0701
 7313TIP3    H143354   5.765   3.496   2.778 -0.8747  1.2333 -1.5949
 7313TIP3    H243355   5.879   3.596   2.772 -1.1768  1.5747 -1.6380
 7314TIP3   OH243356   1.808   2.781  16.235  0.0327  0.0389  0.3780
 7314TIP3    H143357   1.792   2.687  16.228  0.9415 -0.1316  0.5411
 7314TIP3    H243358   1.878   2.799  16.171  1.3757  0.2123  1.8457
 7315TIP3   OH243359   2.207   4.416  13.888 -0.1256  0.3645 -0.4073
 7315TIP3    H143360   2.210   4.332  13.934  1.8772  0.4671 -0.2723
 7315TIP3    H243361   2.114   4.439  13.886 -0.8817 -2.4187 -1.5241
 7316TIP3   OH243362   1.524   5.340   5.118  0.3798 -0.0529  0.0863
 7316TIP3    H143363   1.573   5.281   5.176 -0.7641 -1.3294 -0.1815
 7316TIP3    H243364   1.467   5.390   5.177  0.0437 -0.5304  0.1734
 7317TIP3   OH243365   5.207   4.269   4.832  0.5252 -0.2756 -0.0020
 7317TIP3    H143366   5.166   4.351   4.860 -1.1208 -0.5596 -1.4275
 7317TIP3    H243367   5.285   4.296   4.784  0.5273  0.4057  0.3712
 7318TIP3   OH243368   5.404   3.047   3.281 -0.2253  0.4433  0.5216
 7318TIP3    H143369   5.427   3.130   3.322 -0.7454  0.3128  1.0963
 7318TIP3    H243370   5.418   2.981   3.350  1.6767 -0.1612 -0.3864
 7319TIP3   OH243371   1.443   1.917  13.852  0.5754 -0.2063  0.1059
 7319TIP3    H143372   1.503   1.989  13.872 -2.3003  2.6437 -0.6048
 7319TIP3    H243373   1.481   1.874  13.775  1.6001  1.6490 -0.4746
 7320TIP3   OH243374   5.850   3.939   3.262 -0.1980  0.6706 -0.1054
 7320TIP3    H143375   5.909   4.013   3.273  3.1125 -1.1065 -3.4288
 7320TIP3    H243376   5.896   3.866   3.304 -1.6323 -0.1612  0.0544
 7321TIP3   OH243377   1.031   4.296   3.997 -0.3203  0.8084 -0.0415
 7321TIP3    H143378   0.972   4.230   3.960  0.9466 -0.7315  0.5582
 7321TIP3    H243379   0.997   4.311   4.085  1.0867 -1.4499  1.0045
 7322TIP3   OH243380   2.555   6.296  14.696 -0.1617 -0.0918  0.5209
 7322TIP3    H143381   2.593   6.228  14.752  0.8719  2.3620  3.0560
 7322TIP3    H243382   2.619   6.307  14.625  0.2163 -0.9600  0.7077
 7323TIP3   OH243383   5.502   1.636   6.307  0.1451 -0.2902  0.2637
 7323TIP3    H143384   5.441   1.592   6.366 -1.1684  2.4617  1.1389
 7323TIP3    H243385   5.543   1.704   6.361 -0.3157  1.6442 -1.6807
 7324TIP3   OH243386   2.085   2.721   5.509  0.5901 -0.3453  0.2001
 7324TIP3    H143387   2.127   2.654   5.455 -0.4970 -0.3224 -0.7113
 7324TIP3    H243388   2.040   2.671   5.578 -0.1279 -0.5581 -0.4144
 7325TIP3   OH243389   0.070   1.556  15.630  0.3399  0.0129 -0.1094
 7325TIP3    H143390   0.094   1.517  15.546  0.1261 -0.0085 -0.1628
 7325TIP3    H243391  -0.019   1.590  15.615  0.4839  0.4245 -0.0304
 7326TIP3   OH243392   5.578   5.837  13.717 -0.9997  0.6455  0.5354
 7326TIP3    H143393   5.604   5.929  13.708 -2.3777  0.9410 -1.0873
 7326TIP3    H243394   5.494   5.841  13.763 -1.4409  0.2911 -0.2197
 7327TIP3   OH243395   0.667   3.887  16.295  0.6169  0.0065  0.8054
 7327TIP3    H143396   0.626   3.883  16.381 -0.3468 -0.6844  0.3420
 7327TIP3    H243397   0.742   3.829  16.301  0.1624 -0.5745  0.9948
 7328TIP3   OH243398   4.009   6.312   4.817  0.4479  0.0594 -0.3708
 7328TIP3    H143399   4.038   6.270   4.736 -0.1877  1.1636 -1.1920
 7328TIP3    H243400   4.082   6.369   4.842  0.8457 -0.6479  0.1239
 7329TIP3   OH243401   3.244   4.779   5.378  0.2003  0.2629 -0.3405
 7329TIP3    H143402   3.222   4.687   5.362 -0.9568  0.4603  0.0230
 7329TIP3    H243403   3.214   4.795   5.467  1.9208  0.5594  0.2129
 7330TIP3   OH243404   0.746   2.768  14.940  0.1781 -0.6029 -0.5634
 7330TIP3    H143405   0.729   2.846  14.993  2.8897 -0.3225  0.0513
 7330TIP3    H243406   0.689   2.778  14.864  1.4935  2.8147 -1.2877
 7331TIP3   OH243407   6.015   4.505  14.233  0.8225  0.1533 -0.9935
 7331TIP3    H143408   5.969   4.472  14.310 -0.0846  0.8616 -1.2139
 7331TIP3    H243409   5.945   4.523  14.170  1.5882 -0.7861 -2.1293
 7332TIP3   OH243410   2.304   3.709   1.137 -0.0623 -0.0333  0.2048
 7332TIP3    H143411   2.313   3.744   1.226  0.5644 -0.1970  0.2140
 7332TIP3    H243412   2.212   3.687   1.129  0.1951 -1.8071  1.5005
 7333TIP3   OH243413   5.798   3.896  13.199  0.2456  0.0599 -0.2915
 7333TIP3    H143414   5.878   3.902  13.147  1.4107 -0.5855  1.3351
 7333TIP3    H243415   5.727   3.909  13.136  1.5943 -0.0239 -1.8974
 7334TIP3   OH243416   0.145   1.368  12.501 -0.0941 -0.4073 -0.4700
 7334TIP3    H143417   0.155   1.276  12.523 -1.0720  0.0360  2.2063
 7334TIP3    H243418   0.212   1.413  12.552  1.1786  0.3511 -2.6552
 7335TIP3   OH243419   3.635   0.392   2.075 -0.6558  0.1210 -0.0601
 7335TIP3    H143420   3.709   0.419   2.021 -0.8938  0.0750 -0.4056
 7335TIP3    H243421   3.645   0.443   2.156 -0.3155  0.2025 -0.1520
 7336TIP3   OH243422   2.740   4.731  11.309  1.0009  0.9407  0.1698
 7336TIP3    H143423   2.646   4.749  11.300  1.2146  1.5246 -1.1218
 7336TIP3    H243424   2.758   4.745  11.402 -0.8023 -2.3789  1.1870
 7337TIP3   OH243425   2.762   2.458  14.057  0.1839  0.2284  0.2981
 7337TIP3    H143426   2.840   2.499  14.095  0.7875  0.8647 -1.4941
 7337TIP3    H243427   2.741   2.385  14.115  1.6180  0.5689  1.2720
 7338TIP3   OH243428   5.622   5.065  13.888 -0.2518  0.4272  0.2928
 7338TIP3    H143429   5.592   5.020  13.809  0.3078  3.0448 -1.5376
 7338TIP3    H243430   5.557   5.042  13.954 -1.3777 -0.9739 -1.2234
 7339TIP3   OH243431   2.104   3.268  15.721  0.0120 -0.2016  0.6104
 7339TIP3    H143432   2.058   3.213  15.785 -0.8539 -2.0109 -1.4324
 7339TIP3    H243433   2.135   3.206  15.655 -0.1620  1.6796 -1.3165
 7340TIP3   OH243434   4.239   1.683   4.858  0.3459 -0.2096 -0.6454
 7340TIP3    H143435   4.250   1.592   4.884 -2.8868 -0.2872  0.9993
 7340TIP3    H243436   4.197   1.679   4.773  0.4171 -0.2484 -0.6789
 7341TIP3   OH243437   0.392   4.408  15.097 -0.5013 -0.4513  0.7014
 7341TIP3    H143438   0.305   4.435  15.066 -0.2078  0.3052  0.5218
 7341TIP3    H243439   0.380   4.391  15.190 -0.8898 -0.5622  0.6338
 7342TIP3   OH243440   1.990   3.745  17.212  0.0801  0.6879  0.1064
 7342TIP3    H143441   2.057   3.783  17.268 -1.4277  2.6251  0.7116
 7342TIP3    H243442   1.995   3.651  17.228  2.2223  0.8437  0.5693
 7343TIP3   OH243443   3.819   1.807   6.287 -0.0781  0.0590 -0.0214
 7343TIP3    H143444   3.872   1.833   6.362 -0.5976  0.1032  0.3293
 7343TIP3    H243445   3.753   1.875   6.278 -1.0840 -0.8035  0.5420
 7344TIP3   OH243446   2.619   0.609  16.271  0.5842  0.4246  0.8328
 7344TIP3    H143447   2.703   0.573  16.243  0.6212 -0.3273  1.8465
 7344TIP3    H243448   2.574   0.633  16.190  0.3750 -2.2833  0.0734
 7345TIP3   OH243449   6.558   3.051  15.495 -0.8975 -0.4757  0.2374
 7345TIP3    H143450   6.597   2.975  15.538 -0.0097  0.6940  1.5929
 7345TIP3    H243451   6.621   3.075  15.427 -1.2652 -1.0384 -0.3122
 7346TIP3   OH243452   1.288   5.611   2.434 -0.3751  0.0245  0.3190
 7346TIP3    H143453   1.202   5.620   2.394 -0.9123 -1.8313  0.9165
 7346TIP3    H243454   1.275   5.641   2.524 -0.4080 -0.2109  0.3952
 7347TIP3   OH243455   6.559   4.893   1.629 -0.3333  0.3273  0.2981
 7347TIP3    H143456   6.590   4.973   1.671 -1.3356  0.4543  0.8070
 7347TIP3    H243457   6.586   4.902   1.537 -0.3520  1.1947  0.3732
 7348TIP3   OH243458   0.822   2.852  16.149  0.1114 -0.3384  0.5777
 7348TIP3    H143459   0.797   2.807  16.230  2.0248 -1.8586  0.3846
 7348TIP3    H243460   0.917   2.839  16.142  0.0572  0.0914 -1.7218
 7349TIP3   OH243461   4.682   5.460   3.539 -0.0741  0.1596  0.0101
 7349TIP3    H143462   4.720   5.440   3.453 -1.7316 -2.1563 -0.2852
 7349TIP3    H243463   4.751   5.437   3.602  1.4977  2.7409 -0.6229
 7350TIP3   OH243464   1.875   0.283   6.698 -0.0313  0.5983 -0.0500
 7350TIP3    H143465   1.874   0.305   6.791 -2.1689  0.0543  0.0973
 7350TIP3    H243466   1.789   0.310   6.665  0.0856 -0.6588 -1.5094
 7351TIP3   OH243467   4.074   2.470   5.572  0.0531  0.2380  0.0736
 7351TIP3    H143468   4.169   2.482   5.571 -0.0889  1.9032  1.3128
 7351TIP3    H243469   4.039   2.557   5.591 -1.7447 -0.3070 -0.5046
 7352TIP3   OH243470   3.268   2.108  17.451 -0.0894 -0.1707 -0.4591
 7352TIP3    H143471   3.329   2.117  17.378  2.1004  0.8275  1.3615
 7352TIP3    H243472   3.290   2.023  17.490  0.0698  0.1392  0.1403
 7353TIP3   OH243473   4.339   6.513  12.261  0.6853  0.2547 -0.6111
 7353TIP3    H143474   4.293   6.539  12.181  0.7264 -3.0137 -1.8636
 7353TIP3    H243475   4.272   6.471  12.315  1.4412 -1.5364 -0.9745
 7354TIP3   OH243476   2.615   0.187  12.295 -0.4153  0.0337 -0.0654
 7354TIP3    H143477   2.692   0.244  12.299 -1.7543  1.9611 -0.6743
 7354TIP3    H243478   2.616   0.141  12.379  3.6359 -3.2332 -1.4993
 7355TIP3   OH243479   6.726   5.825  16.881 -0.4770 -0.4604 -0.4926
 7355TIP3    H143480   6.718   5.903  16.827  0.2046  0.2992  0.4496
 7355TIP3    H243481   6.819   5.802  16.877 -0.4365 -0.4647  0.2201
 7356TIP3   OH243482   0.829   2.355   3.653 -0.0298  0.1849 -0.6866
 7356TIP3    H143483   0.890   2.404   3.598 -0.4481  0.0244 -1.2980
 7356TIP3    H243484   0.779   2.302   3.591  0.0476 -0.6055 -0.0810
 7357TIP3   OH243485   3.758   2.689  16.448  0.1263 -0.1528  0.5663
 7357TIP3    H143486   3.788   2.779  16.461 -1.6782  1.1149 -2.9376
 7357TIP3    H243487   3.667   2.690  16.477 -0.6886 -0.0689 -1.8277
 7358TIP3   OH243488   5.977   0.242  14.085 -0.8524 -1.0807  0.7625
 7358TIP3    H143489   5.951   0.175  14.148 -0.6225 -0.9224  1.0278
 7358TIP3    H243490   6.059   0.276  14.119 -1.1884 -0.3564  0.8738
 7359TIP3   OH243491   5.510   3.285   3.393  0.0561 -0.1807 -0.4002
 7359TIP3    H143492   5.590   3.314   3.348  0.5440 -0.6786  0.1278
 7359TIP3    H243493   5.541   3.225   3.461 -0.9153 -2.1843 -1.6106
 7360TIP3   OH243494   1.074   1.519   4.423  0.0473  0.1308  0.0592
 7360TIP3    H143495   1.074   1.488   4.514  0.5828  1.1880  0.4399
 7360TIP3    H243496   1.127   1.599   4.425  0.7297 -0.2598 -1.3406
 7361TIP3   OH243497   0.305   2.030  13.474  0.3209 -0.3740  0.2241
 7361TIP3    H143498   0.387   2.060  13.514  0.0342  0.6969  0.0438
 7361TIP3    H243499   0.330   1.956  13.419  1.3526  0.5587 -0.6084
 7362TIP3   OH243500   0.759   4.419  11.465  0.1494 -0.6630 -0.2094
 7362TIP3    H143501   0.819   4.491  11.447  0.4976 -1.1447 -1.0431
 7362TIP3    H243502   0.698   4.420  11.391 -0.9048 -0.1612  0.6349
 7363TIP3   OH243503   5.771   3.968  12.176 -0.1334  1.0937  0.1135
 7363TIP3    H143504   5.759   3.878  12.204 -1.2378  1.3084  0.3755
 7363TIP3    H243505   5.842   4.001  12.231 -0.3142  0.6424  0.6248
 7364TIP3   OH243506   1.794   6.213   4.976  0.1718 -0.1885  0.3857
 7364TIP3    H143507   1.716   6.260   4.945 -0.6748 -1.1182  1.0296
 7364TIP3    H243508   1.862   6.234   4.912  0.8195  4.4374  2.1759
 7365TIP3   OH243509   2.968   0.173   1.991  0.9648  0.6753 -0.2385
 7365TIP3    H143510   2.921   0.138   1.915 -0.3992  1.4497  0.2190
 7365TIP3    H243511   2.962   0.268   1.981  0.7894  0.7867  0.8263
 7366TIP3   OH243512   4.257   2.251   2.759 -0.6652 -0.1279 -0.3381
 7366TIP3    H143513   4.311   2.327   2.782 -0.3660 -0.6077  0.5754
 7366TIP3    H243514   4.276   2.235   2.666 -0.1707  0.4555 -0.3431
 7367TIP3   OH243515   2.847   4.336  10.786 -0.1371 -0.0670 -0.0154
 7367TIP3    H143516   2.876   4.251  10.754 -1.5111 -0.8216  0.6826
 7367TIP3    H243517   2.789   4.316  10.859  0.9557  1.5286  1.3820
 7368TIP3   OH243518   4.217   5.525  16.507  0.2952 -0.1092 -0.0414
 7368TIP3    H143519   4.300   5.498  16.469 -0.5187 -2.6629 -0.1880
 7368TIP3    H243520   4.151   5.501  16.442 -0.5844  3.1343 -0.5581
 7369TIP3   OH243521   0.775   6.509   4.124 -0.5206 -0.6017  0.1315
 7369TIP3    H143522   0.689   6.469   4.115 -1.0816  0.5959 -0.0489
 7369TIP3    H243523   0.761   6.583   4.184  0.2847 -0.1491 -0.2172
 7370TIP3   OH243524   6.641   4.702  17.472 -0.3374  0.2412  0.3372
 7370TIP3    H143525   6.675   4.773  17.418 -2.7384  2.2954  1.3292
 7370TIP3    H243526   6.623   4.631  17.411  3.7940 -0.3916 -0.4673
 7371TIP3   OH243527   4.210   5.718  13.948 -0.2083 -0.2888  0.3459
 7371TIP3    H143528   4.254   5.799  13.974 -0.8305  1.4104 -3.2920
 7371TIP3    H243529   4.281   5.663  13.915 -0.2732  1.5590 -3.3792
 7372TIP3   OH243530   2.732   4.577  15.743 -0.3824  0.2683  1.1293
 7372TIP3    H143531   2.651   4.623  15.765 -0.2472  0.2451  1.6934
 7372TIP3    H243532   2.796   4.646  15.730 -0.8014  0.3649 -0.7155
 7373TIP3   OH243533   6.032   1.081   2.293 -0.2368  0.3326  0.7469
 7373TIP3    H143534   5.970   1.075   2.220  0.3870 -1.5041  0.3208
 7373TIP3    H243535   5.979   1.114   2.366 -1.3975  0.1136  0.0309
 7374TIP3   OH243536   1.671   1.346   6.175  0.3750 -0.4692  0.3236
 7374TIP3    H143537   1.653   1.440   6.162 -0.3058 -0.1721  2.8989
 7374TIP3    H243538   1.755   1.344   6.220  0.7598 -1.1755 -0.4054
 7375TIP3   OH243539   0.570   0.719  17.068 -0.2921  0.3763 -0.0973
 7375TIP3    H143540   0.576   0.709  16.973 -2.2747 -0.5324 -0.1876
 7375TIP3    H243541   0.608   0.804  17.086  2.0969 -0.3034 -1.4265
 7376TIP3   OH243542   2.642   1.241   0.442 -0.1918 -0.1894  0.1037
 7376TIP3    H143543   2.621   1.332   0.464 -0.7333  0.5443 -2.9220
 7376TIP3    H243544   2.572   1.215   0.382  1.7076 -1.4601 -1.6751
 7377TIP3   OH243545   1.399   1.069   1.354 -0.7773  0.1408 -0.8807
 7377TIP3    H143546   1.381   1.091   1.446 -0.5509  1.4930 -1.1432
 7377TIP3    H243547   1.465   1.000   1.359 -4.1203 -3.3550  0.0677
 7378TIP3   OH243548   3.299   5.149   1.411  0.3393  0.6122 -0.1684
 7378TIP3    H143549   3.277   5.154   1.504  0.9637 -0.3290  0.0460
 7378TIP3    H243550   3.257   5.068   1.380  0.2977  0.8149 -0.6593
 7379TIP3   OH243551   3.949   4.056   4.512  0.0077  0.1604  0.2236
 7379TIP3    H143552   4.038   4.026   4.497 -0.3952 -1.5274  0.9163
 7379TIP3    H243553   3.924   4.099   4.431  1.7370  1.4792  0.3403
 7380TIP3   OH243554   2.686   3.670  14.556  0.0392 -0.2555 -0.1502
 7380TIP3    H143555   2.713   3.628  14.475  0.9887  1.9437 -1.0657
 7380TIP3    H243556   2.752   3.644  14.620 -0.1692 -1.2204 -0.3070
 7381TIP3   OH243557   5.561   2.897  14.723  0.1607  0.0236  0.3971
 7381TIP3    H143558   5.621   2.874  14.653 -0.2065 -0.3907  0.2143
 7381TIP3    H243559   5.613   2.889  14.803  0.1632 -1.0079  0.2987
 7382TIP3   OH243560   2.007   2.723  12.793 -0.3287  0.2877  0.1476
 7382TIP3    H143561   2.042   2.634  12.802 -1.0917 -0.0943 -0.4510
 7382TIP3    H243562   2.067   2.766  12.732  0.4038  0.3920  0.9348
 7383TIP3   OH243563   5.765   0.578   1.098 -0.2565 -0.2682  0.2082
 7383TIP3    H143564   5.676   0.570   1.131  0.0756 -0.9491  0.9535
 7383TIP3    H243565   5.821   0.574   1.176  0.4908 -0.9797 -0.3406
 7384TIP3   OH243566   0.397   4.100  13.664  0.0011  0.5108 -0.3195
 7384TIP3    H143567   0.356   4.123  13.748  2.1257  1.7349  0.4369
 7384TIP3    H243568   0.344   4.145  13.598  0.3788  2.5044  0.6768
 7385TIP3   OH243569   5.963   6.379  10.731  0.4818 -0.3461  0.3949
 7385TIP3    H143570   5.890   6.337  10.776  0.6672  0.6876  1.7311
 7385TIP3    H243571   5.966   6.467  10.767  0.9796  0.3829 -1.3081
 7386TIP3   OH243572   2.863   3.525   5.523  0.3478 -0.4122 -0.1597
 7386TIP3    H143573   2.918   3.473   5.581 -0.3272 -2.3892 -1.2039
 7386TIP3    H243574   2.922   3.556   5.454  0.8524  0.6765  0.7347
 7387TIP3   OH243575   1.616   4.147   3.051 -0.0797  0.7801 -0.5807
 7387TIP3    H143576   1.622   4.242   3.041  0.5740  0.6841 -1.1639
 7387TIP3    H243577   1.554   4.120   2.983  0.0229  0.7491 -0.6622
 7388TIP3   OH243578   2.048   2.801  16.070 -0.5878 -0.7118  0.0581
 7388TIP3    H143579   2.073   2.737  16.003 -1.3979 -0.5074 -0.4484
 7388TIP3    H243580   2.126   2.855  16.081 -0.9729  0.3646 -2.0270
 7389TIP3   OH243581   6.473   0.532   4.685  0.1564 -0.0818  0.6691
 7389TIP3    H143582   6.499   0.444   4.713  0.1943 -0.4799 -0.5225
 7389TIP3    H243583   6.378   0.534   4.698  0.3840  0.4329  2.5508
 7390TIP3   OH243584   3.854   5.110   3.735  0.1029  0.1748 -0.5808
 7390TIP3    H143585   3.784   5.092   3.797 -0.1413  0.3355 -0.8051
 7390TIP3    H243586   3.932   5.072   3.774  0.0697  0.7975  0.1080
 7391TIP3   OH243587   0.940   2.507  15.702 -0.1956  0.6407  0.0582
 7391TIP3    H143588   0.960   2.565  15.775  2.6306 -2.0349  1.6674
 7391TIP3    H243589   1.026   2.485  15.664 -1.2222 -1.3506 -1.3283
 7392TIP3   OH243590   4.047   3.353   3.200  0.0575 -0.1373  0.0069
 7392TIP3    H143591   4.032   3.260   3.222 -0.2226 -0.5699 -1.8754
 7392TIP3    H243592   4.018   3.361   3.110  0.6165  1.6865 -0.0416
 7393TIP3   OH243593   1.688   2.006   0.180 -0.0843  0.0195 -0.6156
 7393TIP3    H143594   1.637   1.930   0.152  0.7783  0.1146 -2.5791
 7393TIP3    H243595   1.626   2.078   0.180 -0.6976 -0.4794  0.3684
 7394TIP3   OH243596   4.324   6.701   6.194 -0.5728 -0.2562 -0.8020
 7394TIP3    H143597   4.364   6.711   6.281 -0.4325  2.5437 -1.1045
 7394TIP3    H243598   4.372   6.628   6.154  1.9520  0.7523  0.1388
 7395TIP3   OH243599   4.619   3.199   6.115 -0.0825 -0.1735 -0.3625
 7395TIP3    H143600   4.617   3.232   6.205 -0.4369 -0.9669 -0.0614
 7395TIP3    H243601   4.707   3.161   6.105  0.1265  0.3492 -0.5174
 7396TIP3   OH243602   6.006   1.817  15.344 -0.0653 -0.3455  0.0341
 7396TIP3    H143603   6.010   1.849  15.434 -0.7360 -2.2204  0.7804
 7396TIP3    H243604   6.097   1.799  15.320  0.1414  0.4221  0.2108
 7397TIP3   OH243605   5.836   5.535  16.627 -0.1224  0.0791  0.3413
 7397TIP3    H143606   5.852   5.486  16.708 -1.3750 -0.0788  0.5279
 7397TIP3    H243607   5.901   5.605  16.627  0.2920 -0.2934  1.1740
 7398TIP3   OH243608   3.439   6.427   4.314  0.2344  0.4404  0.3230
 7398TIP3    H143609   3.501   6.449   4.383  0.0559  1.4461  0.1786
 7398TIP3    H243610   3.403   6.342   4.340  0.3503  0.6857  1.3333
 7399TIP3   OH243611   5.990   3.612   1.166 -0.3523  0.2452  0.5678
 7399TIP3    H143612   5.974   3.539   1.107  0.8209  0.2245  0.2447
 7399TIP3    H243613   5.903   3.636   1.199 -0.9900 -0.0036 -0.8555
 7400TIP3   OH243614   2.921   5.257  15.174 -0.1330 -0.1210 -0.4100
 7400TIP3    H143615   2.932   5.233  15.082 -1.7772  1.1435 -0.9865
 7400TIP3    H243616   2.979   5.197  15.221 -0.9547 -2.3883 -2.0666
 7401TIP3   OH243617   6.104   3.094  14.586 -0.1861  0.2487  0.0217
 7401TIP3    H143618   6.166   3.143  14.640 -0.5772 -0.2209  0.9196
 7401TIP3    H243619   6.103   3.006  14.624 -2.1264  0.4902  0.6760
 7402TIP3   OH243620   1.753   6.675  14.903  0.1575 -0.1541 -0.0339
 7402TIP3    H143621   1.747   6.701  14.811  0.7143  0.6156  0.1382
 7402TIP3    H243622   1.677   6.717  14.944  0.1125 -0.1997 -0.0695
 7403TIP3   OH243623   3.217   4.654  11.916  0.7200 -0.1128  0.1009
 7403TIP3    H143624   3.292   4.659  11.974  0.0201 -1.4785  1.1913
 7403TIP3    H243625   3.250   4.681  11.831  2.5089 -0.9292  0.5005
 7404TIP3   OH243626   4.275   2.511   0.825 -0.0350  0.2092 -0.4876
 7404TIP3    H143627   4.326   2.456   0.885  2.2355  1.6969 -0.9121
 7404TIP3    H243628   4.341   2.558   0.775 -1.8889  1.4693 -1.8641
 7405TIP3   OH243629   1.874   4.198   4.696  0.3622  0.1228  0.0238
 7405TIP3    H143630   1.941   4.212   4.630  0.6388 -0.1336  0.2483
 7405TIP3    H243631   1.922   4.171   4.774 -0.0316 -0.6002  0.0290
 7406TIP3   OH243632   3.980   0.295   3.977  0.0281 -0.4576 -0.1957
 7406TIP3    H143633   3.988   0.202   3.959 -2.8395 -0.8629  0.1917
 7406TIP3    H243634   3.980   0.337   3.891  0.2659 -0.9201 -0.4214
 7407TIP3   OH243635   6.679   1.483   6.808 -0.1509  0.1136 -0.3692
 7407TIP3    H143636   6.586   1.461   6.813  0.1835 -1.8182 -1.5249
 7407TIP3    H243637   6.682   1.577   6.826 -2.0802 -0.1384  1.7598
 7408TIP3   OH243638   5.791   5.398  15.305  0.1899  0.3288 -0.3007
 7408TIP3    H143639   5.820   5.349  15.228 -0.7064  2.1260 -1.8774
 7408TIP3    H243640   5.871   5.427  15.348  0.7254 -1.9056  0.3302
 7409TIP3   OH243641   3.741   4.819   3.199  0.0022 -0.6109 -0.4516
 7409TIP3    H143642   3.720   4.881   3.129 -0.2244 -0.4657 -0.2593
 7409TIP3    H243643   3.767   4.874   3.273 -2.4909 -0.5627  0.5171
 7410TIP3   OH243644   5.062   5.159  11.418 -0.4257 -0.2946 -0.0530
 7410TIP3    H143645   5.093   5.129  11.333  2.1768  0.5104  0.5012
 7410TIP3    H243646   5.042   5.079  11.466  2.7783 -1.1309  0.1479
 7411TIP3   OH243647   1.382   5.539   0.725  0.0978 -0.0975  0.5321
 7411TIP3    H143648   1.391   5.491   0.807  0.3564  1.1292  1.2561
 7411TIP3    H243649   1.347   5.475   0.663  1.2767 -1.4449  1.1957
 7412TIP3   OH243650   0.729   1.433   3.916  0.5177 -0.0101 -0.8802
 7412TIP3    H143651   0.716   1.450   3.823 -0.9704  1.8602 -0.4025
 7412TIP3    H243652   0.764   1.514   3.951 -0.6422 -0.0412  0.4618
 7413TIP3   OH243653   3.488   4.121  15.726  0.7388 -0.5074 -0.4542
 7413TIP3    H143654   3.577   4.109  15.760  0.9943 -0.2188 -1.0007
 7413TIP3    H243655   3.485   4.213  15.699  0.3334 -0.5623 -0.5988
 7414TIP3   OH243656   1.670   4.955   0.518 -0.1305 -0.2981  0.0106
 7414TIP3    H143657   1.620   4.876   0.498  0.8307 -0.6638 -1.0348
 7414TIP3    H243658   1.738   4.959   0.451  0.8724  0.5170  1.0276
 7415TIP3   OH243659   3.954   2.356   2.673  0.2784 -0.1769  0.3537
 7415TIP3    H143660   4.026   2.300   2.704  0.1357 -1.4977 -1.5479
 7415TIP3    H243661   3.913   2.305   2.603  0.3587  2.4247 -1.7260
 7416TIP3   OH243662   2.216   2.431  13.645  0.3135  0.5284 -0.2517
 7416TIP3    H143663   2.197   2.475  13.729  1.7370  1.6459 -0.4849
 7416TIP3    H243664   2.130   2.421  13.604 -0.2496  1.3578  0.6688
 7417TIP3   OH243665   0.949   4.371   2.647 -0.0746 -0.6338 -0.1457
 7417TIP3    H143666   0.912   4.449   2.689  1.1893 -0.2924  0.3943
 7417TIP3    H243667   0.884   4.346   2.582 -1.2607 -0.1076  0.7980
 7418TIP3   OH243668   4.804   2.800  13.535 -0.0195  0.2761  0.0980
 7418TIP3    H143669   4.743   2.836  13.600  0.4802  0.2641  0.5790
 7418TIP3    H243670   4.891   2.817  13.571  0.2848 -2.8821  1.2386
 7419TIP3   OH243671   5.859   1.192   2.452 -0.1640  0.4977  0.1759
 7419TIP3    H143672   5.766   1.176   2.435 -0.7364  0.4017  2.9456
 7419TIP3    H243673   5.860   1.270   2.508  1.4989  0.7933 -0.1957
 7420TIP3   OH243674   1.773   4.568  14.472  0.1557 -0.1038 -0.4957
 7420TIP3    H143675   1.783   4.652  14.515  2.3098 -0.8635  0.6200
 7420TIP3    H243676   1.734   4.511  14.538  1.1975 -0.6323 -0.3021
 7421TIP3   OH243677   3.431   5.061   5.659  0.6322  0.2625 -0.0672
 7421TIP3    H143678   3.452   4.997   5.591 -1.2283  0.2548 -0.6960
 7421TIP3    H243679   3.352   5.105   5.626  0.5460  1.2712  1.4203
 7422TIP3   OH243680   5.723   0.481  12.646 -0.0922  0.3571  0.5822
 7422TIP3    H143681   5.658   0.538  12.689  0.1296 -0.0236  1.4417
 7422TIP3    H243682   5.737   0.522  12.561 -1.4800  0.4313  0.3641
 7423TIP3   OH243683   3.429   0.230  16.976  0.3811  0.3564 -0.6626
 7423TIP3    H143684   3.360   0.296  16.980 -2.1657 -2.1305 -1.0966
 7423TIP3    H243685   3.387   0.153  16.938  2.4328 -2.4192  2.1878
 7424TIP3   OH243686   0.981   4.208   5.440  0.4726 -0.4665 -0.1933
 7424TIP3    H143687   1.032   4.128   5.453  0.8947  0.0054  1.1508
 7424TIP3    H243688   1.013   4.243   5.357  0.6566 -1.3962 -0.5322
 7425TIP3   OH243689   3.561   3.810   1.038  0.3870 -0.4300  0.0963
 7425TIP3    H143690   3.494   3.794   0.972 -1.4148 -0.5582  1.8417
 7425TIP3    H243691   3.577   3.904   1.034 -0.1045 -0.3546 -0.1950
 7426TIP3   OH243692   3.057   1.762  13.892 -0.2863 -0.3176  0.3803
 7426TIP3    H143693   3.049   1.792  13.983  0.7334  0.2343  0.3027
 7426TIP3    H243694   3.029   1.670  13.895 -1.3313 -0.0004  1.0361
 7427TIP3   OH243695   6.050   2.832  15.525 -0.6613  0.5307 -0.2364
 7427TIP3    H143696   6.112   2.901  15.548 -1.5308  1.6571 -1.1355
 7427TIP3    H243697   6.064   2.817  15.431 -1.2159  0.2562 -0.2805
 7428TIP3   OH243698   5.810   2.909  14.571 -0.4484  0.4102  0.1278
 7428TIP3    H143699   5.823   3.003  14.585 -0.4349  0.2703  1.1604
 7428TIP3    H243700   5.736   2.903  14.510 -0.7886  1.0839  0.4672
 7429TIP3   OH243701   4.457   3.633   0.708  0.0258  0.0391  0.7062
 7429TIP3    H143702   4.498   3.547   0.716  1.4637  0.7215  1.0309
 7429TIP3    H243703   4.523   3.688   0.666 -0.5712  1.1705  1.1922
 7430TIP3   OH243704   1.582   5.827   0.930  0.2540 -0.2842 -0.2291
 7430TIP3    H143705   1.549   5.757   0.987 -0.3280 -0.0022 -0.2110
 7430TIP3    H243706   1.511   5.844   0.869 -0.2713  1.3869  0.7625
 7431TIP3   OH243707   6.713   4.975  13.853 -0.1157  0.5080  0.5704
 7431TIP3    H143708   6.669   4.913  13.794  1.9436 -0.9784  0.4941
 7431TIP3    H243709   6.663   4.969  13.934 -1.9204  1.2602 -0.4190
 7432TIP3   OH243710   0.003   4.111   5.773  0.5833  0.7841 -0.7117
 7432TIP3    H143711  -0.056   4.182   5.797  1.1925  1.5621 -1.4388
 7432TIP3    H243712  -0.047   4.059   5.710 -1.0550 -1.3168  2.1015
 7433TIP3   OH243713   2.642   0.355   3.190 -0.2551 -0.0062 -0.0297
 7433TIP3    H143714   2.670   0.314   3.271 -1.3321  0.9112  0.8438
 7433TIP3    H243715   2.594   0.286   3.143 -1.2894 -0.0329  1.0178
 7434TIP3   OH243716   6.367   2.434  15.659  0.2137 -0.1291  0.6560
 7434TIP3    H143717   6.399   2.512  15.704  0.2261  0.2315  0.0464
 7434TIP3    H243718   6.274   2.451  15.645  0.2652 -0.1096  0.3122
 7435TIP3   OH243719   0.017   6.695  13.555 -0.0639  0.1993 -0.0241
 7435TIP3    H143720   0.086   6.646  13.509  0.0621  0.7372 -0.4138
 7435TIP3    H243721   0.055   6.714  13.641 -1.2746 -3.1553  1.4182
 7436TIP3   OH243722   6.459   0.670  15.001  0.1291 -0.3644  0.1550
 7436TIP3    H143723   6.442   0.745  14.944 -2.0359 -0.9222 -0.0381
 7436TIP3    H243724   6.507   0.609  14.945  0.0705  0.0394 -0.3506
 7437TIP3   OH243725   3.523   1.531   1.577 -0.5347 -0.2909  0.0515
 7437TIP3    H143726   3.513   1.575   1.662 -0.2685  0.6363 -0.3843
 7437TIP3    H243727   3.447   1.474   1.570 -1.0357  0.3129  0.5139
 7438TIP3   OH243728   3.233   1.422  16.431 -0.1532 -0.3193  0.1769
 7438TIP3    H143729   3.148   1.392  16.399  0.5309 -2.2256  0.0491
 7438TIP3    H243730   3.279   1.452  16.353 -0.6412  0.6357  0.2340
 7439TIP3   OH243731   5.403   6.326   1.566  0.9794 -0.6991  0.1946
 7439TIP3    H143732   5.425   6.236   1.591  3.2679 -0.1903  0.2637
 7439TIP3    H243733   5.449   6.339   1.483 -1.2280 -0.2879 -1.0315
 7440TIP3   OH243734   5.529   4.316  13.870  0.4658  0.6855 -0.3844
 7440TIP3    H143735   5.465   4.379  13.902 -0.9742 -0.6362 -0.5282
 7440TIP3    H243736   5.482   4.233  13.869  2.6537 -0.6875  1.0846
 7441TIP3   OH243737   6.523   3.647  16.016  0.0749 -0.0265 -0.2881
 7441TIP3    H143738   6.564   3.564  15.989 -1.2686 -0.1552 -2.1557
 7441TIP3    H243739   6.433   3.640  15.985 -1.1587  0.6778  2.7287
 7442TIP3   OH243740   4.704   2.174  16.290  0.2160 -0.0761  0.1809
 7442TIP3    H143741   4.682   2.164  16.197  0.0422 -1.5267  0.3584
 7442TIP3    H243742   4.625   2.211  16.329  0.4789  1.0631 -0.3214
 7443TIP3   OH243743   1.676   6.084   0.453 -0.7492  0.0905 -0.4226
 7443TIP3    H143744   1.692   6.003   0.501  0.2621 -0.2648 -1.3246
 7443TIP3    H243745   1.582   6.098   0.461 -0.5990  0.2014  1.8821
 7444TIP3   OH243746   1.324   0.878  15.152  0.6283 -0.2138 -0.4707
 7444TIP3    H143747   1.392   0.821  15.117  2.2428  0.7077  1.0165
 7444TIP3    H243748   1.315   0.948  15.088  1.9682  0.2788 -0.1511
 7445TIP3   OH243749   2.773   6.621   4.159 -0.3178  0.1275  0.0311
 7445TIP3    H143750   2.867   6.603   4.162 -0.5001 -0.8779  0.0777
 7445TIP3    H243751   2.732   6.534   4.153 -1.3594  0.3154  2.6493
 7446TIP3   OH243752   5.495   0.835   4.288 -0.7134 -0.1372  0.2429
 7446TIP3    H143753   5.466   0.885   4.212 -0.9861 -1.5444 -0.6349
 7446TIP3    H243754   5.473   0.890   4.363 -1.9150  0.6221 -0.6199
 7447TIP3   OH243755   2.701   5.787  11.039  0.2991  0.4052  0.8477
 7447TIP3    H143756   2.702   5.868  10.989 -0.7840  0.3562  0.7192
 7447TIP3    H243757   2.656   5.724  10.983  0.4661 -0.0843  1.2457
 7448TIP3   OH243758   1.551   5.410  16.765  0.3497  0.1623  0.2932
 7448TIP3    H143759   1.603   5.363  16.700  1.9494  1.3460  0.6793
 7448TIP3    H243760   1.603   5.408  16.845  0.2558  2.1507  0.4540
 7449TIP3   OH243761   4.667   5.673   5.009  0.0071  0.1446  0.1841
 7449TIP3    H143762   4.617   5.752   4.987  2.1706  0.7134 -3.4644
 7449TIP3    H243763   4.744   5.707   5.057 -0.7027 -0.2192  1.6463
 7450TIP3   OH243764   3.061   0.954   2.220 -0.5539  0.6532 -0.5247
 7450TIP3    H143765   3.114   0.898   2.163 -1.2046  0.2689 -0.7724
 7450TIP3    H243766   2.978   0.963   2.172 -1.7883 -1.1058  1.1207
 7451TIP3   OH243767   6.612   5.778   5.744 -0.4349  0.2916 -0.0530
 7451TIP3    H143768   6.601   5.741   5.657 -1.2456 -0.9024  0.5213
 7451TIP3    H243769   6.532   5.754   5.791  0.5097 -0.2008  1.3962
 7452TIP3   OH243770   1.519   4.503  17.063  0.3417 -0.1279 -0.4504
 7452TIP3    H143771   1.553   4.593  17.062  0.2109 -0.0794 -1.0747
 7452TIP3    H243772   1.426   4.513  17.043  0.0205 -0.2872  0.9079
 7453TIP3   OH243773   5.274   1.437   1.068  0.3882  0.0119 -0.5635
 7453TIP3    H143774   5.252   1.527   1.045 -1.5520 -0.3107 -0.1621
 7453TIP3    H243775   5.277   1.390   0.984 -0.2683  0.1138 -0.6437
 7454TIP3   OH243776   5.939   0.948   3.226 -0.1057  0.7348 -0.0288
 7454TIP3    H143777   5.864   0.907   3.183 -0.1893 -0.3730  1.1361
 7454TIP3    H243778   5.900   1.004   3.293  0.0839 -0.4495  1.1157
 7455TIP3   OH243779   5.584   2.224  16.770  0.6339 -0.2754  0.1144
 7455TIP3    H143780   5.519   2.170  16.725  1.1545 -1.0950  0.3314
 7455TIP3    H243781   5.665   2.174  16.765  1.3129  0.8473 -0.3466
 7456TIP3   OH243782   5.569   0.366  15.463  0.5824 -0.1777 -0.0716
 7456TIP3    H143783   5.523   0.426  15.404  0.4359 -0.4045 -0.1908
 7456TIP3    H243784   5.551   0.279  15.427 -0.6884 -0.4299  1.0959
 7457TIP3   OH243785   4.815   3.162  14.265  0.2016  0.3006 -0.3597
 7457TIP3    H143786   4.831   3.252  14.294  1.2302  0.1306 -0.3470
 7457TIP3    H243787   4.871   3.108  14.322  1.1116 -0.1644 -1.6494
 7458TIP3   OH243788   4.374   6.579   1.909  0.1624 -0.5960  0.2455
 7458TIP3    H143789   4.314   6.557   1.981  0.3380  2.0045  1.2972
 7458TIP3    H243790   4.461   6.580   1.949  0.1474  1.9704  0.3806
 7459TIP3   OH243791   6.433   5.623   2.417 -0.0076 -0.5794 -0.1166
 7459TIP3    H143792   6.464   5.534   2.404 -1.8699 -1.4499  0.9330
 7459TIP3    H243793   6.379   5.641   2.340 -0.8825 -0.9799  0.3837
 7460TIP3   OH243794   1.209   3.124   6.481 -0.5521  0.0876 -0.3691
 7460TIP3    H143795   1.277   3.184   6.511 -0.3091 -1.1586  1.8052
 7460TIP3    H243796   1.132   3.180   6.467  0.4518  1.2911 -1.3579
 7461TIP3   OH243797   4.230   5.101   1.869 -0.6313 -0.1892 -0.0501
 7461TIP3    H143798   4.149   5.138   1.905 -0.5886  0.2693 -0.4170
 7461TIP3    H243799   4.230   5.010   1.900 -1.2789 -0.1920 -0.0275
 7462TIP3   OH243800   6.330   6.584  12.086 -0.4167 -0.2752 -0.0514
 7462TIP3    H143801   6.345   6.510  12.027 -1.2383  1.2529 -2.2808
 7462TIP3    H243802   6.417   6.608  12.117  0.3915  0.5201 -2.7548
 7463TIP3   OH243803   6.172   3.145  16.857  0.3205 -0.3068 -0.1009
 7463TIP3    H143804   6.140   3.200  16.786 -0.4067  0.2195  0.6081
 7463TIP3    H243805   6.120   3.171  16.933 -0.4521 -2.3812  0.1437
 7464TIP3   OH243806   0.662   2.890   3.469 -0.2396  0.7331  0.4569
 7464TIP3    H143807   0.584   2.873   3.416 -0.1805 -0.0762  0.6212
 7464TIP3    H243808   0.662   2.985   3.482 -1.4126  0.7053  0.7751
 7465TIP3   OH243809   2.875   5.240   0.455  0.0551  1.1121  0.6299
 7465TIP3    H143810   2.889   5.183   0.379 -0.1026  0.2816  1.2201
 7465TIP3    H243811   2.780   5.249   0.461  0.0873  1.7624  0.3150
 7466TIP3   OH243812   1.276   4.223  16.641 -0.1369  0.0031  0.1483
 7466TIP3    H143813   1.327   4.182  16.571 -0.1067 -0.1830  0.2785
 7466TIP3    H243814   1.341   4.255  16.704 -0.1868 -0.4072  0.4100
 7467TIP3   OH243815   4.367   4.844  16.793  0.1042  0.2242  0.9441
 7467TIP3    H143816   4.408   4.928  16.775 -1.1150  0.8027  0.7368
 7467TIP3    H243817   4.289   4.866  16.845 -1.6324 -0.4882 -1.2186
 7468TIP3   OH243818   5.740   3.881   4.318 -0.0294  0.0167  0.2141
 7468TIP3    H143819   5.706   3.886   4.407 -1.0710 -1.2559 -0.0750
 7468TIP3    H243820   5.683   3.818   4.274  1.0532 -0.1104 -1.0846
 7469TIP3   OH243821   4.037   0.276  12.516 -0.0328  0.8285 -0.5691
 7469TIP3    H143822   3.959   0.235  12.552  0.0106  1.5272  0.3635
 7469TIP3    H243823   4.068   0.215  12.450 -0.7468  0.0265 -0.1818
 7470TIP3   OH243824   3.519   2.814  12.946  0.0715  0.1747 -0.1792
 7470TIP3    H143825   3.475   2.744  12.898  0.6853  0.0863 -0.6372
 7470TIP3    H243826   3.492   2.803  13.037  0.8998 -1.2525 -0.0805
 7471TIP3   OH243827   1.158   4.585  17.326  0.0203 -0.2455  0.2301
 7471TIP3    H143828   1.235   4.630  17.362 -0.4344  0.9034 -0.1899
 7471TIP3    H243829   1.189   4.496  17.309  0.6824 -0.3914  1.9853
 7472TIP3   OH243830   5.076   1.515  14.914 -0.2131 -0.4744 -0.1845
 7472TIP3    H143831   5.011   1.563  14.863  0.5492 -0.9434 -1.6458
 7472TIP3    H243832   5.024   1.458  14.971 -1.0829  0.3792 -0.0988
 7473TIP3   OH243833   0.768   4.936  11.833 -0.6866  0.5559 -0.0492
 7473TIP3    H143834   0.790   4.977  11.917  0.4154 -0.7861  0.3622
 7473TIP3    H243835   0.738   5.008  11.778 -0.7241  1.5838  1.2534
 7474TIP3   OH243836   1.536   0.352   5.575  0.4431 -0.6901  0.1204
 7474TIP3    H143837   1.464   0.316   5.627  1.0453  1.2300  2.5052
 7474TIP3    H243838   1.601   0.282   5.572 -1.0424 -2.0881 -1.1832
 7475TIP3   OH243839   5.868   3.253  11.360 -0.0988  0.2360 -0.2647
 7475TIP3    H143840   5.883   3.254  11.455 -1.1318 -0.6619 -0.0670
 7475TIP3    H243841   5.947   3.213  11.324  0.9034  1.8384  0.0616
 7476TIP3   OH243842   1.738   6.291  12.887 -0.2596  0.8730 -0.0227
 7476TIP3    H143843   1.733   6.206  12.931 -0.1293  0.9379  0.1178
 7476TIP3    H243844   1.780   6.272  12.803 -0.8996  0.6749 -0.3106
 7477TIP3   OH243845   0.508   4.246   4.214 -1.0549 -0.4407  0.1795
 7477TIP3    H143846   0.583   4.285   4.169 -2.6168 -0.5020 -2.7260
 7477TIP3    H243847   0.546   4.204   4.292  1.1604  3.9863  1.8362
 7478TIP3   OH243848   2.545   4.848   2.451  0.3791  0.1943  0.0021
 7478TIP3    H143849   2.462   4.801   2.438  1.0778 -1.2185  0.4148
 7478TIP3    H243850   2.568   4.831   2.543  1.0560  0.7070 -0.0651
 7479TIP3   OH243851   4.633   0.749  16.571  0.1614  0.0798  0.0647
 7479TIP3    H143852   4.627   0.840  16.598  3.2119  0.6679 -0.8555
 7479TIP3    H243853   4.692   0.709  16.635  0.4156 -0.7257 -0.6559
 7480TIP3   OH243854   0.809   0.343  11.617 -0.0259 -0.4253 -0.4674
 7480TIP3    H143855   0.812   0.433  11.583 -0.2397  0.3341  1.3984
 7480TIP3    H243856   0.725   0.309  11.589 -0.7404  0.6235  0.3057
 7481TIP3   OH243857   3.155   4.194  12.026  0.1617  0.5448 -0.5917
 7481TIP3    H143858   3.150   4.256  11.953 -1.8194  2.4893  1.0385
 7481TIP3    H243859   3.081   4.135  12.012  0.9114 -0.2778 -1.1335
 7482TIP3   OH243860   6.018   0.972  11.567 -0.2774 -0.1680  0.2630
 7482TIP3    H143861   5.936   1.020  11.558 -0.4261 -0.2391  1.1479
 7482TIP3    H243862   5.995   0.881  11.552  0.0408  0.0277 -1.6121
 7483TIP3   OH243863   4.386   3.226   3.679  0.2873 -0.9118 -0.7943
 7483TIP3    H143864   4.456   3.290   3.690 -0.0390 -0.4980 -1.0965
 7483TIP3    H243865   4.368   3.194   3.768  0.3257 -0.4500 -0.6173
 7484TIP3   OH243866   0.007   1.123   6.078 -0.6759 -0.2139 -0.2477
 7484TIP3    H143867  -0.019   1.212   6.103  1.1817  0.0591  0.9114
 7484TIP3    H243868  -0.076   1.076   6.065 -1.6926  1.7412 -1.1941
 7485TIP3   OH243869   6.733   3.195  13.220 -0.5635 -0.1184  0.1582
 7485TIP3    H143870   6.717   3.109  13.181  0.2531  0.8402 -2.5598
 7485TIP3    H243871   6.821   3.190  13.256 -0.8569 -0.6540  0.8254
 7486TIP3   OH243872   4.219   2.293  14.388  0.2560  0.1032  0.3563
 7486TIP3    H143873   4.234   2.361  14.455 -1.4694 -0.1774  1.0720
 7486TIP3    H243874   4.266   2.325  14.311 -0.6351  2.2189  0.6215
 7487TIP3   OH243875   3.901   3.602   4.003 -0.4443  0.6554  0.0407
 7487TIP3    H143876   3.877   3.564   4.087 -1.9046  0.8087 -0.2750
 7487TIP3    H243877   3.994   3.623   4.011 -0.0564 -1.1639  0.9118
 7488TIP3   OH243878   5.980   5.354   5.679 -0.1988 -0.3080  0.1025
 7488TIP3    H143879   5.991   5.314   5.593  1.4208 -0.1003  0.1814
 7488TIP3    H243880   6.068   5.352   5.718 -0.6208  0.8532  1.1872
 7489TIP3   OH243881   1.268   1.855  16.130 -0.0289 -0.3143  0.3725
 7489TIP3    H143882   1.315   1.773  16.148 -0.3925 -0.8042 -0.7915
 7489TIP3    H243883   1.264   1.900  16.214  1.2054 -0.9584  0.7897
 7490TIP3   OH243884   1.072   4.658  13.453  0.2138 -0.3888  0.0736
 7490TIP3    H143885   1.033   4.669  13.539 -0.8830  0.1205 -0.4766
 7490TIP3    H243886   1.095   4.565  13.449 -2.2984 -1.0556 -0.1179
 7491TIP3   OH243887   2.797   0.442   4.009  0.7501 -0.0072 -0.0423
 7491TIP3    H143888   2.776   0.534   3.995 -1.3430  0.5629  4.6436
 7491TIP3    H243889   2.889   0.440   4.032  0.4208  1.2924  1.5209
 7492TIP3   OH243890   6.081   1.263   0.011  0.1055 -0.3135  0.3502
 7492TIP3    H143891   6.009   1.214   0.052 -0.3117 -0.6626 -0.7680
 7492TIP3    H243892   6.040   1.308  -0.063  1.2789 -1.6093 -1.1428
 7493TIP3   OH243893   2.719   4.606   1.370  0.4817 -0.3041 -0.1016
 7493TIP3    H143894   2.657   4.535   1.353  0.8588 -0.1612 -2.4903
 7493TIP3    H243895   2.683   4.681   1.322  2.5831 -0.3105 -1.8792
 7494TIP3   OH243896   5.817   1.885   6.590 -0.3761  0.3316  0.9772
 7494TIP3    H143897   5.824   1.800   6.546  0.1574  0.8814 -0.0315
 7494TIP3    H243898   5.723   1.905   6.589 -0.4176  0.1310  0.4679
 7495TIP3   OH243899   2.141   0.758   3.691  0.0218 -0.2367  0.2629
 7495TIP3    H143900   2.155   0.844   3.651 -0.2774 -0.3088 -0.0008
 7495TIP3    H243901   2.047   0.746   3.689  0.1263 -0.9747 -0.5504
 7496TIP3   OH243902   6.734   5.292  14.401 -0.2068 -0.4420  0.2543
 7496TIP3    H143903   6.662   5.233  14.374 -1.2204  0.4654  0.8913
 7496TIP3    H243904   6.779   5.312  14.319 -1.6660  0.2136 -0.4398
 7497TIP3   OH243905   4.934   6.094  16.678  0.1874 -0.3160  0.3731
 7497TIP3    H143906   4.955   6.103  16.585  0.6760  1.5052  0.6276
 7497TIP3    H243907   5.019   6.083  16.720  0.1043  0.3734  0.7397
 7498TIP3   OH243908   4.081   1.340  14.957  0.0212  0.1755 -0.1867
 7498TIP3    H143909   4.133   1.346  15.037 -1.6426 -0.9290  1.0673
 7498TIP3    H243910   4.103   1.254  14.921  1.0990  0.8533 -1.2017
 7499TIP3   OH243911   6.595   4.148   2.146  0.5014 -0.4500 -0.0192
 7499TIP3    H143912   6.601   4.131   2.052  0.9383  1.6433 -0.4355
 7499TIP3    H243913   6.667   4.098   2.185  1.1877 -0.2495 -1.0008
 7500TIP3   OH243914   2.687   2.844  12.281 -0.1389  0.1774  0.3602
 7500TIP3    H143915   2.710   2.791  12.358 -1.0278 -1.4753 -0.4620
 7500TIP3    H243916   2.593   2.857  12.288 -0.4400 -1.0108 -1.0179
 7501TIP3   OH243917   2.505   3.841   1.764 -0.2579  0.0995  0.2791
 7501TIP3    H143918   2.545   3.863   1.680  0.6582  1.5024  1.0554
 7501TIP3    H243919   2.460   3.921   1.791  1.6766  0.5913  2.3446
 7502TIP3   OH243920   3.860   2.507   6.489 -0.5347 -0.4360  0.6822
 7502TIP3    H143921   3.882   2.510   6.396  1.3572  1.4289  1.1301
 7502TIP3    H243922   3.797   2.577   6.501  0.3656  0.3315  1.0428
 7503TIP3   OH243923   3.123   1.261   1.070  0.1417 -0.0582  1.0341
 7503TIP3    H143924   3.029   1.279   1.061 -0.4685 -3.0874  0.0858
 7503TIP3    H243925   3.161   1.292   0.987 -0.3198 -0.3382  0.7120
 7504TIP3   OH243926   6.447   3.254  11.845  0.3193  0.3807 -0.2361
 7504TIP3    H143927   6.484   3.210  11.768 -1.4767 -1.7415  0.0306
 7504TIP3    H243928   6.494   3.215  11.919 -0.6974 -0.5288 -0.0498
 7505TIP3   OH243929   6.499   2.552   4.414  0.1122  0.0073  0.3665
 7505TIP3    H143930   6.425   2.549   4.475  0.9884  1.6751  1.5862
 7505TIP3    H243931   6.458   2.552   4.327 -1.1977 -1.5373  0.9235
 7506TIP3   OH243932   2.047   2.073   3.518 -0.4751  0.1475  0.3009
 7506TIP3    H143933   2.099   2.143   3.558  0.2674 -0.8460  1.1226
 7506TIP3    H243934   2.059   1.998   3.576  0.9998 -1.5037 -2.0071
 7507TIP3   OH243935   0.929   2.346  13.998  0.1674  0.1855  0.2539
 7507TIP3    H143936   0.975   2.284  13.941 -2.1416 -2.5137  1.0537
 7507TIP3    H243937   0.899   2.292  14.071 -2.0264  2.2552  1.0062
 7508TIP3   OH243938   4.837   1.502   1.415  0.1572  0.5011 -0.2412
 7508TIP3    H143939   4.889   1.467   1.487  1.9122  0.2029 -1.6099
 7508TIP3    H243940   4.884   1.477   1.336 -0.0179  3.4668 -1.4264
 7509TIP3   OH243941   1.258   0.656   5.068 -1.2075  0.3960 -0.0140
 7509TIP3    H143942   1.282   0.598   4.996 -0.8681 -0.0824  0.4887
 7509TIP3    H243943   1.199   0.604   5.123  0.9137 -0.3093  1.7066
 7510TIP3   OH243944   2.411   2.228  13.654 -0.4294 -0.2115 -0.1640
 7510TIP3    H143945   2.397   2.210  13.562  2.1335  1.2258 -0.9494
 7510TIP3    H243946   2.349   2.299  13.674 -0.6726 -0.2038 -0.9107
 7511TIP3   OH243947   5.892   3.411  13.516  0.0367  0.4056  0.6174
 7511TIP3    H143948   5.861   3.501  13.510  0.2295  0.4266 -0.1067
 7511TIP3    H243949   5.814   3.358  13.497  0.1349  0.4369  0.1184
 7512TIP3   OH243950   1.787   5.983  14.106 -0.4939 -0.1028  0.2983
 7512TIP3    H143951   1.803   6.059  14.049 -0.6200 -1.2683 -1.3612
 7512TIP3    H243952   1.702   6.000  14.145  0.6668  1.8969  2.1436
 7513TIP3   OH243953   4.944   1.077   0.739  0.3221 -0.1010 -0.5085
 7513TIP3    H143954   5.006   1.132   0.690  0.0466 -0.2608 -1.0537
 7513TIP3    H243955   4.935   0.998   0.685  0.8072 -0.7304  0.3322
 7514TIP3   OH243956   6.031   0.587   5.960 -0.4955 -0.0012 -0.3128
 7514TIP3    H143957   6.042   0.492   5.959 -1.0040 -0.0605 -0.4588
 7514TIP3    H243958   5.945   0.601   6.001 -1.4276  0.2878 -2.2837
 7515TIP3   OH243959   1.835   4.416  16.838  0.0592  0.1075 -0.2739
 7515TIP3    H143960   1.855   4.455  16.923 -0.9589  0.3536 -0.1246
 7515TIP3    H243961   1.911   4.435  16.783  1.2799 -1.1476  0.9234
 7516TIP3   OH243962   3.694   5.350   4.509 -0.5553  0.6275  0.1779
 7516TIP3    H143963   3.732   5.434   4.484  1.8719 -0.3343  0.3501
 7516TIP3    H243964   3.750   5.285   4.467 -2.1643 -0.9315  0.3231
 7517TIP3   OH243965   3.878   0.862  11.024  0.2014  0.9153  0.3295
 7517TIP3    H143966   3.834   0.927  11.078 -0.0471  1.0652 -0.0448
 7517TIP3    H243967   3.806   0.814  10.982  0.3837  0.4866  0.5020
 7518TIP3   OH243968   6.639   0.719   3.604 -0.0931  0.1658 -0.0362
 7518TIP3    H143969   6.648   0.624   3.610 -1.0481  0.0360 -0.5182
 7518TIP3    H243970   6.644   0.749   3.695  0.6689 -0.2884  0.0832
 7519TIP3   OH243971   1.248   2.232  12.492  0.3648  0.4753 -0.9773
 7519TIP3    H143972   1.167   2.276  12.468  0.2846  0.5359 -0.6065
 7519TIP3    H243973   1.302   2.301  12.531  0.9172  0.6139 -1.9541
 7520TIP3   OH243974   6.745   2.220   0.389 -0.0725 -0.0053  0.0385
 7520TIP3    H143975   6.824   2.229   0.442  0.1283 -0.1187 -0.2410
 7520TIP3    H243976   6.675   2.208   0.453  0.3090 -1.2099  0.2408
 7521TIP3   OH243977   5.822   2.362  15.226 -0.1972 -0.3477  0.1065
 7521TIP3    H143978   5.830   2.439  15.169  0.2210  0.4228  1.1774
 7521TIP3    H243979   5.907   2.319  15.221 -0.6297 -1.1437 -1.0014
 7522TIP3   OH243980   3.816   5.358  13.456 -0.4359  0.3083 -0.0088
 7522TIP3    H143981   3.867   5.365  13.537 -1.2251 -1.2461  0.6587
 7522TIP3    H243982   3.882   5.361  13.386  0.4950 -0.6364  0.7907
 7523TIP3   OH243983   1.848   1.738  15.896 -0.3467 -0.2257 -0.1643
 7523TIP3    H143984   1.937   1.703  15.907 -0.4949 -0.7343 -0.5301
 7523TIP3    H243985   1.802   1.669  15.847 -1.1015 -0.2056  0.5109
 7524TIP3   OH243986   1.961   4.603   0.567 -0.7448 -0.1383  0.4939
 7524TIP3    H143987   2.054   4.605   0.588 -0.2207  0.4190 -1.6194
 7524TIP3    H243988   1.940   4.694   0.545 -1.4591 -0.4709 -0.2704
 7525TIP3   OH243989   5.572   6.353  17.336  0.1916 -0.1768  0.2202
 7525TIP3    H143990   5.493   6.374  17.386  1.0563  0.9964  1.1418
 7525TIP3    H243991   5.605   6.437  17.307  1.0459 -0.6707 -0.2598
 7526TIP3   OH243992   0.247   4.302   2.622  0.1697 -0.1902  0.2377
 7526TIP3    H143993   0.234   4.395   2.605  0.7522 -0.3537 -1.2820
 7526TIP3    H243994   0.160   4.263   2.608 -0.5468  0.3257  2.7884
 7527TIP3   OH243995   1.610   5.684   3.974 -0.0577  0.1706  0.1836
 7527TIP3    H143996   1.647   5.697   4.061  0.1930 -0.2628  0.1429
 7527TIP3    H243997   1.614   5.771   3.933  0.7093  0.1771  0.2555
 7528TIP3   OH243998   4.503   0.801  12.800 -0.0156  0.0586  0.2751
 7528TIP3    H143999   4.502   0.767  12.711 -0.5263 -1.1737  0.7244
 7528TIP3    H244000   4.447   0.879  12.796  1.1444  0.8644 -0.7713
 7529TIP3   OH244001   4.783   6.208  13.342  0.1226 -0.4069 -0.5265
 7529TIP3    H144002   4.781   6.166  13.256  1.9003  0.4834 -1.0638
 7529TIP3    H244003   4.773   6.301  13.324 -0.3035 -0.2744  0.3247
 7530TIP3   OH244004   1.675   4.336  17.232 -1.0029  0.4472 -0.3271
 7530TIP3    H144005   1.648   4.353  17.322 -0.0239  0.3161  0.0091
 7530TIP3    H244006   1.620   4.394  17.179 -0.8774  1.2968  0.4387
 7531TIP3   OH244007   4.207   0.334   2.876  0.8365 -0.4532  0.4100
 7531TIP3    H144008   4.246   0.298   2.956  3.0997 -3.8893 -1.9985
 7531TIP3    H244009   4.267   0.404   2.850  0.3203  0.3926  1.3769
 7532TIP3   OH244010   4.887   4.297  14.480  0.0022 -0.4573  1.0874
 7532TIP3    H144011   4.810   4.336  14.438  0.3135 -1.4742 -0.5271
 7532TIP3    H244012   4.874   4.203  14.473  1.9925 -0.6947 -0.5370
 7533TIP3   OH244013   2.267   1.121  14.216 -0.1563 -0.2704 -0.0995
 7533TIP3    H144014   2.258   1.056  14.146 -1.3880 -0.3322  0.0890
 7533TIP3    H244015   2.230   1.201  14.179  1.2678  0.3207 -0.2959
 7534TIP3   OH244016   3.597   3.126   6.010 -0.1666  0.1633  0.7004
 7534TIP3    H144017   3.573   3.112   5.918 -0.8510 -1.6952  1.1276
 7534TIP3    H244018   3.518   3.106   6.059  0.6746 -0.5500  1.8124
 7535TIP3   OH244019   4.493   0.705  11.303 -0.0067 -0.1568 -0.5390
 7535TIP3    H144020   4.507   0.690  11.209  2.0090  0.8867 -0.4459
 7535TIP3    H244021   4.548   0.780  11.324 -1.2961  0.3381  1.2793
 7536TIP3   OH244022   4.854   4.533   5.181  0.0082 -0.2713  0.4850
 7536TIP3    H144023   4.901   4.588   5.243 -0.0168  0.0912  0.1887
 7536TIP3    H244024   4.898   4.548   5.097 -0.1722 -0.4925  0.3480
 7537TIP3   OH244025   3.956   6.035   1.517 -0.3027 -0.8387  0.6531
 7537TIP3    H144026   3.894   6.105   1.539 -1.7062 -2.3436  1.7192
 7537TIP3    H244027   3.962   6.038   1.421  0.0971  1.0469  0.6941
 7538TIP3   OH244028   3.509   4.458  13.103  0.3772 -0.5162 -0.2464
 7538TIP3    H144029   3.513   4.545  13.061 -3.6603 -0.2264 -0.4607
 7538TIP3    H244030   3.554   4.469  13.186  1.0122  1.4600 -0.7955
 7539TIP3   OH244031   2.235   3.330  16.884 -0.2326  0.5051 -0.3606
 7539TIP3    H144032   2.198   3.306  16.969 -0.2522  0.3351 -0.4187
 7539TIP3    H244033   2.327   3.351  16.903  0.3632 -1.6082 -0.6369
 7540TIP3   OH244034   4.343   4.400   5.283  0.1924  0.2574  0.4613
 7540TIP3    H144035   4.388   4.416   5.365 -0.9720 -1.4191  1.4683
 7540TIP3    H244036   4.376   4.316   5.252 -1.7865 -0.7567  0.9627
 7541TIP3   OH244037   4.832   5.782   4.736  0.1180 -0.1626 -0.2077
 7541TIP3    H144038   4.813   5.858   4.680 -0.0586  0.7287  1.0286
 7541TIP3    H244039   4.751   5.766   4.784 -0.1718 -1.7916 -1.1595
 7542TIP3   OH244040   6.593   6.447   5.163  0.0833  0.3538 -0.1446
 7542TIP3    H144041   6.598   6.359   5.200  1.1651 -0.3691 -1.8933
 7542TIP3    H244042   6.578   6.434   5.069 -1.2924  2.0878 -0.2349
 7543TIP3   OH244043   2.644   2.974   0.048 -0.0620  0.4038 -0.0059
 7543TIP3    H144044   2.575   3.028   0.008  0.6086 -0.1084 -1.9554
 7543TIP3    H244045   2.616   2.884   0.032  0.7076  0.1903 -0.1889
 7544TIP3   OH244046   4.071   6.660   1.820 -0.4580  0.3138  0.0996
 7544TIP3    H144047   4.088   6.613   1.902  0.2888 -1.2697 -0.9325
 7544TIP3    H244048   3.999   6.612   1.779  0.4085 -0.0688 -1.0350
 7545TIP3   OH244049   1.410   4.381   5.145 -0.0522 -0.0463 -0.3042
 7545TIP3    H144050   1.363   4.315   5.195  0.7645 -0.8711 -0.5931
 7545TIP3    H244051   1.502   4.359   5.157  0.2478  1.1478 -0.2737
 7546TIP3   OH244052   2.240   0.699  13.662  0.1803 -0.1371  0.3786
 7546TIP3    H144053   2.327   0.662  13.679 -0.0098  0.2142  2.3822
 7546TIP3    H244054   2.180   0.626  13.676  0.1666 -0.6618 -2.0676
 7547TIP3   OH244055   6.652   4.543   4.224  0.3850 -0.5606  0.0181
 7547TIP3    H144056   6.667   4.457   4.184  1.4213  0.2636 -1.5032
 7547TIP3    H244057   6.740   4.579   4.236 -0.0490  0.7939 -0.6052
 7548TIP3   OH244058   4.739   0.589   2.818  0.0533  0.2633  0.1239
 7548TIP3    H144059   4.803   0.535   2.865  0.0567 -0.5534 -0.7641
 7548TIP3    H244060   4.685   0.525   2.770 -1.4090  0.9383  0.8133
 7549TIP3   OH244061   5.301   4.229   5.571 -0.5009  0.4165 -0.3056
 7549TIP3    H144062   5.307   4.319   5.538 -1.7957 -0.2260 -2.5173
 7549TIP3    H244063   5.324   4.174   5.496 -0.3147 -1.1154  0.8268
 7550TIP3   OH244064   2.568   0.201  16.815 -0.1167 -0.1303  0.1169
 7550TIP3    H144065   2.531   0.282  16.779 -0.2251  0.8443  2.2478
 7550TIP3    H244066   2.639   0.230  16.872  1.0292 -1.6893 -0.4437
 7551TIP3   OH244067   5.743   4.908   6.291  0.2489 -1.0839  0.2160
 7551TIP3    H144068   5.647   4.907   6.283  0.1009 -2.7485  1.6797
 7551TIP3    H244069   5.765   5.001   6.291 -1.1985 -0.6632 -1.4817
 7552TIP3   OH244070   2.290   3.989   2.533 -0.2844  1.0947 -0.1671
 7552TIP3    H144071   2.197   4.006   2.525 -0.0374  2.7624 -0.0238
 7552TIP3    H244072   2.331   4.045   2.467  0.5161 -1.5202 -2.0157
 7553TIP3   OH244073   4.115   0.368   4.238  0.3198 -0.0207  0.5122
 7553TIP3    H144074   4.091   0.366   4.146  0.4781  0.6401  0.4563
 7553TIP3    H244075   4.158   0.284   4.253  0.3350 -0.1126 -0.0269
 7554TIP3   OH244076   2.581   0.046  12.544 -0.3413 -0.2560 -0.1987
 7554TIP3    H144077   2.660   0.044  12.597 -0.6095 -0.1876  0.2097
 7554TIP3    H244078   2.509   0.049  12.608 -0.7344 -1.8382 -0.5115
 7555TIP3   OH244079   2.913   3.671  12.207 -0.0096  0.0338  0.6080
 7555TIP3    H144080   3.001   3.642  12.231  1.3133  1.2870 -2.2248
 7555TIP3    H244081   2.902   3.754  12.254  0.6843  0.2833  0.3465
 7556TIP3   OH244082   5.666   4.249   0.925  0.9086 -0.0265 -0.0583
 7556TIP3    H144083   5.571   4.258   0.929  0.8461  0.8829 -2.2756
 7556TIP3    H244084   5.693   4.306   0.853  3.0718 -0.7789  0.0678
 7557TIP3   OH244085   3.347   3.743   2.442  0.3741  0.2327  0.5826
 7557TIP3    H144086   3.303   3.660   2.421  0.3917 -0.0205  1.4883
 7557TIP3    H244087   3.355   3.788   2.359  2.0089 -1.4733 -0.2800
 7558TIP3   OH244088   6.517   4.623   1.054 -0.1818 -0.2041  0.1573
 7558TIP3    H144089   6.596   4.591   1.098 -0.5797 -0.9087  0.3834
 7558TIP3    H244090   6.452   4.630   1.124 -1.0312 -2.0335 -0.3784
 7559TIP3   OH244091   1.546   1.017   2.111 -0.3090  0.0130 -0.3161
 7559TIP3    H144092   1.568   0.973   2.028 -0.6604 -0.9799  0.0936
 7559TIP3    H244093   1.474   0.964   2.147 -0.9573  1.1176  0.0673
 7560TIP3   OH244094   0.276   3.773  13.056 -0.0364 -0.0233 -0.1934
 7560TIP3    H144095   0.354   3.817  13.022 -0.5107  0.2358 -0.9746
 7560TIP3    H244096   0.237   3.730  12.979 -0.4538 -0.4609  0.2585
 7561TIP3   OH244097   4.226   2.649  14.090 -0.2599  0.1826 -0.0708
 7561TIP3    H144098   4.275   2.726  14.118  0.1203 -0.0789 -0.0178
 7561TIP3    H244099   4.156   2.640  14.155 -2.5908  2.6238 -1.9972
 7562TIP3   OH244100   2.923   4.120  15.520  0.8887  0.1951 -0.2212
 7562TIP3    H144101   2.892   4.206  15.548 -1.3432 -0.8334  0.7496
 7562TIP3    H244102   2.994   4.099  15.580 -1.7077 -0.5827  2.8917
 7563TIP3   OH244103   0.612   0.816   2.997 -0.2259 -0.2245  0.5516
 7563TIP3    H144104   0.681   0.809   3.064  1.0164 -0.1462 -0.6775
 7563TIP3    H244105   0.609   0.729   2.958 -0.2531 -0.0054  0.0614
 7564TIP3   OH244106   1.563   4.113   4.498 -0.2813  0.2768 -0.3901
 7564TIP3    H144107   1.486   4.165   4.473 -0.4542 -0.2776 -1.0317
 7564TIP3    H244108   1.635   4.176   4.499 -0.3488  0.4014 -1.8962
 7565TIP3   OH244109   1.765   5.185   1.925  0.2040  0.4878 -0.3891
 7565TIP3    H144110   1.761   5.106   1.978 -0.3883  1.3273  0.8571
 7565TIP3    H244111   1.731   5.158   1.840  0.1971 -0.6411 -0.0484
 7566TIP3   OH244112   2.628   6.521  12.132 -0.5928 -0.1502 -0.3163
 7566TIP3    H144113   2.696   6.467  12.173 -0.2654 -0.8823 -1.7357
 7566TIP3    H244114   2.580   6.559  12.205  2.1654  1.5267  0.7913
 7567TIP3   OH244115   3.103   0.031  13.809 -0.6950  0.0024 -0.2621
 7567TIP3    H144116   3.053   0.039  13.890 -2.8454 -0.9497 -1.3971
 7567TIP3    H244117   3.148  -0.053  13.817  0.4448  0.6745  0.6025
 7568TIP3   OH244118   2.137   2.375   5.879 -0.3905  0.4671 -0.4723
 7568TIP3    H144119   2.228   2.397   5.859  0.4461 -0.4806  1.9866
 7568TIP3    H244120   2.087   2.450   5.848  1.4391  1.9235 -0.0581
 7569TIP3   OH244121   1.351   6.178  14.772 -0.8104  0.4069  0.5831
 7569TIP3    H144122   1.286   6.220  14.714  0.6877  1.0200 -0.7287
 7569TIP3    H244123   1.369   6.244  14.839 -3.0091 -0.5299  2.2413
 7570TIP3   OH244124   5.115   0.901  17.166 -0.3951 -0.5675  0.3065
 7570TIP3    H144125   5.194   0.889  17.114 -0.6424  1.1889 -0.5315
 7570TIP3    H244126   5.092   0.812  17.196  1.0870 -1.2791 -0.5832
 7571TIP3   OH244127   3.508   2.273  11.985  0.3146  0.5277 -0.8281
 7571TIP3    H144128   3.467   2.255  11.900  3.4504  1.0321 -2.6204
 7571TIP3    H244129   3.507   2.189  12.030  0.1680 -0.2263 -2.1668
 7572TIP3   OH244130   5.425   0.995   2.432 -0.3891 -0.7101  0.9650
 7572TIP3    H144131   5.354   0.939   2.400 -1.4543  0.7622  0.6153
 7572TIP3    H244132   5.392   1.031   2.514  1.0089 -1.9396  2.1078
 7573TIP3   OH244133   1.675   1.343  16.742 -0.0140  0.1782 -0.1726
 7573TIP3    H144134   1.652   1.361  16.651  0.7182  3.2457  0.1206
 7573TIP3    H244135   1.765   1.377  16.751  1.4506 -3.4692  0.8499
 7574TIP3   OH244136   6.032   3.314  17.467 -0.7600  0.5284 -0.2704
 7574TIP3    H144137   6.081   3.301  17.549 -0.1910  1.7400 -0.3988
 7574TIP3    H244138   6.093   3.360  17.410 -0.9385 -0.8417 -1.6310
 7575TIP3   OH244139   5.483   4.537   4.217  0.5695  0.2270  0.2979
 7575TIP3    H144140   5.426   4.612   4.199 -0.5101 -0.4719  0.7339
 7575TIP3    H244141   5.465   4.476   4.145  0.1037 -0.3688  0.9141
 7576TIP3   OH244142   0.368   5.954   0.122 -0.0758 -0.2374 -0.2219
 7576TIP3    H144143   0.332   5.882   0.071 -0.2960 -0.3983  0.1566
 7576TIP3    H244144   0.455   5.924   0.148 -0.5817 -0.8353  0.8655
 7577TIP3   OH244145   0.502   5.984   2.938 -0.2945 -0.3249  0.2421
 7577TIP3    H144146   0.471   5.904   2.982 -1.3713  0.7260  1.4620
 7577TIP3    H244147   0.422   6.031   2.914  0.3012  1.4015  1.4726
 7578TIP3   OH244148   5.959   3.938  16.196  0.1268 -0.1937 -0.1663
 7578TIP3    H144149   6.001   4.012  16.241 -0.7921  1.5123 -1.9558
 7578TIP3    H244150   5.921   3.977  16.117 -0.7111 -2.5482 -0.9954
 7579TIP3   OH244151   3.519   1.180   2.586 -0.6301  0.1515  0.0431
 7579TIP3    H144152   3.450   1.202   2.524 -1.4489  0.4255  1.0271
 7579TIP3    H244153   3.586   1.137   2.533 -1.4658  0.0471 -0.9630
 7580TIP3   OH244154   3.279   1.660  12.265 -0.2325  0.4099  0.1690
 7580TIP3    H144155   3.318   1.676  12.351  1.4690 -0.4571 -0.4041
 7580TIP3    H244156   3.252   1.568  12.268 -2.0343  0.9021  0.4378
 7581TIP3   OH244157   6.202   3.853  15.964 -0.2379 -0.3362 -0.4170
 7581TIP3    H144158   6.187   3.769  15.920 -0.1306  0.4149 -1.9486
 7581TIP3    H244159   6.127   3.863  16.022 -0.4219 -1.3328 -0.4635
 7582TIP3   OH244160   3.422   4.723   2.158 -0.7508  0.0488  0.2706
 7582TIP3    H144161   3.371   4.642   2.148 -0.5694 -0.0953  0.4891
 7582TIP3    H244162   3.394   4.759   2.241 -1.2670  0.5288 -0.1081
 7583TIP3   OH244163   3.215   2.676   4.216  0.2511  0.8599 -0.3840
 7583TIP3    H144164   3.310   2.669   4.210  0.1296 -0.0520 -1.4171
 7583TIP3    H244165   3.186   2.691   4.126 -0.8028 -2.1026 -0.6470
 7584TIP3   OH244166   4.116   2.449   0.221 -0.3648 -0.5123 -0.2077
 7584TIP3    H144167   4.079   2.506   0.288 -0.7691 -0.0550 -0.8088
 7584TIP3    H244168   4.188   2.403   0.265  0.9114  1.5059 -0.0472
 7585TIP3   OH244169   1.317   5.425   5.564  0.2788 -0.5575  0.0263
 7585TIP3    H144170   1.362   5.356   5.613 -1.9262 -2.2587 -0.1469
 7585TIP3    H244171   1.304   5.495   5.627 -1.7592 -2.3472  1.7712
 7586TIP3   OH244172   2.603   6.203   0.916  0.5328 -0.3620  0.3000
 7586TIP3    H144173   2.508   6.195   0.928  0.5600  0.1658  0.9001
 7586TIP3    H244174   2.638   6.208   1.005  0.9260  1.5228  0.0691
 7587TIP3   OH244175   2.984   4.862   4.217  0.2746 -0.5151 -0.3860
 7587TIP3    H144176   2.964   4.778   4.177  1.0556 -0.8969  0.0047
 7587TIP3    H244177   3.058   4.844   4.275 -0.6153  0.0877  0.9942
 7588TIP3   OH244178   1.980   4.241  16.138 -0.2664  0.2885  0.1322
 7588TIP3    H144179   2.032   4.183  16.083  0.2162  0.0441  0.8476
 7588TIP3    H244180   1.889   4.217  16.119 -0.1560  0.8194 -1.2332
 7589TIP3   OH244181   4.808   2.076   0.748  0.7037 -0.2320  0.0184
 7589TIP3    H144182   4.868   2.048   0.679  2.0575 -0.5388  1.2742
 7589TIP3    H244183   4.835   2.026   0.825 -0.1949  0.7547  1.0061
 7590TIP3   OH244184   3.832   0.086  10.877 -0.0214 -0.3697 -0.2343
 7590TIP3    H144185   3.859   0.178  10.881 -0.4362 -0.2595  0.0832
 7590TIP3    H244186   3.740   0.087  10.904  0.3570 -1.0436  1.1840
 7591TIP3   OH244187   0.082   2.827  12.296  0.0992  0.2214  0.3942
 7591TIP3    H144188   0.134   2.838  12.376  0.7097 -0.7538  0.1498
 7591TIP3    H244189   0.014   2.894  12.302 -0.7186 -0.7026  2.4277
 7592TIP3   OH244190   5.564   3.103  11.516 -0.3693 -1.0966 -0.1112
 7592TIP3    H144191   5.578   3.012  11.543  2.1942 -0.2144  2.0523
 7592TIP3    H244192   5.585   3.104  11.422 -0.6405 -2.7615 -0.2069
 7593TIP3   OH244193   4.074   1.321   4.788  0.0141 -0.2982 -0.3691
 7593TIP3    H144194   4.123   1.255   4.837 -0.3698  0.1758  0.6962
 7593TIP3    H244195   4.035   1.377   4.856 -1.8567 -0.5567 -1.1771
 7594TIP3   OH244196   5.961   2.215  15.619  0.5863 -0.4973  0.2218
 7594TIP3    H144197   5.965   2.275  15.693  0.8633  0.4825 -0.5778
 7594TIP3    H244198   5.872   2.222  15.587  0.3163 -1.3031  0.7515
 7595TIP3   OH244199   2.427   3.382   0.289 -0.4422 -0.1856  0.0805
 7595TIP3    H144200   2.361   3.313   0.279  0.4429 -0.9690 -0.4872
 7595TIP3    H244201   2.402   3.426   0.370 -2.2753  0.2161 -0.6503
 7596TIP3   OH244202   3.565   4.485  15.157 -0.2338  0.0226  0.8135
 7596TIP3    H144203   3.503   4.549  15.123 -0.7199 -0.1487  1.3613
 7596TIP3    H244204   3.623   4.537  15.214 -0.4450  0.0245  1.0266
 7597TIP3   OH244205   0.237   1.767  13.605  0.3565  0.2751  0.1236
 7597TIP3    H144206   0.255   1.860  13.590  0.6666  0.0639 -0.8977
 7597TIP3    H244207   0.183   1.766  13.684  1.5553  1.2121  1.0007
 7598TIP3   OH244208   2.747   6.502  12.591 -0.3235  0.3032 -0.2346
 7598TIP3    H144209   2.694   6.572  12.627  0.6787 -0.1539  2.3266
 7598TIP3    H244210   2.835   6.539  12.585 -0.3806  0.2580 -2.0524
 7599TIP3   OH244211   0.279   6.443  13.753 -0.4747  0.0519 -0.6085
 7599TIP3    H144212   0.307   6.464  13.842  0.4847 -2.9174 -0.1180
 7599TIP3    H244213   0.188   6.471  13.750 -0.2684  1.0586  0.9740
 7600TIP3   OH244214   6.609   0.421  12.993  0.1082  0.2814 -0.1715
 7600TIP3    H144215   6.553   0.483  13.040  0.2691  1.4045 -1.3923
 7600TIP3    H244216   6.557   0.341  12.986 -0.2659  0.4028  1.0833
 7601TIP3   OH244217   1.012   1.550  15.711  0.3534  0.1357 -0.1227
 7601TIP3    H144218   0.944   1.485  15.729 -2.6572  3.4614  2.0459
 7601TIP3    H244219   1.082   1.529  15.773 -0.1162 -1.4604 -0.0735
 7602TIP3   OH244220   3.298   1.822   3.598  0.4378  0.7376 -0.8591
 7602TIP3    H144221   3.335   1.768   3.668  1.4280  0.1100 -1.8320
 7602TIP3    H244222   3.208   1.839   3.626  1.4101  2.4055  1.6490
 7603TIP3   OH244223   2.885   0.921   3.253  0.1001 -0.1839 -0.0402
 7603TIP3    H144224   2.850   0.867   3.324  1.1908  1.5302  1.9070
 7603TIP3    H244225   2.956   0.869   3.216 -0.2141 -0.9431  0.4097
 7604TIP3   OH244226   1.178   3.179   5.429  0.2588 -0.0263  0.1924
 7604TIP3    H144227   1.161   3.270   5.456 -0.7857 -0.2661  0.3890
 7604TIP3    H244228   1.108   3.160   5.366  0.2559 -0.8132  0.4309
 7605TIP3   OH244229   2.897   3.309  16.016 -0.1785  0.0027 -0.0161
 7605TIP3    H144230   2.824   3.371  16.015 -1.2260 -0.9359  3.3389
 7605TIP3    H244231   2.944   3.329  16.097  0.7642 -2.1694  0.0367
 7606TIP3   OH244232   5.773   0.599   2.924  0.3838 -0.4687  0.0905
 7606TIP3    H144233   5.814   0.657   2.860  1.3199 -0.4591  0.6695
 7606TIP3    H244234   5.710   0.655   2.970  1.8918  0.3750  1.2379
 7607TIP3   OH244235   4.214   0.505  12.133 -0.5304  0.1766 -0.0610
 7607TIP3    H144236   4.213   0.414  12.102  0.8511  0.6824 -1.7136
 7607TIP3    H244237   4.163   0.553  12.067 -0.2582  0.7927  0.1732
 7608TIP3   OH244238   6.314   5.774  13.779  0.4426 -0.4105  0.3671
 7608TIP3    H144239   6.400   5.787  13.738 -1.0393  1.7764 -2.2936
 7608TIP3    H244240   6.307   5.846  13.842  0.0664  0.1498 -0.3130
 7609TIP3   OH244241   4.594   4.688   5.902 -0.7063 -0.1408 -0.2009
 7609TIP3    H144242   4.624   4.629   5.971 -1.4760 -0.5031 -0.1723
 7609TIP3    H244243   4.669   4.695   5.842 -0.0751  0.0850  0.6027
 7610TIP3   OH244244   2.924   6.558   0.036  0.2410 -0.3553  0.7504
 7610TIP3    H144245   2.964   6.645   0.037  0.3930 -0.4053  2.8499
 7610TIP3    H244246   2.959   6.517  -0.043  0.2327  1.4318 -0.2374
 7611TIP3   OH244247   3.567   6.033   5.158 -0.2949  0.1905 -1.0151
 7611TIP3    H144248   3.514   5.978   5.100 -0.0809  0.2529 -1.2668
 7611TIP3    H244249   3.654   5.993   5.157 -0.7867 -1.1010  0.9382
 7612TIP3   OH244250   2.386   5.084   0.787 -1.2277  0.1710  0.1480
 7612TIP3    H144251   2.437   5.044   0.717 -2.2896  0.2110 -0.6687
 7612TIP3    H244252   2.295   5.063   0.766 -1.6521  1.2208  0.8338
 7613TIP3   OH244253   5.077   3.681   1.539  0.2962  0.6172 -0.1384
 7613TIP3    H144254   5.086   3.640   1.625 -0.1234 -2.0007 -1.2483
 7613TIP3    H244255   5.118   3.619   1.479 -2.7508  0.4732 -2.2835
 7614TIP3   OH244256   4.652   4.580   1.786  0.3305 -0.4043 -0.7075
 7614TIP3    H144257   4.655   4.572   1.881  1.5902  1.2027 -0.5598
 7614TIP3    H244258   4.673   4.492   1.753 -2.1695 -1.5090  0.4269
 7615TIP3   OH244259   1.369   5.462  11.564  0.1132  0.2905  0.4628
 7615TIP3    H144260   1.306   5.437  11.496  0.8710 -2.3220  0.5968
 7615TIP3    H244261   1.454   5.442  11.525  0.5218 -2.5706  2.5577
 7616TIP3   OH244262   2.463   3.477  16.642 -0.2445  0.4091  0.0714
 7616TIP3    H144263   2.458   3.533  16.565 -0.1491 -0.2646 -0.4340
 7616TIP3    H244264   2.532   3.515  16.696  0.1606  0.4876 -0.5005
 7617TIP3   OH244265   0.768   6.209   6.275  0.0684  0.0903  0.1616
 7617TIP3    H144266   0.739   6.178   6.189  0.3193  0.8595 -0.2114
 7617TIP3    H244267   0.725   6.294   6.285  0.6323  0.3419  0.4671
 7618TIP3   OH244268   3.583   5.082  17.004  0.4375 -0.0207  0.1389
 7618TIP3    H144269   3.515   5.075  16.937  0.6517 -0.1612 -0.0644
 7618TIP3    H244270   3.534   5.095  17.086  0.1248 -1.1833  0.1505
 7619TIP3   OH244271   5.328   2.773  17.196  0.4183 -0.2397  0.3988
 7619TIP3    H144272   5.356   2.821  17.119  1.4113 -0.6979  0.4587
 7619TIP3    H244273   5.399   2.711  17.214 -1.1783 -2.3962 -0.2212
 7620TIP3   OH244274   5.895   1.307   4.055  0.4279 -0.1885  0.2657
 7620TIP3    H144275   5.877   1.360   3.978  2.0762 -1.8157 -1.3369
 7620TIP3    H244276   5.815   1.254   4.067  0.6497 -0.9044 -1.2155
 7621TIP3   OH244277   5.603   5.371   5.515  0.6337 -0.0962 -0.2816
 7621TIP3    H144278   5.551   5.412   5.446 -1.8350 -1.2130  0.7729
 7621TIP3    H244279   5.632   5.288   5.478  1.7145  0.5153 -0.8616
 7622TIP3   OH244280   4.209   0.115   5.774  0.5060 -0.2579 -0.4101
 7622TIP3    H144281   4.121   0.091   5.745  0.7122 -1.2506 -0.2571
 7622TIP3    H244282   4.264   0.039   5.752  0.6744 -1.1442  2.5070
 7623TIP3   OH244283   2.546   2.762  11.990  0.0190  0.6382 -0.1203
 7623TIP3    H144284   2.530   2.856  12.002 -2.0117  0.3090  0.0272
 7623TIP3    H244285   2.480   2.719  12.044  0.8265 -0.8963 -0.3057
 7624TIP3   OH244286   2.269   1.589  14.375 -0.3943  0.0036  0.2341
 7624TIP3    H144287   2.291   1.627  14.460  1.4505 -0.5319  0.0236
 7624TIP3    H244288   2.174   1.576  14.380 -0.6974  2.1191  1.3135
 7625TIP3   OH244289   0.676   1.359   3.074 -0.2161  0.2481  0.1778
 7625TIP3    H144290   0.675   1.415   2.997  0.3790  0.1799  0.1190
 7625TIP3    H244291   0.612   1.291   3.055 -1.2041  1.0868  0.3924
 7626TIP3   OH244292   6.161   6.741  13.802  0.2263  0.0214 -0.2142
 7626TIP3    H144293   6.214   6.665  13.826  0.0324 -0.0818 -0.1080
 7626TIP3    H244294   6.106   6.710  13.730 -0.9637 -0.4085  0.8369
 7627TIP3   OH244295   3.731   0.723   4.498 -0.6185  0.8431  0.4286
 7627TIP3    H144296   3.668   0.694   4.564  0.0288  0.3914  0.8581
 7627TIP3    H244297   3.776   0.643   4.471 -1.0691  0.9756 -0.7789
 7628TIP3   OH244298   3.913   0.312   2.942  0.2650 -0.5131 -0.7269
 7628TIP3    H144299   4.004   0.339   2.928 -0.0191  0.1582 -1.3280
 7628TIP3    H244300   3.919   0.237   3.002  1.0503  1.2494  1.5569
 7629TIP3   OH244301   6.441   5.211   1.681 -0.5014 -0.4459  1.0566
 7629TIP3    H144302   6.455   5.117   1.688  1.7044 -0.2384  0.3811
 7629TIP3    H244303   6.409   5.238   1.767 -0.0955 -1.6581  1.6004
 7630TIP3   OH244304   3.739   4.332  15.367  0.6337  0.0964 -0.0797
 7630TIP3    H144305   3.747   4.409  15.423 -0.2816  0.3699 -0.3044
 7630TIP3    H244306   3.702   4.365  15.285  1.5585 -0.3638 -0.7037
 7631TIP3   OH244307   1.462   1.688   5.517 -0.3285  0.3208 -0.0598
 7631TIP3    H144308   1.456   1.683   5.612 -1.4822 -0.1620 -0.1415
 7631TIP3    H244309   1.371   1.695   5.488 -0.0711 -0.6150 -1.1697
 7632TIP3   OH244310   5.074   0.038  13.251 -0.1243 -0.1710  0.3729
 7632TIP3    H144311   5.139   0.053  13.183 -0.1362 -0.3455  0.3223
 7632TIP3    H244312   5.115   0.070  13.331 -0.2877  0.4615  0.2133
 7633TIP3   OH244313   0.692   5.718   2.600  0.0015  0.1323  0.0145
 7633TIP3    H144314   0.704   5.671   2.518  0.8106  1.4943 -0.6811
 7633TIP3    H244315   0.774   5.764   2.615 -0.7425  1.3273  0.6497
 7634TIP3   OH244316   2.290   2.325   1.866  0.2416  0.0413 -0.4436
 7634TIP3    H144317   2.255   2.236   1.870 -2.6101  1.0939  1.6381
 7634TIP3    H244318   2.356   2.329   1.936 -0.1352 -0.2621 -0.0685
 7635TIP3   OH244319   6.688   0.204  14.935 -0.5403 -0.3657  0.1669
 7635TIP3    H144320   6.645   0.165  14.859 -1.4573 -0.8676  0.9147
 7635TIP3    H244321   6.676   0.140  15.005 -0.8350  0.6284  1.0591
 7636TIP3   OH244322   5.660   3.231   5.729 -0.5377 -0.1484 -1.1180
 7636TIP3    H144323   5.599   3.304   5.719 -0.4818 -0.1876 -1.7997
 7636TIP3    H244324   5.668   3.219   5.823 -0.0494  1.1392 -0.9789
 7637TIP3   OH244325   2.696   6.514   4.684 -0.1572  0.3849 -0.0251
 7637TIP3    H144326   2.695   6.541   4.593 -1.1454 -0.3710 -0.2640
 7637TIP3    H244327   2.619   6.555   4.723 -0.3319 -0.1386  0.1990
 7638TIP3   OH244328   2.314   5.663   4.806 -0.2033 -0.4756 -0.4185
 7638TIP3    H144329   2.263   5.602   4.861  0.8477 -1.5491 -0.6058
 7638TIP3    H244330   2.397   5.674   4.853 -0.2419  0.5603 -0.5678
 7639TIP3   OH244331   6.588   0.531  17.242  0.2563  0.2620 -0.2796
 7639TIP3    H144332   6.561   0.601  17.182 -3.1004  0.0161  0.7277
 7639TIP3    H244333   6.569   0.450  17.195 -0.1987  0.0663  0.2305
 7640TIP3   OH244334   1.968   5.780   4.638  0.0526 -0.1308  0.2074
 7640TIP3    H144335   1.923   5.857   4.672  0.6793  0.0871  0.5830
 7640TIP3    H244336   1.945   5.710   4.700  0.7205  0.1284  0.7706
 7641TIP3   OH244337   2.232   3.173   2.813 -0.0983  0.1356  0.1914
 7641TIP3    H144338   2.150   3.147   2.771  1.7984 -1.0254 -3.1043
 7641TIP3    H244339   2.240   3.267   2.794 -0.2501  0.0580 -0.2660
 7642TIP3   OH244340   3.362   2.724  14.893  0.6170 -0.2082 -0.1146
 7642TIP3    H144341   3.357   2.811  14.932  1.4098 -0.0565 -0.3190
 7642TIP3    H244342   3.450   2.720  14.855  0.3799 -0.8847 -0.6173
 7643TIP3   OH244343   4.921   3.957  13.926  0.3920  0.4126 -0.3446
 7643TIP3    H144344   4.970   4.030  13.964  0.3422  0.4985 -0.4433
 7643TIP3    H244345   4.833   3.965  13.963  0.4728  0.2137 -0.1084
 7644TIP3   OH244346   0.358   1.492   1.963 -0.1198 -0.6388 -0.0625
 7644TIP3    H144347   0.445   1.505   1.926 -1.1935  1.5178 -2.1484
 7644TIP3    H244348   0.327   1.410   1.925 -0.0503  0.0523 -1.7311
 7645TIP3   OH244349   1.991   2.015  16.186  0.1584  0.3373 -1.0646
 7645TIP3    H144350   2.049   2.090  16.201  0.3015  0.0408 -0.0326
 7645TIP3    H244351   2.050   1.941  16.174  0.1204 -0.4950  2.6677
 7646TIP3   OH244352   2.087   5.703  13.533 -0.5250  0.3923 -0.0603
 7646TIP3    H144353   2.149   5.630  13.536 -2.7347 -1.5756  0.2725
 7646TIP3    H244354   2.114   5.753  13.456  0.5237 -1.2836 -0.8438
 7647TIP3   OH244355   6.555   2.977   1.095 -0.8621 -0.3644 -0.0988
 7647TIP3    H144356   6.615   2.973   1.170 -0.2727 -2.2138 -0.6212
 7647TIP3    H244357   6.489   3.041   1.120 -1.9216 -2.4647  2.9473
 7648TIP3   OH244358   1.080   2.923  13.511 -0.7237 -0.6535  0.1014
 7648TIP3    H144359   1.009   2.862  13.530 -0.6558 -1.1633 -1.2013
 7648TIP3    H244360   1.037   3.008  13.501 -0.9525 -0.6807  0.7919
 7649TIP3   OH244361   6.399   3.649   1.501  0.2211  0.4535  1.0196
 7649TIP3    H144362   6.337   3.664   1.429 -0.3576 -1.5460  1.0299
 7649TIP3    H244363   6.351   3.675   1.580 -0.9710 -1.7195  1.1022
 7650TIP3   OH244364   1.787   6.057   6.544 -0.2409  0.0186  0.2074
 7650TIP3    H144365   1.710   6.007   6.518 -0.2550  0.4539 -0.6293
 7650TIP3    H244366   1.813   6.019   6.628 -1.6260  0.1711  0.7317
 7651TIP3   OH244367   6.696   5.910  13.489  0.5713 -0.3273  0.2846
 7651TIP3    H144368   6.756   5.892  13.417  0.8720  0.7017  0.2640
 7651TIP3    H244369   6.695   6.005  13.497 -0.1562 -0.3811  1.0548
 7652TIP3   OH244370   2.298   1.740  15.582  0.5329  0.3315  0.3629
 7652TIP3    H144371   2.259   1.767  15.499  0.9175  0.2250  0.1440
 7652TIP3    H244372   2.310   1.821  15.631  1.2859  0.5193 -0.1175
 7653TIP3   OH244373   5.426   0.252   5.095  0.0161  0.4898  0.1564
 7653TIP3    H144374   5.375   0.295   5.163  0.3112  0.7055  0.2461
 7653TIP3    H244375   5.455   0.323   5.038  0.4225  0.4040  0.2470
 7654TIP3   OH244376   1.674   1.774   0.397 -0.3238 -0.4072  0.2992
 7654TIP3    H144377   1.603   1.790   0.335 -0.6842 -0.5094  0.6825
 7654TIP3    H244378   1.747   1.826   0.364 -0.9604  0.7211  0.6101
 7655TIP3   OH244379   5.743   4.032   0.772 -0.7421 -0.5650  0.2719
 7655TIP3    H144380   5.748   4.077   0.688  0.8278 -1.2892 -0.0641
 7655TIP3    H244381   5.709   4.098   0.833  1.0927  0.9732 -0.2844
 7656TIP3   OH244382   0.191   0.427  17.107  0.3622  0.1952  0.2026
 7656TIP3    H144383   0.153   0.484  17.174 -0.1546 -0.1005  0.1598
 7656TIP3    H244384   0.286   0.436  17.120  0.2687 -0.1257  1.2050
 7657TIP3   OH244385   2.149   4.007   0.075  0.3353 -0.1705  0.0041
 7657TIP3    H144386   2.217   4.019   0.142 -1.3684  2.0309  1.4644
 7657TIP3    H244387   2.142   3.912   0.065  0.2813 -0.6454  3.4290
 7658TIP3   OH244388   5.032   6.311   3.575  0.6550 -0.2352 -0.7039
 7658TIP3    H144389   5.085   6.232   3.577  1.0020 -0.1705 -3.2967
 7658TIP3    H244390   5.060   6.357   3.495 -2.3543  0.4564 -1.5026
 7659TIP3   OH244391   5.236   6.409   3.838  0.2128 -0.0121 -0.3029
 7659TIP3    H144392   5.277   6.425   3.754  0.1725 -1.9747 -0.7359
 7659TIP3    H244393   5.142   6.420   3.822  0.1864 -0.6111 -0.5912
 7660TIP3   OH244394   3.806   6.036  15.955 -0.1433 -0.0110 -0.2022
 7660TIP3    H144395   3.839   5.981  15.884  0.3358 -0.5676  0.4409
 7660TIP3    H244396   3.728   5.989  15.986 -0.1696  0.0710 -0.1447
 7661TIP3   OH244397   6.623   0.763  11.399 -0.1931  0.5066 -0.1962
 7661TIP3    H144398   6.666   0.763  11.314  0.0778  0.5047 -0.0620
 7661TIP3    H244399   6.632   0.853  11.431 -0.7807  0.6417 -0.4115
 7662TIP3   OH244400   4.779   2.094   6.148  0.7974 -0.1802  0.1737
 7662TIP3    H144401   4.708   2.139   6.102  1.4419 -1.0104 -1.7342
 7662TIP3    H244402   4.766   2.117   6.240 -1.5335  0.2369 -0.1919
 7663TIP3   OH244403   5.893   5.932  16.553 -0.6354 -0.6887  0.6096
 7663TIP3    H144404   5.968   5.879  16.578  0.4843  0.1476 -0.7843
 7663TIP3    H244405   5.821   5.870  16.542  0.4162 -1.8191 -0.1373
 7664TIP3   OH244406   4.588   3.472  14.697  0.0111  0.0516  0.1662
 7664TIP3    H144407   4.541   3.491  14.615  2.7743 -1.6808 -2.0142
 7664TIP3    H244408   4.634   3.553  14.718 -0.4227  0.4035 -0.2189
 7665TIP3   OH244409   6.190   4.024   1.757 -0.0845  0.2382 -0.0584
 7665TIP3    H144410   6.268   4.065   1.719  0.7258 -0.0284  1.2305
 7665TIP3    H244411   6.120   4.087   1.742  0.9116  1.6905  0.9841
 7666TIP3   OH244412   2.694   0.296   5.658  0.0983 -0.2065 -0.1563
 7666TIP3    H144413   2.696   0.260   5.746 -1.6727 -1.1597 -0.4561
 7666TIP3    H244414   2.631   0.369   5.664  0.9219  0.5351 -0.3625
 7667TIP3   OH244415   1.921   1.821   0.261 -0.0254 -0.2433 -0.2159
 7667TIP3    H144416   2.011   1.834   0.231 -0.0233 -0.9328 -0.5232
 7667TIP3    H244417   1.869   1.882   0.208  0.3519  0.7961  0.5696
 7668TIP3   OH244418   3.378   5.526  10.497  0.0850  0.5039  0.0151
 7668TIP3    H144419   3.418   5.442  10.474 -2.2353 -0.1698 -1.9062
 7668TIP3    H244420   3.304   5.503  10.553  0.1389  1.3940  0.4684
 7669TIP3   OH244421   2.708   2.920  12.857  0.3868 -0.2824  0.2121
 7669TIP3    H144422   2.789   2.960  12.824  0.6087  1.3382  2.4735
 7669TIP3    H244423   2.659   2.897  12.778  2.3373  0.2011 -1.2184
 7670TIP3   OH244424   4.994   5.963  13.713  0.4238 -0.1926 -0.3553
 7670TIP3    H144425   5.080   5.939  13.746 -0.0378 -0.0728  0.9878
 7670TIP3    H244426   5.010   6.039  13.656  1.1219  0.2995  0.4823
 7671TIP3   OH244427   4.167   4.336   0.068  1.0683 -0.0019 -0.1974
 7671TIP3    H144428   4.103   4.404   0.091  0.5192 -0.7340  0.4528
 7671TIP3    H244429   4.197   4.301   0.151 -0.3700 -2.1408 -0.5166
 7672TIP3   OH244430   5.922   3.099   3.352  0.1590  0.2421 -0.3043
 7672TIP3    H144431   5.837   3.130   3.385 -0.6045 -2.0757  0.0646
 7672TIP3    H244432   5.957   3.045   3.423 -0.3796 -2.8282 -2.2025
 7673TIP3   OH244433   1.116   4.708  12.063  0.1576 -0.1040 -0.0112
 7673TIP3    H144434   1.084   4.708  11.973 -2.3615 -1.9157  0.7660
 7673TIP3    H244435   1.179   4.637  12.066 -0.4715 -0.6832 -0.1664
 7674TIP3   OH244436   5.229   3.846   2.271  0.5879 -0.6141  0.0102
 7674TIP3    H144437   5.256   3.938   2.264  0.1335 -0.2125  2.5309
 7674TIP3    H244438   5.142   3.844   2.230  0.7031  0.0312 -0.2801
 7675TIP3   OH244439   5.021   6.738   4.209  0.3668  0.1559 -0.4332
 7675TIP3    H144440   4.987   6.792   4.138 -0.0817 -0.6008 -0.8091
 7675TIP3    H244441   4.953   6.672   4.224  0.8982 -0.3007  0.0161
 7676TIP3   OH244442   2.197   5.135  13.158  0.0628 -0.5853 -0.6301
 7676TIP3    H144443   2.221   5.060  13.104 -0.1983 -0.4312 -0.9613
 7676TIP3    H244444   2.101   5.135  13.157  0.0551  0.4194 -1.5652
 7677TIP3   OH244445   0.709   6.564  16.522  0.2343 -0.2242 -0.1885
 7677TIP3    H144446   0.797   6.535  16.498  0.2064  1.2185 -2.2480
 7677TIP3    H244447   0.720   6.609  16.605  1.1409 -1.4092  0.3718
 7678TIP3   OH244448   2.229   3.812   5.637 -0.4349  0.0759 -0.3852
 7678TIP3    H144449   2.167   3.848   5.574 -1.5287 -1.9291 -0.5260
 7678TIP3    H244450   2.235   3.719   5.615  1.4936 -0.0818  0.5811
 7679TIP3   OH244451   3.529   5.542   3.149 -0.3551  0.3354  0.7071
 7679TIP3    H144452   3.566   5.588   3.073 -1.0509  1.5490  1.0804
 7679TIP3    H244453   3.595   5.552   3.218  0.6115 -1.3843  0.1176
 7680TIP3   OH244454   5.055   0.122   6.248 -0.1231  0.2842  0.2943
 7680TIP3    H144455   5.108   0.148   6.323  1.7244  0.1230 -0.9071
 7680TIP3    H244456   4.969   0.101   6.286  1.0287 -0.7717  2.5098
 7681TIP3   OH244457   2.312   1.899   0.940 -0.8834 -0.0383  0.5031
 7681TIP3    H144458   2.391   1.918   0.990 -0.5570 -0.6780  0.2479
 7681TIP3    H244459   2.259   1.846   1.000 -1.0265  0.2209  0.6037
 7682TIP3   OH244460   4.634   2.938   4.650 -0.4343  0.7624 -0.2020
 7682TIP3    H144461   4.690   3.014   4.633 -1.2793  1.7025  1.0586
 7682TIP3    H244462   4.547   2.975   4.661 -1.2041 -0.6078 -1.4266
 7683TIP3   OH244463   5.351   4.808  12.299 -0.0416 -0.0227 -0.0343
 7683TIP3    H144464   5.270   4.769  12.332  0.2897  0.6733  1.7472
 7683TIP3    H244465   5.374   4.756  12.223 -1.3103 -1.2480  0.3803
 7684TIP3   OH244466   5.907   2.585   5.794  0.2397 -0.4884 -0.3886
 7684TIP3    H144467   5.961   2.652   5.753 -0.4674 -1.0396 -2.3075
 7684TIP3    H244468   5.817   2.610   5.772 -0.1241 -1.2182  0.2173
 7685TIP3   OH244469   5.816   1.472  14.774 -0.5051 -0.4703 -0.1180
 7685TIP3    H144470   5.843   1.381  14.787 -2.2700 -1.3595 -2.0601
 7685TIP3    H244471   5.877   1.505  14.707  0.1794 -0.1601  0.6366
 7686TIP3   OH244472   4.459   2.275   3.987 -0.0151 -0.4697 -0.6668
 7686TIP3    H144473   4.521   2.327   4.038 -1.2240 -0.5694  0.9845
 7686TIP3    H244474   4.503   2.261   3.903  1.8993  0.0409  0.1901
 7687TIP3   OH244475   0.659   5.796  16.444  0.2073 -0.3308  0.2322
 7687TIP3    H144476   0.633   5.888  16.454 -3.6793 -1.1320 -0.8492
 7687TIP3    H244477   0.677   5.766  16.533 -0.1494  1.0699  0.7997
 7688TIP3   OH244478   5.356   3.529   2.221 -0.1629 -0.0607 -0.3956
 7688TIP3    H144479   5.282   3.562   2.169  1.3226  2.5294 -1.0646
 7688TIP3    H244480   5.335   3.554   2.311 -1.3229 -1.8186 -0.1366
 7689TIP3   OH244481   3.411   2.815   5.867 -0.4890  0.3083  0.5949
 7689TIP3    H144482   3.418   2.735   5.816  0.7628  1.0792 -0.5014
 7689TIP3    H244483   3.433   2.789   5.956 -0.0127 -0.5519  0.2296
 7690TIP3   OH244484   2.121   1.287  11.523  0.0823  0.1077  0.5253
 7690TIP3    H144485   2.044   1.289  11.466 -0.0492  1.4501  0.6971
 7690TIP3    H244486   2.104   1.356  11.588  0.7228 -0.6422  1.5244
 7691TIP3   OH244487   0.592   0.093   3.986 -0.0598  0.0419  0.2662
 7691TIP3    H144488   0.597   0.159   4.055 -0.9408  0.1236  0.2614
 7691TIP3    H244489   0.659   0.119   3.923  0.0547  0.5462  0.5896
 7692TIP3   OH244490   2.264   0.822   6.011 -0.0463 -0.2316  0.6868
 7692TIP3    H144491   2.354   0.789   6.005 -0.4707 -1.1016 -3.1466
 7692TIP3    H244492   2.273   0.917   6.013  1.0723 -0.0860 -3.3722
 7693TIP3   OH244493   3.470   5.338   1.303 -0.4357  0.2855 -0.9283
 7693TIP3    H144494   3.414   5.262   1.317  0.0231 -0.2762 -1.9812
 7693TIP3    H244495   3.457   5.393   1.380  0.3026 -1.5286  0.5688
 7694TIP3   OH244496   3.770   0.234  15.676 -0.0279 -0.0459 -0.2780
 7694TIP3    H144497   3.862   0.262  15.676 -0.1255  0.4601 -2.2930
 7694TIP3    H244498   3.755   0.199  15.763  1.2958  2.4489  1.0587
 7695TIP3   OH244499   3.899   5.072   3.051 -0.6283  0.1418 -0.0809
 7695TIP3    H144500   3.804   5.063   3.061 -0.7903  2.2884  0.9627
 7695TIP3    H244501   3.920   5.024   2.971 -2.3303 -1.7023  0.4887
 7696TIP3   OH244502   2.852   6.035   5.921 -0.4848  0.3512  0.4726
 7696TIP3    H144503   2.792   6.057   5.992 -0.9913  3.3088 -0.7158
 7696TIP3    H244504   2.938   6.064   5.952 -0.4470  0.2361  0.4750
 7697TIP3   OH244505   3.273   1.914  13.167  0.2366  0.4322  0.3587
 7697TIP3    H144506   3.240   1.912  13.078  0.5310  0.4732  0.2478
 7697TIP3    H244507   3.208   1.964  13.216 -1.0593 -1.3948  0.6371
 7698TIP3   OH244508   1.652   1.043   3.408 -0.1900  0.3577 -0.8394
 7698TIP3    H144509   1.725   0.999   3.364 -0.0963 -1.5947  1.0632
 7698TIP3    H244510   1.689   1.070   3.493 -1.3221  0.5622 -0.3956
 7699TIP3   OH244511   3.148   3.104   3.242  0.5550 -0.1057  0.1649
 7699TIP3    H144512   3.134   3.062   3.157  1.6172  0.9890 -0.5756
 7699TIP3    H244513   3.108   3.190   3.234 -2.6070 -1.2238  2.0488
 7700TIP3   OH244514   1.698   0.113   5.468  0.2108  0.5904 -0.2088
 7700TIP3    H144515   1.756   0.140   5.397  0.5129 -2.6749 -1.3494
 7700TIP3    H244516   1.753   0.062   5.527 -1.1524 -1.3982 -0.5689
 7701TIP3   OH244517   0.562   4.873  16.240  0.2317  0.1136  0.0130
 7701TIP3    H144518   0.542   4.958  16.200  4.1033  1.3324  0.2920
 7701TIP3    H244519   0.582   4.893  16.331  0.1294 -1.2989  0.3696
 7702TIP3   OH244520   2.043   5.564   1.862  0.1443  0.4575  0.1964
 7702TIP3    H144521   2.031   5.658   1.876  0.2836  0.4903  0.0981
 7702TIP3    H244522   2.056   5.528   1.950  0.6974  0.6184  0.1862
 7703TIP3   OH244523   3.806   4.092  17.189  0.1534  0.0448 -0.1331
 7703TIP3    H144524   3.843   4.136  17.113  0.8580 -2.7388 -1.5422
 7703TIP3    H244525   3.712   4.108  17.182  0.2042 -0.1470 -1.6400
 7704TIP3   OH244526   3.831   0.371  15.107  0.3733  0.1346 -0.3559
 7704TIP3    H144527   3.807   0.463  15.112  1.9178  0.5494  0.1069
 7704TIP3    H244528   3.911   0.370  15.053  0.0084 -1.0127 -0.9068
 7705TIP3   OH244529   5.121   4.791   1.459 -0.2364 -0.1592 -0.5214
 7705TIP3    H144530   5.124   4.821   1.368  1.4745  0.7632 -0.1853
 7705TIP3    H244531   5.191   4.727   1.465  0.9361  1.1810  0.6025
 7706TIP3   OH244532   5.353   6.631  16.268  0.0710  0.1853  0.4540
 7706TIP3    H144533   5.336   6.561  16.205  0.9543 -0.3345  0.7778
 7706TIP3    H244534   5.425   6.681  16.229  0.9258 -0.4037  1.2359
 7707TIP3   OH244535   1.991   0.338  15.000 -0.2489  0.0493 -0.1601
 7707TIP3    H144536   2.016   0.413  15.053 -0.3923 -0.6829  0.9961
 7707TIP3    H244537   2.005   0.365  14.910  2.6444  0.4159  0.3201
 7708TIP3   OH244538   5.931   2.174   4.052  0.2123 -0.2524 -0.0854
 7708TIP3    H144539   5.916   2.175   4.147 -1.4071 -0.3318 -0.3136
 7708TIP3    H244540   5.986   2.097   4.037  1.1791  0.2284  0.8705
 7709TIP3   OH244541   5.758   2.429  16.954 -0.5775 -0.3886 -0.1547
 7709TIP3    H144542   5.779   2.519  16.979  0.3643 -0.7190  0.3035
 7709TIP3    H244543   5.699   2.437  16.879 -0.9132  0.6089  0.2113
 7710TIP3   OH244544   6.261   6.015  17.218 -0.9157 -0.2176  0.3426
 7710TIP3    H144545   6.260   5.982  17.129 -1.6115  1.0223 -0.1417
 7710TIP3    H244546   6.261   5.937  17.274  2.8386 -1.1284 -0.6683
 7711TIP3   OH244547   4.143   5.140   4.976  0.5787  0.3771 -0.3373
 7711TIP3    H144548   4.084   5.136   5.052 -0.4272  2.0127 -0.9787
 7711TIP3    H244549   4.228   5.162   5.013  0.8358 -1.9174  0.5961
 7712TIP3   OH244550   5.118   2.793   0.374  0.3054  0.1937  0.1877
 7712TIP3    H144551   5.208   2.818   0.354  0.7371 -1.1495  0.3412
 7712TIP3    H244552   5.074   2.875   0.394  1.8825  0.7432  1.6155
 7713TIP3   OH244553   4.695   1.671   2.453  0.0749 -0.1615 -0.2631
 7713TIP3    H144554   4.761   1.668   2.383  0.7134 -1.6214  0.3544
 7713TIP3    H244555   4.616   1.705   2.410  1.3451  2.1836 -0.8855
 7714TIP3   OH244556   3.731   5.687  10.803 -0.4911  0.8618 -0.5032
 7714TIP3    H144557   3.675   5.668  10.728 -0.4471  1.5482 -0.7175
 7714TIP3    H244558   3.782   5.607  10.817 -2.2769 -0.2026  0.3710
 7715TIP3   OH244559   2.200   0.478   5.869  0.6354  0.1002 -0.0589
 7715TIP3    H144560   2.266   0.410   5.877  0.7347  0.2068  0.0341
 7715TIP3    H244561   2.171   0.473   5.777  2.1240  1.2974 -0.6333
 7716TIP3   OH244562   0.662   2.124  12.450  0.0001 -0.2057 -0.0705
 7716TIP3    H144563   0.567   2.113  12.456 -0.2452  0.6693 -1.8208
 7716TIP3    H244564   0.696   2.034  12.456 -0.9672 -0.5760  0.0889
 7717TIP3   OH244565   0.714   4.131   2.203 -0.1497 -0.4695  0.2564
 7717TIP3    H144566   0.691   4.185   2.278 -1.2649 -0.9249  0.2560
 7717TIP3    H244567   0.797   4.168   2.172  0.6641 -0.6542  2.0591
 7718TIP3   OH244568   6.700   5.091  14.824 -0.0297 -0.6580  0.1050
 7718TIP3    H144569   6.674   5.169  14.776  0.5900 -0.3371  0.2712
 7718TIP3    H244570   6.786   5.068  14.788  0.5465 -0.2808  1.1950
 7719TIP3   OH244571   4.189   1.101   3.694  0.8624 -0.2525  0.1301
 7719TIP3    H144572   4.178   1.048   3.773 -0.7748 -2.4292 -1.4186
 7719TIP3    H244573   4.117   1.164   3.698  1.6277  0.5950  1.0179
 7720TIP3   OH244574   2.477   4.390   2.315  0.4821  0.2743  0.1781
 7720TIP3    H144575   2.554   4.419   2.267  0.0115 -0.0614 -0.8279
 7720TIP3    H244576   2.438   4.470   2.350  1.8820  0.3477  1.6676
 7721TIP3   OH244577   4.237   6.010   2.623  0.7800  0.1001 -0.5048
 7721TIP3    H144578   4.324   6.024   2.660 -0.0941 -0.4399  1.8993
 7721TIP3    H244579   4.207   5.928   2.662 -0.9038  0.3985 -1.0988
 7722TIP3   OH244580   2.211   4.751   2.080  0.4462 -0.6228  0.6433
 7722TIP3    H144581   2.216   4.805   2.001 -1.0264 -0.8693  0.3505
 7722TIP3    H244582   2.296   4.763   2.122  0.2420  1.8277  0.5315
 7723TIP3   OH244583   5.062   4.647   5.383 -0.5037  0.3161  0.0433
 7723TIP3    H144584   5.044   4.563   5.423 -0.2395  0.0999 -0.2870
 7723TIP3    H244585   5.016   4.711   5.438  1.1283  0.2039  1.6094
 7724TIP3   OH244586   4.901   5.019   5.081 -0.1503 -0.1635  0.9355
 7724TIP3    H144587   4.947   5.095   5.045  2.0171 -2.4892 -1.6998
 7724TIP3    H244588   4.962   4.981   5.144 -0.6623 -0.4629  1.2624
 7725TIP3   OH244589   5.963   5.254   2.405  0.0137 -0.3380  0.0970
 7725TIP3    H144590   6.024   5.326   2.387  0.0491 -0.4780 -0.3449
 7725TIP3    H244591   5.967   5.243   2.500  2.2225 -1.6608 -0.0707
 7726TIP3   OH244592   2.466   2.369  15.470 -0.3207 -0.0261  0.1928
 7726TIP3    H144593   2.551   2.382  15.428  0.6722 -1.2453  1.7259
 7726TIP3    H244594   2.425   2.456  15.467  1.5538  0.9380  0.6008
 7727TIP3   OH244595   3.413   4.992   3.551  0.0089  0.5805 -0.2847
 7727TIP3    H144596   3.361   4.927   3.600  0.6382 -1.1140 -1.7451
 7727TIP3    H244597   3.358   5.070   3.550 -1.3502 -0.3128  0.5005
 7728TIP3   OH244598   3.845   3.865  11.958 -0.2463  1.0238 -0.3277
 7728TIP3    H144599   3.897   3.816  11.894  1.6051  0.5839  1.3994
 7728TIP3    H244600   3.900   3.940  11.981 -0.6619  0.9303  1.0564
 7729TIP3   OH244601   2.595   5.572  17.401 -0.1789  0.3945  0.0402
 7729TIP3    H144602   2.539   5.496  17.419 -0.1541  0.9242  2.8257
 7729TIP3    H244603   2.537   5.635  17.358 -0.2841 -1.0167 -1.9919
 7730TIP3   OH244604   2.029   0.620  15.132 -0.1344 -0.1235 -0.2245
 7730TIP3    H144605   2.074   0.655  15.055 -0.9684  0.8662 -0.2865
 7730TIP3    H244606   2.080   0.653  15.206  0.6391 -1.0347 -0.3402
 7731TIP3   OH244607   4.239   0.596  12.833 -0.6031 -0.4733  0.4615
 7731TIP3    H144608   4.289   0.648  12.770 -1.8761 -1.5693 -1.5573
 7731TIP3    H244609   4.252   0.641  12.917  1.2370  0.9924 -0.5235
 7732TIP3   OH244610   5.873   1.830   3.998 -0.0599 -0.0448  0.0247
 7732TIP3    H144611   5.874   1.866   4.087  0.9818 -1.5628  0.6768
 7732TIP3    H244612   5.933   1.756   4.002 -0.1750 -0.2925 -1.9049
 7733TIP3   OH244613   4.917   1.794  13.065 -0.0498 -0.1671 -0.3154
 7733TIP3    H144614   4.833   1.794  13.021 -0.1015  2.6794 -0.4044
 7733TIP3    H244615   4.936   1.702  13.082 -4.0977 -0.8485  1.5064
 7734TIP3   OH244616   4.879   5.785   1.109  0.3295  0.1396 -0.1766
 7734TIP3    H144617   4.785   5.783   1.127  0.3654  0.4108  0.0394
 7734TIP3    H244618   4.886   5.768   1.015  0.1209 -0.9798 -0.0056
 7735TIP3   OH244619   5.087   5.822  12.870  0.2562  0.1479  0.6824
 7735TIP3    H144620   5.081   5.756  12.800  0.0278  0.3280  0.5318
 7735TIP3    H244621   4.999   5.857  12.877  0.0440 -0.5730  1.7626
 7736TIP3   OH244622   5.636   6.104  11.885  0.0749 -0.0692  0.2299
 7736TIP3    H144623   5.650   6.132  11.795 -0.5050 -0.3326  0.0481
 7736TIP3    H244624   5.720   6.116  11.928  0.5248 -0.5113 -0.5049
 7737TIP3   OH244625   0.689   1.053   2.899 -0.4815 -0.8458  0.0755
 7737TIP3    H144626   0.697   1.029   2.806  2.2009 -1.7747  0.4863
 7737TIP3    H244627   0.656   0.974   2.941  1.2154 -1.4656  0.3150
 7738TIP3   OH244628   1.540   1.634   3.048 -0.0914  0.3721  0.0532
 7738TIP3    H144629   1.478   1.610   3.117 -1.1051 -0.2004 -1.0185
 7738TIP3    H244630   1.543   1.729   3.052 -1.2413  0.4357 -0.0146
 7739TIP3   OH244631   4.327   1.025  12.769  0.0392 -0.0789 -0.1996
 7739TIP3    H144632   4.360   1.052  12.684  0.2413  1.3257  0.3021
 7739TIP3    H244633   4.232   1.018  12.756 -0.0112  0.7986 -0.3870
 7740TIP3   OH244634   1.529   0.272   0.506  0.0287  0.7775  0.7845
 7740TIP3    H144635   1.466   0.207   0.475  1.2565 -1.0681  1.9958
 7740TIP3    H244636   1.548   0.325   0.429 -0.5452 -0.6942 -0.4230
 7741TIP3   OH244637   5.725   3.793  10.588  1.0711 -0.0306  0.2111
 7741TIP3    H144638   5.803   3.831  10.549 -0.0915  1.3783 -0.8753
 7741TIP3    H244639   5.701   3.853  10.658  0.4163  0.0800 -0.1019
 7742TIP3   OH244640   4.319   3.542   1.404 -0.2940  0.6594  0.4846
 7742TIP3    H144641   4.375   3.467   1.424 -0.2896  0.1473 -1.2607
 7742TIP3    H244642   4.379   3.610   1.375 -0.3288  1.2634  1.7500
 7743TIP3   OH244643   1.926   2.180   0.823  0.3482  0.0786  0.3415
 7743TIP3    H144644   1.949   2.161   0.914 -1.0306 -0.5007  0.5919
 7743TIP3    H244645   1.952   2.271   0.811  0.8416  0.0670  1.2174
 7744TIP3   OH244646   5.942   3.287  17.176  0.0825  0.4363  0.6218
 7744TIP3    H144647   6.003   3.216  17.195  0.5642  0.8682  0.7078
 7744TIP3    H244648   5.887   3.294  17.254 -0.3131 -0.1828  0.4075
 7745TIP3   OH244649   4.224   0.820  15.737  0.0537 -0.2687 -0.6781
 7745TIP3    H144650   4.181   0.837  15.653 -0.1331 -1.4240 -0.8403
 7745TIP3    H244651   4.318   0.819  15.716  0.2145  2.2353 -0.3286
 7746TIP3   OH244652   3.012   4.045  15.272  0.0617 -0.0065 -0.0409
 7746TIP3    H144653   2.974   3.957  15.264 -0.3574 -0.0028  1.5277
 7746TIP3    H244654   2.985   4.074  15.359 -0.9275  2.2156 -1.0199
 7747TIP3   OH244655   0.963   5.737   3.400  0.3041  0.5050  0.0619
 7747TIP3    H144656   0.978   5.648   3.367 -2.3937  0.1125 -0.3515
 7747TIP3    H244657   1.049   5.778   3.397  2.0409 -2.5916  1.9811
 7748TIP3   OH244658   0.644   4.267   1.211  0.5163 -0.5360 -0.5365
 7748TIP3    H144659   0.734   4.292   1.234  0.8011  0.6617 -2.6431
 7748TIP3    H244660   0.624   4.192   1.267  2.8039 -0.7968  0.0220
 7749TIP3   OH244661   6.513   0.373   4.415 -0.2324 -0.3973  0.5976
 7749TIP3    H144662   6.434   0.427   4.424  0.4277  0.5660  0.7865
 7749TIP3    H244663   6.485   0.286   4.441 -1.5931 -0.3920 -0.6588
 7750TIP3   OH244664   1.987   5.000   2.016 -0.3764 -0.2071 -0.7274
 7750TIP3    H144665   1.964   4.975   2.106 -1.9902  1.6623 -0.5576
 7750TIP3    H244666   2.054   5.067   2.026  0.2845 -0.8185 -0.9839
 7751TIP3   OH244667   2.105   2.844   2.486 -0.3223  0.3608  0.6697
 7751TIP3    H144668   2.145   2.931   2.488 -0.6148  0.4897  0.9557
 7751TIP3    H244669   2.178   2.785   2.465 -0.4652  0.8635 -1.4627
 7752TIP3   OH244670   3.355   6.676   0.523 -0.3455  0.2227 -0.0038
 7752TIP3    H144671   3.351   6.694   0.429 -0.4789  2.0404  0.3113
 7752TIP3    H244672   3.264   6.668   0.550 -0.3878  1.4526  0.2562
 7753TIP3   OH244673   5.195   0.779  11.698 -0.2567 -0.3959 -0.7707
 7753TIP3    H144674   5.167   0.841  11.631 -1.7172 -0.8324 -0.6033
 7753TIP3    H244675   5.130   0.788  11.768  0.5986 -0.7538  0.0938
 7754TIP3   OH244676   6.332   6.144  14.331 -0.2166  0.3554  0.4506
 7754TIP3    H144677   6.245   6.183  14.341 -0.4825  0.3083 -1.4412
 7754TIP3    H244678   6.321   6.077  14.264  1.1355 -0.1584  0.7095
 7755TIP3   OH244679   3.736   4.905  11.949 -0.3722 -0.5749 -0.6983
 7755TIP3    H144680   3.682   4.826  11.958 -2.3782  0.8794  0.9515
 7755TIP3    H244681   3.717   4.956  12.028 -0.5091  2.3607 -2.4971
 7756TIP3   OH244682   2.422   2.700  17.143 -0.1382  0.0384  0.5665
 7756TIP3    H144683   2.417   2.756  17.066 -0.1834 -2.2109 -1.1662
 7756TIP3    H244684   2.512   2.709  17.174  0.8469 -1.2759 -1.6414
 7757TIP3   OH244685   3.111   6.396  17.072  0.2300  0.3736 -0.3316
 7757TIP3    H144686   3.050   6.377  17.001  1.2783 -1.0803 -0.8889
 7757TIP3    H244687   3.143   6.310  17.100  1.1922  1.0345  0.6815
 7758TIP3   OH244688   3.263   5.341  12.350 -0.1545 -0.1131 -0.0290
 7758TIP3    H144689   3.281   5.435  12.353  2.0342 -0.5004  0.0377
 7758TIP3    H244690   3.273   5.318  12.258 -0.6437 -0.3035 -0.0381
 7759TIP3   OH244691   0.798   1.181  17.350  0.0263 -0.0693 -0.1558
 7759TIP3    H144692   0.757   1.205  17.267 -0.9968 -0.3238  0.2619
 7759TIP3    H244693   0.795   1.261  17.402  0.2462 -0.0376 -0.1884
 7760TIP3   OH244694   6.210   4.972  11.435  0.1615  0.0884 -0.1263
 7760TIP3    H144695   6.305   4.977  11.430  0.3393 -2.1520  0.3321
 7760TIP3    H244696   6.180   5.010  11.352  1.3994  1.3444 -0.0273
 7761TIP3   OH244697   4.202   6.457  15.934 -0.1992 -0.3218  0.1259
 7761TIP3    H144698   4.245   6.375  15.908  0.8102 -0.2191  1.3819
 7761TIP3    H244699   4.237   6.522  15.872  0.9670 -0.3749  0.6978
 7762TIP3   OH244700   0.639   4.061   3.727 -0.2376  0.0017 -0.0646
 7762TIP3    H144701   0.559   4.028   3.686 -0.4910 -1.8329  1.7271
 7762TIP3    H244702   0.615   4.148   3.759 -1.8993 -0.8578  1.2202
 7763TIP3   OH244703   2.398   0.868  12.273  0.6955 -0.0686 -0.2948
 7763TIP3    H144704   2.457   0.931  12.232  0.7133  0.1121  0.0036
 7763TIP3    H244705   2.447   0.786  12.276  0.7683 -0.0307 -0.4455
 7764TIP3   OH244706   1.556   2.547  12.473 -0.5660  0.5755 -0.1961
 7764TIP3    H144707   1.494   2.615  12.447 -1.6254 -0.6628 -1.0577
 7764TIP3    H244708   1.614   2.537  12.397  0.3816  1.3358  0.3945
 7765TIP3   OH244709   6.218   3.408  17.244  0.5301  0.1748 -0.1684
 7765TIP3    H144710   6.287   3.474  17.256 -1.2881  2.1446  0.0370
 7765TIP3    H244711   6.191   3.418  17.153 -0.6540  0.6643  0.2195
 7766TIP3   OH244712   0.372   3.575   2.294  0.6418 -0.0850  0.0824
 7766TIP3    H144713   0.374   3.589   2.200  1.5982 -0.6966 -0.0054
 7766TIP3    H244714   0.457   3.535   2.314  0.3182 -0.2744  1.1500
 7767TIP3   OH244715   0.759   0.076  14.343 -0.0182  0.1850  0.1130
 7767TIP3    H144716   0.774   0.078  14.248 -2.5539  0.7015 -0.3370
 7767TIP3    H244717   0.768  -0.017  14.367 -2.0135 -0.4025 -1.1703
 7768TIP3   OH244718   3.468   4.235  15.056 -0.3483 -0.7619 -0.6441
 7768TIP3    H144719   3.482   4.314  15.108 -1.7097 -1.5701  1.0888
 7768TIP3    H244720   3.405   4.261  14.989 -1.7037 -0.5761  0.6309
 7769TIP3   OH244721   1.569   5.726   2.095 -0.0729  0.5102 -0.4328
 7769TIP3    H144722   1.477   5.741   2.119 -0.4084  0.2887 -1.5440
 7769TIP3    H244723   1.578   5.631   2.091  0.4176  0.5093  0.4234
 7770TIP3   OH244724   0.852   1.647  12.936  0.2413  0.3163  0.4341
 7770TIP3    H144725   0.925   1.592  12.907  0.9675  0.7741  1.3687
 7770TIP3    H244726   0.852   1.721  12.874  0.2494  0.0698  0.1354
 7771TIP3   OH244727   0.968   4.258  17.436  0.0257 -0.3891  0.0849
 7771TIP3    H144728   0.918   4.191  17.389  0.4762 -0.8339  0.2233
 7771TIP3    H244729   0.929   4.341  17.409 -2.5324 -0.7750  2.1400
 7772TIP3   OH244730   1.357   2.972   3.482 -0.2166 -0.0401  0.5261
 7772TIP3    H144731   1.372   3.045   3.422  0.7222  0.6389  1.5561
 7772TIP3    H244732   1.428   2.911   3.464  0.1553  0.2372  1.0523
 7773TIP3   OH244733   3.047   1.858   3.697 -0.0096 -0.7275  0.4671
 7773TIP3    H144734   2.985   1.921   3.734 -0.1797  0.2697 -1.3703
 7773TIP3    H244735   3.027   1.857   3.603  0.5025 -2.9862  0.3249
 7774TIP3   OH244736   6.253   1.780   3.290 -0.2176 -0.2885  0.0734
 7774TIP3    H144737   6.322   1.732   3.244  0.0864 -0.2234  0.4544
 7774TIP3    H244738   6.298   1.820   3.365 -0.3804  0.8886 -0.4304
 7775TIP3   OH244739   4.214   6.042   3.200  0.1302  0.5741  0.1237
 7775TIP3    H144740   4.279   5.982   3.164  2.4842  2.8157  0.3931
 7775TIP3    H244741   4.238   6.050   3.293 -0.0377  2.0266  0.0539
 7776TIP3   OH244742   6.502   3.861  13.470 -0.4239 -0.3555  0.1586
 7776TIP3    H144743   6.450   3.806  13.411  0.5168 -1.1833  0.0875
 7776TIP3    H244744   6.440   3.926  13.502 -1.1114 -0.2842 -1.2370
 7777TIP3   OH244745   5.812   0.807  14.203 -0.1848 -0.6510  0.2986
 7777TIP3    H144746   5.775   0.856  14.130  0.6763  0.7149  0.7136
 7777TIP3    H244747   5.745   0.811  14.272 -0.1641 -0.1187  0.2918
 7778TIP3   OH244748   2.841   5.476   3.772 -0.1763 -0.1401 -0.4504
 7778TIP3    H144749   2.898   5.503   3.844 -0.8203 -0.2731  0.1205
 7778TIP3    H244750   2.884   5.510   3.693  0.1814  0.6167  0.0593
 7779TIP3   OH244751   3.348   3.796   0.821 -0.3301 -0.0535 -0.2384
 7779TIP3    H144752   3.328   3.888   0.836 -1.3842 -0.3565  0.3659
 7779TIP3    H244753   3.317   3.779   0.732 -0.7075  0.0416 -0.1296
 7780TIP3   OH244754   1.459   4.159  12.271  0.1537  0.1093 -0.2312
 7780TIP3    H144755   1.520   4.085  12.262  1.1256  1.1132 -2.9824
 7780TIP3    H244756   1.399   4.149  12.196  0.9889  2.6330 -1.3327
 7781TIP3   OH244757   5.590   6.556   3.920  0.3032 -0.2306 -0.7547
 7781TIP3    H144758   5.521   6.618   3.945 -0.3883 -0.5725 -1.7612
 7781TIP3    H244759   5.558   6.516   3.839  2.8543  1.5399 -2.8302
 7782TIP3   OH244760   5.265   0.700  15.419 -0.3034  0.0100  0.3230
 7782TIP3    H144761   5.258   0.620  15.471 -0.5200 -0.7237 -0.7801
 7782TIP3    H244762   5.185   0.700  15.365 -0.3138  0.9824  0.3250
 7783TIP3   OH244763   4.050   4.880  13.749 -0.4278 -0.1380 -0.0894
 7783TIP3    H144764   4.022   4.921  13.668 -2.4539 -2.2865 -0.6092
 7783TIP3    H244765   4.080   4.952  13.804 -1.0562  1.6262 -1.9386
 7784TIP3   OH244766   6.083   1.013   5.222  0.2144  0.7379  0.3888
 7784TIP3    H144767   6.152   0.986   5.283  2.1562  1.3092 -1.4188
 7784TIP3    H244768   6.046   0.930   5.189  0.1856  0.4148  1.2235
 7785TIP3   OH244769   4.501   4.794   3.487  0.1764 -0.2066 -0.2655
 7785TIP3    H144770   4.418   4.763   3.524 -0.7166  0.1673 -1.8407
 7785TIP3    H244771   4.475   4.853   3.416  1.8126  0.5978 -0.2520
 7786TIP3   OH244772   3.050   2.850  17.150 -0.2413  0.6116 -0.5051
 7786TIP3    H144773   2.996   2.825  17.074  1.2618  1.6954 -2.0117
 7786TIP3    H244774   3.088   2.935  17.126  0.2024  1.0489  1.5358
 7787TIP3   OH244775   3.758   4.399   5.495 -0.5781  0.7101 -0.1780
 7787TIP3    H144776   3.792   4.448   5.420 -0.9106  0.9162 -0.1941
 7787TIP3    H244777   3.718   4.321   5.458 -0.7699  0.8273 -0.2186
 7788TIP3   OH244778   2.128   3.007  15.551  0.1142 -0.0317 -0.4863
 7788TIP3    H144779   2.210   2.957  15.547  1.0862  1.5253 -1.0221
 7788TIP3    H244780   2.118   3.044  15.464 -0.1751  1.2850  0.0845
 7789TIP3   OH244781   3.368   6.081   2.731  0.0132 -0.1133 -0.0200
 7789TIP3    H144782   3.339   6.155   2.786  0.3824 -0.0310  0.0644
 7789TIP3    H244783   3.357   6.113   2.642  0.5822  0.2045  0.0198
 7790TIP3   OH244784   4.659   5.437   5.602 -0.6463  0.3339  0.3100
 7790TIP3    H144785   4.660   5.402   5.690  2.3139  0.7166  0.5426
 7790TIP3    H244786   4.568   5.434   5.575 -1.4615 -0.8318  2.9442
 7791TIP3   OH244787   3.584   0.157  14.138  0.0951 -0.3282 -0.2203
 7791TIP3    H144788   3.635   0.076  14.134 -1.0401 -1.1274  0.8034
 7791TIP3    H244789   3.506   0.139  14.084 -0.3587 -0.0733  0.3444
 7792TIP3   OH244790   0.345   5.753  12.641  0.1024 -0.3457  0.3125
 7792TIP3    H144791   0.373   5.672  12.684 -3.9194 -0.3833  3.4613
 7792TIP3    H244792   0.388   5.823  12.689  0.6518 -0.5106  0.0684
 7793TIP3   OH244793   6.258   0.994   2.618 -0.1899  0.3771  0.1598
 7793TIP3    H144794   6.289   0.916   2.665  0.3579  0.7020  0.3443
 7793TIP3    H244795   6.176   0.966   2.578  0.1598 -0.3912 -0.0417
 7794TIP3   OH244796   1.969   1.634  16.641 -0.2989 -0.2502  0.2008
 7794TIP3    H144797   2.054   1.635  16.596 -0.3655  2.3562 -0.0135
 7794TIP3    H244798   1.939   1.543  16.633  0.6835 -0.4240 -3.1626
 7795TIP3   OH244799   6.735   2.517  16.621 -0.0617  0.8032  0.1994
 7795TIP3    H144800   6.817   2.537  16.576  0.6278 -1.1714  0.4737
 7795TIP3    H244801   6.762   2.466  16.698 -1.4660  1.2262  1.0100
 7796TIP3   OH244802   0.140   6.692   3.083  0.7611  0.4862  0.3677
 7796TIP3    H144803   0.138   6.727   2.994 -0.3949  2.1854  0.9995
 7796TIP3    H244804   0.193   6.756   3.132  0.3266  0.2561  1.1511
 7797TIP3   OH244805   2.038   3.526  15.901 -0.3312  0.0750  0.4893
 7797TIP3    H144806   2.093   3.598  15.932 -0.3963  0.2408  0.2285
 7797TIP3    H244807   2.053   3.455  15.964 -0.4029  0.3768  0.8537
 7798TIP3   OH244808   0.801   1.960  15.157  0.3109 -0.4062 -0.0070
 7798TIP3    H144809   0.874   1.915  15.200  0.9363  1.0358  0.4784
 7798TIP3    H244810   0.785   1.908  15.078  0.9459 -1.5291  0.5774
 7799TIP3   OH244811   6.561   5.533  11.937  0.7548  0.5239 -0.3236
 7799TIP3    H144812   6.638   5.574  11.977 -0.3185  2.6306 -0.2812
 7799TIP3    H244813   6.500   5.521  12.010  0.7016 -0.3490 -0.5009
 7800TIP3   OH244814   1.772   5.137  12.248  0.5163  0.2124 -0.1030
 7800TIP3    H144815   1.706   5.206  12.259 -0.9250 -1.2970  1.1817
 7800TIP3    H244816   1.785   5.102  12.336  1.1051 -1.2586 -0.7500
 7801TIP3   OH244817   3.041   3.479   1.410 -0.4263  0.0071  0.5616
 7801TIP3    H144818   3.135   3.467   1.427  0.1519  1.1009 -1.5196
 7801TIP3    H244819   3.007   3.390   1.402  1.0866 -0.4591 -1.6618
 7802TIP3   OH244820   5.807   4.458   2.687  0.0110  0.6100  0.0687
 7802TIP3    H144821   5.825   4.552   2.688  0.4004  0.5468 -0.5291
 7802TIP3    H244822   5.894   4.417   2.692 -0.2226  0.2328  3.1949
 7803TIP3   OH244823   3.283   0.211  11.029  0.6887  0.2448 -0.4350
 7803TIP3    H144824   3.213   0.188  10.968 -1.3336  0.8296  1.5275
 7803TIP3    H244825   3.293   0.305  11.019  0.1350  0.3941  0.2832
 7804TIP3   OH244826   3.188   2.525  14.507 -0.2492 -0.0910 -0.2713
 7804TIP3    H144827   3.209   2.597  14.566  1.6909 -0.0670 -0.9397
 7804TIP3    H244828   3.266   2.514  14.453 -1.5130 -0.9255 -2.0215
 7805TIP3   OH244829   6.392   1.105  13.920  0.3368  0.2347 -0.4864
 7805TIP3    H144830   6.421   1.195  13.936  0.5005 -0.1480  1.5420
 7805TIP3    H244831   6.379   1.068  14.007 -1.2460 -1.2371 -1.3005
 7806TIP3   OH244832   3.116   6.576   5.207  0.1737 -0.2481 -0.0429
 7806TIP3    H144833   3.207   6.601   5.196  0.4843 -0.4289  1.8308
 7806TIP3    H244834   3.112   6.535   5.294 -1.5472 -0.9041 -0.3804
 7807TIP3   OH244835   3.546   6.534   0.914 -0.2339 -0.6330  0.1059
 7807TIP3    H144836   3.467   6.486   0.891 -0.1363 -0.7728  0.0620
 7807TIP3    H244837   3.515   6.617   0.951 -0.4556 -1.7530  2.5766
 7808TIP3   OH244838   3.628   6.679   0.440 -0.3772  0.1295 -0.5467
 7808TIP3    H144839   3.558   6.661   0.501 -0.0327 -1.9678 -0.6784
 7808TIP3    H244840   3.704   6.700   0.495 -0.6014  0.3925 -0.3381
 7809TIP3   OH244841   5.288   5.804  13.858 -0.2806 -0.3882  0.1070
 7809TIP3    H144842   5.239   5.788  13.939 -1.2501 -1.4814 -0.6578
 7809TIP3    H244843   5.229   5.776  13.788  0.3389  1.0015 -1.0303
 7810TIP3   OH244844   3.324   6.139   5.383  0.5117 -0.3753 -0.1396
 7810TIP3    H144845   3.275   6.099   5.311  1.0576 -0.3053 -0.5510
 7810TIP3    H244846   3.369   6.213   5.343  1.6160 -0.9264  0.0588
 7811TIP3   OH244847   3.890   1.530  16.143  0.3067 -0.0702 -0.3581
 7811TIP3    H144848   3.919   1.621  16.139 -1.2869  0.5084  0.4010
 7811TIP3    H244849   3.795   1.535  16.153  0.2737 -1.8092  0.6492
 7812TIP3   OH244850   4.515   5.183   0.310 -0.4045  0.6136 -0.2951
 7812TIP3    H144851   4.437   5.204   0.258 -0.2108 -1.9680 -1.8028
 7812TIP3    H244852   4.588   5.216   0.258 -0.2202 -1.8463 -1.7632
 7813TIP3   OH244853   1.599   1.978  16.793  0.7100  0.0667  0.2766
 7813TIP3    H144854   1.526   1.916  16.796  1.4604 -0.8953 -0.4527
 7813TIP3    H244855   1.675   1.924  16.771  1.3322  1.3101 -0.7545
 7814TIP3   OH244856   5.520   5.622  12.408  0.1482 -0.1236  0.0983
 7814TIP3    H144857   5.425   5.635  12.413  0.3412  2.3154 -0.9051
 7814TIP3    H244858   5.532   5.528  12.411 -2.3326 -0.5082 -0.0306
 7815TIP3   OH244859   3.082   4.945   4.549 -0.2371 -0.5743 -0.2872
 7815TIP3    H144860   2.992   4.930   4.521 -0.9352 -1.1872  2.1041
 7815TIP3    H244861   3.121   4.857   4.555 -0.5419 -0.6141  1.8522
 7816TIP3   OH244862   4.097   3.248   3.630  0.5160  0.3336  0.4373
 7816TIP3    H144863   4.081   3.340   3.649  0.4830  0.2856  0.6423
 7816TIP3    H244864   4.191   3.242   3.615  0.4449  0.5001 -0.1296
 7817TIP3   OH244865   2.231   5.939   2.547  0.0041  0.1418 -0.0785
 7817TIP3    H144866   2.277   5.859   2.573 -2.3999 -1.5541 -0.7479
 7817TIP3    H244867   2.195   5.974   2.629 -1.7467 -1.3805 -0.1363
 7818TIP3   OH244868   5.781   6.346  15.939 -0.1172  0.2836 -0.0828
 7818TIP3    H144869   5.695   6.389  15.933 -0.7146 -0.6001  1.5429
 7818TIP3    H244870   5.763   6.254  15.923  0.4084  0.0052  0.8350
 7819TIP3   OH244871   6.390   1.276   0.516  0.3164 -0.1937 -0.0691
 7819TIP3    H144872   6.466   1.301   0.569 -0.7971  0.0048  1.5110
 7819TIP3    H244873   6.402   1.321   0.433  0.0221  3.0707  1.5008
 7820TIP3   OH244874   1.836   3.301   2.974  0.4095  0.6796 -0.2219
 7820TIP3    H144875   1.888   3.339   3.045  1.7969  1.5770 -1.6567
 7820TIP3    H244876   1.886   3.223   2.947 -0.3824  0.0451  0.0905
 7821TIP3   OH244877   5.925   1.285  13.435 -0.0572  0.5193  0.3185
 7821TIP3    H144878   5.913   1.256  13.345  1.7754 -0.2370  0.2643
 7821TIP3    H244879   5.997   1.348  13.430  0.6833 -0.2114  1.3460
 7822TIP3   OH244880   5.707   6.092  15.866 -0.1503 -0.0535  0.2272
 7822TIP3    H144881   5.709   6.112  15.772 -0.5182  0.7957  0.3964
 7822TIP3    H244882   5.667   6.005  15.871 -0.8521  0.2312 -0.3503
 7823TIP3   OH244883   2.769   5.719   2.991  0.1959 -0.0375 -0.1482
 7823TIP3    H144884   2.753   5.730   2.898  3.4870  2.2573 -0.6204
 7823TIP3    H244885   2.858   5.685   2.997 -0.0834 -0.5908  2.2045
 7824TIP3   OH244886   0.518   3.427   3.562 -0.3054 -0.7455 -0.6011
 7824TIP3    H144887   0.428   3.397   3.578 -0.7659  0.4638 -0.8275
 7824TIP3    H244888   0.511   3.486   3.487  0.4771  0.3032  0.1141
 7825TIP3   OH244889   3.881   3.351   1.797  0.2597  0.3734  0.1994
 7825TIP3    H144890   3.884   3.444   1.776 -0.6275  0.3504 -0.0614
 7825TIP3    H244891   3.898   3.306   1.714  1.9284  0.2851  0.5504
 7826TIP3   OH244892   5.077   1.420  14.546  0.0447  0.0020 -0.0685
 7826TIP3    H144893   5.086   1.352  14.613 -2.2889 -2.6125 -2.1389
 7826TIP3    H244894   4.983   1.437  14.541 -0.0560 -0.7793 -3.3129
 7827TIP3   OH244895   5.039   2.289   3.449  0.0301 -0.1589 -0.2534
 7827TIP3    H144896   5.126   2.298   3.411 -0.0030  0.0180 -0.2879
 7827TIP3    H244897   4.980   2.291   3.375 -0.1355  1.5321 -0.1266
 7828TIP3   OH244898   6.073   3.714   0.899  0.1333  0.4231 -0.6011
 7828TIP3    H144899   6.064   3.723   0.994  0.7077 -1.6022 -0.3168
 7828TIP3    H244900   6.140   3.779   0.875  1.7172 -0.6383  0.7547
 7829TIP3   OH244901   4.729   3.346   1.822  0.0728  0.0971 -0.2081
 7829TIP3    H144902   4.657   3.318   1.766 -0.4351 -1.6800  1.2363
 7829TIP3    H244903   4.749   3.269   1.876  1.4494  1.2989  1.0857
 7830TIP3   OH244904   3.007   6.548   3.735 -0.1436  0.4663  0.2246
 7830TIP3    H144905   2.987   6.523   3.645 -0.7379 -0.7438  0.6600
 7830TIP3    H244906   3.081   6.608   3.728 -0.9878  1.4049 -1.1464
 7831TIP3   OH244907   1.769   0.602  12.196  0.7489  0.1393 -0.5185
 7831TIP3    H144908   1.825   0.526  12.209  0.1059 -0.3112 -0.3119
 7831TIP3    H244909   1.683   0.574  12.230  1.4823  2.4689  3.9235
 7832TIP3   OH244910   1.427   4.110  15.701 -0.4160 -0.1086 -0.1711
 7832TIP3    H144911   1.469   4.048  15.761 -1.6860 -1.7839 -0.9262
 7832TIP3    H244912   1.387   4.175  15.758  0.3152 -0.3836  0.6889
 7833TIP3   OH244913   0.482   6.576   4.295  0.1438 -0.1822 -0.3501
 7833TIP3    H144914   0.406   6.545   4.344  1.0625 -0.9056  0.6416
 7833TIP3    H244915   0.507   6.502   4.240 -0.8229  0.5894 -1.9015
 7834TIP3   OH244916   0.771   0.644   0.910 -0.0482 -0.6180 -0.2547
 7834TIP3    H144917   0.818   0.672   0.989  0.3732 -0.3961 -0.5835
 7834TIP3    H244918   0.722   0.721   0.882 -0.5112 -0.8080  0.0061
 7835TIP3   OH244919   4.100   2.955  12.788  0.5760 -0.8952  0.1758
 7835TIP3    H144920   4.146   2.967  12.705  0.7793 -0.5488  0.3354
 7835TIP3    H244921   4.164   2.978  12.855 -0.0981  0.5322  0.3676
 7836TIP3   OH244922   4.298   5.931  11.500 -0.2667 -0.6959 -0.6358
 7836TIP3    H144923   4.251   5.850  11.478  0.4310 -1.0608 -0.8309
 7836TIP3    H244924   4.306   5.977  11.417  2.8932 -2.3531 -1.4344
 7837TIP3   OH244925   3.325   3.821   4.519 -0.2338  0.0155  0.4225
 7837TIP3    H144926   3.370   3.777   4.591 -1.4662 -0.5278  0.8764
 7837TIP3    H244927   3.393   3.832   4.452  0.3705 -1.5604  0.7366
 7838TIP3   OH244928   0.129   3.045  14.113  0.1005 -0.3932  0.3997
 7838TIP3    H144929   0.036   3.064  14.124  0.1054 -0.6396  0.8858
 7838TIP3    H244930   0.131   2.955  14.082  0.0725  0.3659 -1.9945
 7839TIP3   OH244931   6.100   5.547  16.049 -0.1871  0.3351 -0.3717
 7839TIP3    H144932   6.077   5.491  15.975  1.8978  0.2543 -1.0278
 7839TIP3    H244933   6.095   5.489  16.125 -1.5257  0.1987 -0.5504
 7840TIP3   OH244934   1.409   3.131  10.937 -0.3390  0.2290 -0.8930
 7840TIP3    H144935   1.356   3.079  10.878  1.3424 -1.0709 -1.3253
 7840TIP3    H244936   1.347   3.191  10.979 -2.2330 -1.6795 -0.8530
 7841TIP3   OH244937   6.698   4.050   0.658  0.0908 -0.0779 -0.2028
 7841TIP3    H144938   6.605   4.073   0.660 -0.0541 -0.4606 -1.5641
 7841TIP3    H244939   6.716   4.014   0.745 -0.2210  2.9415  1.2452
 7842TIP3   OH244940   5.117   4.024   5.411 -0.5112 -0.7841 -0.6579
 7842TIP3    H144941   5.092   4.073   5.333 -0.5830 -1.3555 -1.0042
 7842TIP3    H244942   5.145   4.090   5.474 -0.2753 -0.3305 -1.2352
 7843TIP3   OH244943   2.578   6.629   0.393 -0.5531  0.3732  0.1026
 7843TIP3    H144944   2.496   6.664   0.358 -1.2770 -0.5656  0.8134
 7843TIP3    H244945   2.552   6.555   0.447  0.5419  1.3898  2.1574
 7844TIP3   OH244946   4.138   1.336   2.693  0.6739 -0.3834  0.1476
 7844TIP3    H144947   4.061   1.310   2.742  0.3082 -0.1853 -0.3100
 7844TIP3    H244948   4.107   1.405   2.634  0.6541 -1.8540 -1.6815
 7845TIP3   OH244949   1.487   6.684   1.784 -0.1434  0.2322 -0.1080
 7845TIP3    H144950   1.394   6.679   1.804 -0.1493  1.3089  0.1850
 7845TIP3    H244951   1.509   6.597   1.751 -1.5921  0.3914 -1.6600
 7846TIP3   OH244952   1.110   6.291   4.106  0.6242  0.0868 -0.0730
 7846TIP3    H144953   1.027   6.270   4.149  1.0991  0.3177  1.0020
 7846TIP3    H244954   1.092   6.369   4.054 -0.8050 -1.9895 -2.9803
 7847TIP3   OH244955   6.188   0.353   1.241 -0.0701 -0.2305 -0.0903
 7847TIP3    H144956   6.094   0.333   1.244 -0.2583  0.7071  0.7508
 7847TIP3    H244957   6.215   0.329   1.153 -1.2251  0.0513 -0.5343
 7848TIP3   OH244958   0.490   2.447   2.851 -0.3637  0.2210 -0.0417
 7848TIP3    H144959   0.421   2.384   2.829  1.4219 -1.6687 -0.5853
 7848TIP3    H244960   0.522   2.418   2.936  0.7507  0.1419 -0.4825
 7849TIP3   OH244961   4.608   5.612   2.121 -0.1607 -0.6258 -0.1577
 7849TIP3    H144962   4.662   5.540   2.089 -0.2854 -1.3362  1.1525
 7849TIP3    H244963   4.652   5.640   2.201  0.2475  1.2158 -0.9747
 7850TIP3   OH244964   6.205   5.801   3.976 -0.4004 -0.5798 -0.5518
 7850TIP3    H144965   6.196   5.744   4.053 -0.2420 -1.1271 -0.9336
 7850TIP3    H244966   6.162   5.882   4.002 -3.1203 -1.7741 -0.9553
 7851TIP3   OH244967   1.931   1.822  16.934  0.1685 -0.4203  0.6352
 7851TIP3    H144968   1.879   1.890  16.891  0.5163 -1.3844 -1.3994
 7851TIP3    H244969   1.879   1.742  16.925  0.3658 -0.7105  1.8386
 7852TIP3   OH244970   3.287   0.788  15.933 -0.6833 -0.5860 -0.7308
 7852TIP3    H144971   3.365   0.844  15.936 -2.4727  2.0739  1.1862
 7852TIP3    H244972   3.239   0.817  15.856 -0.9598 -0.4597 -0.5113
 7853TIP3   OH244973   0.651   4.154  12.528 -0.1031  0.1900 -0.2619
 7853TIP3    H144974   0.652   4.247  12.548 -0.8966 -0.2504  2.0608
 7853TIP3    H244975   0.563   4.137  12.496  0.5770  0.5104 -2.5150
 7854TIP3   OH244976   6.420   4.359  10.956 -0.4010  0.5328  0.0946
 7854TIP3    H144977   6.487   4.334  10.893 -1.5660  0.3917 -1.1259
 7854TIP3    H244978   6.452   4.442  10.993  0.8443  0.0321  0.1812
 7855TIP3   OH244979   4.485   5.308   0.574 -0.0167  0.6364 -0.3866
 7855TIP3    H144980   4.438   5.295   0.492 -0.2729 -0.4217 -0.0817
 7855TIP3    H244981   4.571   5.269   0.558  0.4199  1.6340 -0.5884
 7856TIP3   OH244982   2.705   0.882   4.491 -0.4210 -0.1075  0.3410
 7856TIP3    H144983   2.609   0.882   4.490 -0.4720  1.5862 -1.9282
 7856TIP3    H244984   2.730   0.877   4.399  1.7042 -0.1810  0.8661
 7857TIP3   OH244985   0.644   6.389  13.942 -0.4668 -0.4120  0.2904
 7857TIP3    H144986   0.556   6.410  13.973 -0.7194 -1.0198  0.0028
 7857TIP3    H244987   0.702   6.442  13.997 -1.1178  2.4418 -1.5817
 7858TIP3   OH244988   4.752   6.277  16.811  0.4951 -0.2370  0.1000
 7858TIP3    H144989   4.811   6.304  16.882  1.8802  0.9414 -1.4206
 7858TIP3    H244990   4.805   6.216  16.759 -1.3180 -3.1194  1.3476
 7859TIP3   OH244991   3.037   5.355   1.532  0.3698 -0.2372 -0.7210
 7859TIP3    H144992   3.123   5.343   1.573 -0.4341  0.9187  1.4685
 7859TIP3    H244993   3.052   5.418   1.462  1.3150 -0.1731 -0.4717
 7860TIP3   OH244994   3.587   3.255  13.533  0.5665  0.0507 -0.1393
 7860TIP3    H144995   3.662   3.198  13.517  1.4774  1.3213 -0.5373
 7860TIP3    H244996   3.625   3.335  13.569 -0.6136  0.6833 -0.2530
 7861TIP3   OH244997   2.011   3.689   1.083 -0.1718 -0.0721 -0.2761
 7861TIP3    H144998   1.970   3.667   1.000 -0.1422 -0.3754 -0.2097
 7861TIP3    H244999   1.940   3.684   1.147 -0.3131  0.6802 -0.3587
 7862TIP3   OH245000   2.415   1.305   1.900 -0.0276 -0.0029 -0.2385
 7862TIP3    H145001   2.413   1.399   1.918 -3.0798  0.2372 -1.1438
 7862TIP3    H245002   2.427   1.264   1.986  1.5204  1.1761  0.1437
 7863TIP3   OH245003   2.064   5.173   5.171 -0.1790 -0.4447  0.4820
 7863TIP3    H145004   2.126   5.122   5.118  0.9155  0.5946  0.7082
 7863TIP3    H245005   2.003   5.209   5.108  0.0854 -0.6261  0.1175
 7864TIP3   OH245006   5.086   0.948  15.958 -0.2450 -0.2373  0.3201
 7864TIP3    H145007   5.121   1.032  15.987 -0.1621 -0.2601  0.2863
 7864TIP3    H245008   4.994   0.950  15.985 -0.1625 -0.2690  0.6130
 7865TIP3   OH245009   6.467   3.626  16.322 -0.1161 -0.3495  0.3943
 7865TIP3    H145010   6.420   3.700  16.360  1.1942  0.9807 -0.4681
 7865TIP3    H245011   6.453   3.635  16.227  1.4031 -0.2214  0.1569
 7866TIP3   OH245012   3.311   5.691  16.477 -0.1309  0.2462 -0.3424
 7866TIP3    H145013   3.252   5.617  16.493  0.1491  0.2800  0.9566
 7866TIP3    H245014   3.344   5.715  16.564  0.0710  1.6623 -0.7776
 7867TIP3   OH245015   1.197   1.976   3.513  0.0767 -0.0646 -0.0027
 7867TIP3    H145016   1.259   1.924   3.462 -0.6815 -0.5650 -0.4291
 7867TIP3    H245017   1.125   1.916   3.532  0.3493  0.0793  1.7237
 7868TIP3   OH245018   1.230   3.166  11.248 -0.0971  0.3165  0.2524
 7868TIP3    H145019   1.313   3.204  11.277 -0.3860  1.1999 -0.0440
 7868TIP3    H245020   1.225   3.187  11.155  0.3706 -1.6619 -0.2667
 7869TIP3   OH245021   2.418   0.452   0.656  0.2037  0.2745  0.7819
 7869TIP3    H145022   2.429   0.357   0.651 -0.8096  0.1378  1.0028
 7869TIP3    H245023   2.341   0.465   0.710  0.0633  1.2166  0.3765
 7870TIP3   OH245024   1.185   3.163  14.268  0.4504  0.0126  0.0380
 7870TIP3    H145025   1.275   3.188  14.286  0.2212  0.6915  0.2897
 7870TIP3    H245026   1.180   3.070  14.292  0.6254  0.4209  1.7393
 7871TIP3   OH245027   3.857   3.538   6.102  0.1572  0.0802 -0.3449
 7871TIP3    H145028   3.930   3.536   6.039  1.8300  0.8068  1.4588
 7871TIP3    H245029   3.854   3.449   6.137  0.1145  0.0283 -0.4769
 7872TIP3   OH245030   0.997   5.570  13.817 -0.1355 -0.0771  0.0785
 7872TIP3    H145031   1.009   5.561  13.911 -1.0519  0.4334  0.2585
 7872TIP3    H245032   0.979   5.663  13.804  0.1409 -0.1161 -0.6167
 7873TIP3   OH245033   6.104   2.499  11.786  0.2871 -0.4822 -0.3789
 7873TIP3    H145034   6.076   2.559  11.717  1.4649 -0.2464 -0.6800
 7873TIP3    H245035   6.197   2.486  11.770  0.9105  0.5707  1.8884
 7874TIP3   OH245036   0.119   1.245   4.913 -0.5479  0.5856 -0.3606
 7874TIP3    H145037   0.042   1.269   4.964  0.1416  0.3172  0.8244
 7874TIP3    H245038   0.114   1.150   4.904 -1.0839  0.7058 -1.4968
 7875TIP3   OH245039   4.566   1.390   1.448  0.4722  0.5840  0.1830
 7875TIP3    H145040   4.481   1.422   1.420  1.0806  0.0751 -2.5470
 7875TIP3    H245041   4.629   1.439   1.395  1.7606 -0.3021  0.8288
 7876TIP3   OH245042   2.193   4.992  15.153 -0.1405 -0.2694  0.2444
 7876TIP3    H145043   2.199   4.898  15.169  2.2536 -0.7272 -2.5634
 7876TIP3    H245044   2.284   5.023  15.158 -0.5106  1.3288 -1.5935
 7877TIP3   OH245045   2.801   5.357  14.086  0.2475 -0.2951 -0.0685
 7877TIP3    H145046   2.795   5.268  14.052 -0.3857 -0.9511  1.6275
 7877TIP3    H245047   2.712   5.392  14.077  0.1866 -0.3088  0.4315
 7878TIP3   OH245048   0.251   3.127  15.944 -0.2643 -0.6223  0.1061
 7878TIP3    H145049   0.325   3.184  15.966 -1.1717  1.9909 -2.8044
 7878TIP3    H245050   0.174   3.184  15.952 -1.5389 -2.1751 -0.5381
 7879TIP3   OH245051   6.036   3.007   2.352  0.0252  0.0015  0.3542
 7879TIP3    H145052   6.059   3.096   2.380 -0.5821  0.0292  0.7937
 7879TIP3    H245053   5.968   3.019   2.287  1.7028 -0.0502 -1.5127
 7880TIP3   OH245054   5.352   2.977   1.581  0.3138 -0.4378 -0.3427
 7880TIP3    H145055   5.354   2.893   1.535 -1.4708 -1.0718  0.6259
 7880TIP3    H245056   5.392   2.958   1.666  1.4665  0.1380 -0.7446
 7881TIP3   OH245057   0.487   1.651   5.437  0.8332  0.2207  0.4773
 7881TIP3    H145058   0.564   1.644   5.381  0.1682  1.5441 -0.6604
 7881TIP3    H245059   0.510   1.720   5.500  0.5455  0.7111  0.0527
 7882TIP3   OH245060   1.824   5.950  16.155 -0.3215  0.4494 -0.5073
 7882TIP3    H145061   1.853   5.865  16.190 -2.3443  0.0997  0.4766
 7882TIP3    H245062   1.859   6.014  16.217  0.3277  0.2474 -0.6616
 7883TIP3   OH245063   4.849   5.948   1.520  0.2269 -0.6012  0.1864
 7883TIP3    H145064   4.819   6.004   1.593  0.7891  1.3494 -1.0054
 7883TIP3    H245065   4.770   5.902   1.493 -0.1642 -0.7787  1.5144
 7884TIP3   OH245066   1.519   4.959  17.485 -0.2499  0.4713  0.3744
 7884TIP3    H145067   1.484   5.048  17.481  1.0394  1.0133  0.5672
 7884TIP3    H245068   1.610   4.971  17.512 -0.0472 -0.9127  0.3574
 7885TIP3   OH245069   0.812   0.519   5.273  0.3189  0.1987 -0.4057
 7885TIP3    H145070   0.748   0.560   5.331  0.8973  0.1415  0.2934
 7885TIP3    H245071   0.812   0.574   5.195 -0.8725 -0.0366 -0.5907
 7886TIP3   OH245072   4.032   1.929   3.369 -0.1695 -0.2841 -0.4636
 7886TIP3    H145073   4.110   1.962   3.324  1.3618 -1.0083  1.5077
 7886TIP3    H245074   4.019   1.841   3.334  0.4530 -0.4946 -0.1847
 7887TIP3   OH245075   3.315   1.434   3.359  0.0911  0.1380 -0.1986
 7887TIP3    H145076   3.386   1.462   3.418 -0.2339  0.3130  0.1155
 7887TIP3    H245077   3.312   1.503   3.292  0.1584  0.1786 -0.1603
 7888TIP3   OH245078   2.214   1.925  14.078 -0.4630  0.7645  0.7547
 7888TIP3    H145079   2.250   1.999  14.030 -0.8007  0.3680 -0.1424
 7888TIP3    H245080   2.149   1.887  14.018 -2.7762  1.7667  2.5047
 7889TIP3   OH245081   3.562   3.414   1.732 -0.3194 -0.8621  0.8091
 7889TIP3    H145082   3.554   3.373   1.646 -1.1005  0.2238  0.3406
 7889TIP3    H245083   3.473   3.415   1.767 -0.3988  0.7728  0.6287
 7890TIP3   OH245084   3.811   6.465   2.388 -0.2117 -0.4548  0.1060
 7890TIP3    H145085   3.783   6.547   2.429 -0.0484 -1.1443  1.6670
 7890TIP3    H245086   3.887   6.437   2.439 -0.1001 -1.4460 -0.5694
 7891TIP3   OH245087   2.761   1.538   0.904  0.2096 -0.0511  0.1029
 7891TIP3    H145088   2.733   1.467   0.847 -1.3997  0.6864 -0.0823
 7891TIP3    H245089   2.772   1.613   0.844 -0.0497  0.3577  0.5657
 7892TIP3   OH245090   0.633   2.413  14.262 -0.5458 -0.4645 -0.1630
 7892TIP3    H145091   0.616   2.507  14.268 -1.8075 -0.7626  2.0762
 7892TIP3    H245092   0.727   2.405  14.273 -0.2987  0.5677 -1.2947
 7893TIP3   OH245093   0.584   4.055  14.136  0.4161  0.1185 -0.1077
 7893TIP3    H145094   0.648   4.000  14.092 -0.6432 -0.4840 -0.9493
 7893TIP3    H245095   0.499   4.028  14.100 -0.1353  2.5238 -0.8397
 7894TIP3   OH245096   2.703   2.411  10.818 -0.0582 -0.0613 -0.7172
 7894TIP3    H145097   2.752   2.477  10.867  0.4326 -0.5165 -0.5876
 7894TIP3    H245098   2.722   2.329  10.863 -1.6774 -0.1342 -0.1020
 7895TIP3   OH245099   6.462   5.273  16.717 -0.2584 -0.5293 -0.1068
 7895TIP3    H145100   6.470   5.182  16.744 -1.2222 -0.6492 -0.1935
 7895TIP3    H245101   6.472   5.323  16.798  3.5118 -0.4581 -0.4206
 7896TIP3   OH245102   2.199   4.653   1.121 -0.0156 -0.0694  0.7186
 7896TIP3    H145103   2.120   4.599   1.109  0.2615 -0.2708 -0.3457
 7896TIP3    H245104   2.260   4.595   1.166 -0.2957 -0.0866  1.0810
 7897TIP3   OH245105   4.874   1.930  15.274 -0.8031 -0.5101 -0.0474
 7897TIP3    H145106   4.787   1.949  15.310 -1.1314 -2.7886  0.5837
 7897TIP3    H245107   4.929   1.921  15.351 -0.2425 -0.1004 -0.4000
 7898TIP3   OH245108   3.214   4.258  16.434  0.0548  0.4922  0.6652
 7898TIP3    H145109   3.183   4.331  16.381 -0.3180 -0.4948 -0.5238
 7898TIP3    H245110   3.182   4.180  16.389  1.8821 -0.4776  0.9479
 7899TIP3   OH245111   2.859   2.913   3.166  0.6816  0.5922 -0.4115
 7899TIP3    H145112   2.880   2.941   3.255 -1.6192  0.5460  0.1911
 7899TIP3    H245113   2.874   2.991   3.113  2.3000  0.5602 -0.0756
 7900TIP3   OH245114   4.697   5.657   2.365  0.3907  0.6175  0.5919
 7900TIP3    H145115   4.777   5.612   2.392 -0.5133 -1.5642 -0.1297
 7900TIP3    H245116   4.698   5.740   2.414  1.9959 -0.2894  2.2212
 7901TIP3   OH245117   6.693   2.181   6.654 -0.0479  0.1870  0.2899
 7901TIP3    H145118   6.645   2.104   6.684 -1.7575  1.5138  1.1536
 7901TIP3    H245119   6.758   2.197   6.722  1.0374 -1.0679 -0.4142
 7902TIP3   OH245120   6.006   0.543   5.114 -0.2085  0.2544  0.4171
 7902TIP3    H145121   5.969   0.469   5.066 -0.7600 -0.1042  1.3713
 7902TIP3    H245122   6.100   0.539   5.093 -0.2871 -0.4762  0.1459
 7903TIP3   OH245123   4.836   5.212  14.038 -0.2990 -0.4210 -0.0938
 7903TIP3    H145124   4.837   5.215  13.942 -0.7923 -0.5584 -0.1062
 7903TIP3    H245125   4.846   5.119  14.059 -4.8688 -1.1634 -0.1383
 7904TIP3   OH245126   1.383   0.483  13.714 -0.3510 -0.7069  0.2286
 7904TIP3    H145127   1.419   0.563  13.675  0.8977 -1.3628 -0.0304
 7904TIP3    H245128   1.405   0.490  13.807 -1.4308 -0.1386  0.4511
 7905TIP3   OH245129   0.306   0.297  13.916 -0.3115 -0.0699 -0.1069
 7905TIP3    H145130   0.286   0.391  13.912  1.0956  0.2582 -0.1399
 7905TIP3    H245131   0.392   0.290  13.874 -0.5979 -1.4472 -0.5050
 7906TIP3   OH245132   0.963   4.887   3.210 -0.5465  0.3649 -0.2639
 7906TIP3    H145133   0.992   4.818   3.151  0.3952  1.2737 -0.9043
 7906TIP3    H245134   0.903   4.940   3.157  1.8871  2.4112 -1.2114
 7907TIP3   OH245135   5.214   6.419  14.122  0.1296  0.2867 -0.4986
 7907TIP3    H145136   5.143   6.483  14.131 -1.1928 -1.3235  1.5554
 7907TIP3    H245137   5.175   6.347  14.072  0.9422  0.1650 -0.9801
 7908TIP3   OH245138   5.709   4.868  14.639 -0.2876 -0.1361 -0.1248
 7908TIP3    H145139   5.684   4.863  14.546 -0.6867  0.1955 -0.0365
 7908TIP3    H245140   5.626   4.873  14.686 -0.0731  1.2683  0.1564
 7909TIP3   OH245141   2.153   1.349   3.344 -0.3046 -0.3054 -0.0890
 7909TIP3    H145142   2.198   1.264   3.342  0.5171  0.0557  1.2519
 7909TIP3    H245143   2.203   1.400   3.408 -0.9378  1.1106 -0.6819
 7910TIP3   OH245144   5.406   5.150  17.363  0.0431 -0.6468 -0.7043
 7910TIP3    H145145   5.340   5.083  17.382 -1.0577  0.7014  0.4380
 7910TIP3    H245146   5.356   5.231  17.353  1.5646  0.5213  0.7302
 7911TIP3   OH245147   6.214   2.799   4.793 -0.0790 -0.5250  0.3642
 7911TIP3    H145148   6.183   2.711   4.816  0.8074 -1.0514 -0.3654
 7911TIP3    H245149   6.309   2.791   4.793 -0.0088  0.1230 -0.8484
 7912TIP3   OH245150   6.472   5.701   3.924 -0.6987 -0.9610 -0.5464
 7912TIP3    H145151   6.386   5.738   3.946  0.3426  0.2129  1.9299
 7912TIP3    H245152   6.501   5.753   3.849 -0.4324  1.5878  1.1896
 7913TIP3   OH245153   1.514   3.215   5.892 -0.4777  0.4565 -0.4557
 7913TIP3    H145154   1.522   3.176   5.979  1.7004 -0.5307 -1.0189
 7913TIP3    H245155   1.522   3.309   5.906  1.8024  0.2065  0.3031
 7914TIP3   OH245156   6.687   4.605   4.767 -0.9355  0.3977  0.2770
 7914TIP3    H145157   6.619   4.652   4.816 -1.7532  2.2139 -2.3616
 7914TIP3    H245158   6.648   4.589   4.681  1.1258 -0.7401 -0.5193
 7915TIP3   OH245159   6.256   4.672  10.825 -0.1880 -0.8525  0.2350
 7915TIP3    H145160   6.227   4.761  10.807 -3.5174 -1.6241  1.0878
 7915TIP3    H245161   6.352   4.678  10.829 -0.3189  2.8514  1.2739
 7916TIP3   OH245162   3.725   5.019  10.971  0.3722  0.0892 -0.0108
 7916TIP3    H145163   3.784   5.047  10.900  0.9043 -1.1496 -0.0736
 7916TIP3    H245164   3.656   4.971  10.927  1.2679 -1.6255  0.3558
 7917TIP3   OH245165   6.532   3.290  17.146  0.4043 -0.1979 -0.2806
 7917TIP3    H145166   6.491   3.245  17.072  0.8640  0.3221 -0.8651
 7917TIP3    H245167   6.501   3.380  17.138 -1.3964 -0.5962  1.5192
 7918TIP3   OH245168   5.519   5.662  12.006 -0.1432  0.1301  0.6215
 7918TIP3    H145169   5.505   5.577  11.963 -0.8176  1.1511 -1.2744
 7918TIP3    H245170   5.614   5.669  12.014 -0.0135 -0.2153 -0.4720
 7919TIP3   OH245171   4.719   3.782  16.860  0.0064  0.4204 -0.1549
 7919TIP3    H145172   4.812   3.803  16.845  0.4945 -1.1245  0.5686
 7919TIP3    H245173   4.676   3.868  16.864  0.9418  1.1351 -3.1395
 7920TIP3   OH245174   0.646   4.974  12.688  0.2455 -0.0642 -0.6816
 7920TIP3    H145175   0.567   4.931  12.656 -0.3952  2.2850 -2.5595
 7920TIP3    H245176   0.713   4.953  12.623  0.7453 -0.7342  0.0428
 7921TIP3   OH245177   2.645   4.807  14.562  0.7953  0.8471  0.3075
 7921TIP3    H145178   2.716   4.757  14.603  1.3014  2.2914  1.2770
 7921TIP3    H245179   2.565   4.761  14.586  1.2950  0.0763  0.5203
 7922TIP3   OH245180   1.316   3.552  14.129 -0.4442  0.6548  0.0727
 7922TIP3    H145181   1.244   3.611  14.150  0.7321  2.1858  0.0148
 7922TIP3    H245182   1.333   3.504  14.210 -0.0675  1.9333  0.7851
 7923TIP3   OH245183   3.074   5.735  10.730  0.3630 -0.4161 -0.1540
 7923TIP3    H145184   3.060   5.828  10.751  1.8093  0.0428 -1.0706
 7923TIP3    H245185   2.989   5.694  10.748  0.0757  0.8046  1.6483
 7924TIP3   OH245186   4.543   3.936  14.601  0.3021  0.4623  0.3955
 7924TIP3    H145187   4.503   3.965  14.519 -0.0250 -0.5860  0.1798
 7924TIP3    H245188   4.549   4.016  14.653  1.5305  1.3740 -1.0542
 7925TIP3   OH245189   3.674   1.111   4.531  0.3941  0.3641  0.4915
 7925TIP3    H145190   3.682   1.057   4.452 -0.9985 -0.6973  1.0288
 7925TIP3    H245191   3.721   1.191   4.510  0.3702 -0.0466 -1.2815
 7926TIP3   OH245192   0.620   0.656  13.317  0.2315  0.1693  0.0209
 7926TIP3    H145193   0.579   0.613  13.242 -0.6396  1.0569 -0.0205
 7926TIP3    H245194   0.601   0.749  13.306  2.0192  0.5952  0.1545
 7927TIP3   OH245195   5.194   3.516  13.980 -0.9563 -0.0050  0.2463
 7927TIP3    H145196   5.104   3.549  13.978 -0.5717  1.0436 -0.4535
 7927TIP3    H245197   5.189   3.432  13.934 -1.2308  1.0202 -1.7173
 7928TIP3   OH245198   5.966   2.346  13.018  0.2784  0.2540  0.8575
 7928TIP3    H145199   6.013   2.420  13.054  0.3386 -0.4664  2.3138
 7928TIP3    H245200   5.886   2.384  12.982  2.4227  1.7263 -2.9761
 7929TIP3   OH245201   2.691   2.336   1.631  0.9095  0.1973 -0.2093
 7929TIP3    H145202   2.704   2.378   1.546 -2.1775 -0.4027 -1.0915
 7929TIP3    H245203   2.596   2.327   1.639  0.8963  1.9438  4.1638
 7930TIP3   OH245204   3.893   6.052  14.493 -0.4027 -0.5070 -0.0466
 7930TIP3    H145205   3.877   5.989  14.422  0.0320 -0.1918 -0.4292
 7930TIP3    H245206   3.956   6.008  14.550 -1.8084 -1.3316  0.9110
 7931TIP3   OH245207   5.535   5.786  14.400 -0.1343 -0.1881 -0.9426
 7931TIP3    H145208   5.604   5.779  14.466 -0.4800 -1.6883 -0.6922
 7931TIP3    H245209   5.577   5.827  14.325  0.5541  0.5454 -0.1808
 7932TIP3   OH245210   2.992   5.999   4.206 -0.0640 -0.7215 -0.2139
 7932TIP3    H145211   2.972   6.088   4.233  1.1083 -0.5053  0.0188
 7932TIP3    H245212   2.950   5.943   4.271 -0.7311 -0.3412 -0.3122
 7933TIP3   OH245213   5.227   4.080  14.416  0.6462 -0.4208  0.4873
 7933TIP3    H145214   5.307   4.029  14.409  0.5587 -0.4118 -1.0316
 7933TIP3    H245215   5.256   4.169  14.438  1.3858  0.2848 -2.8197
 7934TIP3   OH245216   2.894   3.692   4.147 -0.0013  0.5304 -0.1761
 7934TIP3    H145217   2.898   3.626   4.078  2.4010 -0.9125  1.2230
 7934TIP3    H245218   2.976   3.742   4.137 -1.1503  2.4962 -0.3671
 7935TIP3   OH245219   1.290   4.020  11.007 -0.3493  0.3474  0.0072
 7935TIP3    H145220   1.371   4.003  10.959 -0.4984 -0.8958  0.1790
 7935TIP3    H245221   1.231   4.058  10.942 -0.3542 -0.7782 -0.6622
 7936TIP3   OH245222   4.476   0.207  10.614 -0.6738  0.1564  0.7358
 7936TIP3    H145223   4.413   0.278  10.599  0.2415  0.5270 -2.0124
 7936TIP3    H245224   4.553   0.233  10.564  0.3191 -2.0060  1.0384
 7937TIP3   OH245225   1.564   4.957   2.693  0.0413  0.3568 -0.0290
 7937TIP3    H145226   1.481   5.001   2.674  0.1026  0.1740 -0.7249
 7937TIP3    H245227   1.608   4.951   2.609 -0.4370 -2.0112 -0.1657
 7938TIP3   OH245228   2.827   3.246  13.253 -0.2138 -0.5065  0.0863
 7938TIP3    H145229   2.887   3.211  13.188  0.0974 -2.1690  1.2012
 7938TIP3    H245230   2.772   3.308  13.205  1.8199  0.4184 -1.1266
 7939TIP3   OH245231   4.418   4.880  17.359 -0.3153 -0.3187  0.0168
 7939TIP3    H145232   4.340   4.935  17.368  0.3352  0.4414  1.3363
 7939TIP3    H245233   4.467   4.920  17.287 -0.6182 -0.1354 -0.0917
 7940TIP3   OH245234   3.358   2.100  15.039 -0.0203  0.6956 -0.0565
 7940TIP3    H145235   3.397   2.183  15.065  1.3585 -0.5557  2.2245
 7940TIP3    H245236   3.313   2.069  15.118  1.9932 -2.0491  0.1750
 7941TIP3   OH245237   4.744   0.947   5.901  0.1539 -0.5185 -0.6978
 7941TIP3    H145238   4.811   0.968   5.836 -0.3007  0.1501 -0.9589
 7941TIP3    H245239   4.690   0.881   5.858  0.8329 -1.3072 -0.3600
 7942TIP3   OH245240   2.385   3.359  13.047 -0.8077  0.0419  0.1058
 7942TIP3    H145241   2.446   3.286  13.038  0.8335  1.1865  1.3096
 7942TIP3    H245242   2.319   3.328  13.109  0.0200 -0.3529  0.8074
 7943TIP3   OH245243   3.778   5.329  10.754 -0.3380 -0.2020 -0.1094
 7943TIP3    H145244   3.815   5.243  10.773 -0.4910 -0.4395 -0.8707
 7943TIP3    H245245   3.760   5.328  10.660 -0.5423  0.5839 -0.0887
 7944TIP3   OH245246   0.125   3.378  16.073  0.0226  0.0666 -0.5855
 7944TIP3    H145247   0.151   3.466  16.048 -0.6994  0.3765 -0.2558
 7944TIP3    H245248   0.203   3.343  16.118  0.4465  0.3857 -1.0596
 7945TIP3   OH245249   5.114   2.095   3.059 -0.1294  0.6720  0.2223
 7945TIP3    H145250   5.154   2.181   3.045  1.4242 -0.2181 -1.2571
 7945TIP3    H245251   5.048   2.087   2.990 -1.2360  1.2031  1.2047
 7946TIP3   OH245252   4.638   0.223  12.948  0.3740 -0.1020  0.1895
 7946TIP3    H145253   4.580   0.261  13.014  0.5020 -0.6337  0.6263
 7946TIP3    H245254   4.685   0.297  12.910  1.5273  0.0900  1.8891
 7947TIP3   OH245255   0.667   5.630   4.441  0.6953  0.4187  0.2524
 7947TIP3    H145256   0.726   5.684   4.493  1.1002  0.7549 -0.5453
 7947TIP3    H245257   0.661   5.548   4.490  0.2075  1.1036  1.3878
 7948TIP3   OH245258   3.078   4.947  15.083 -0.0450 -0.3984 -0.1147
 7948TIP3    H145259   2.992   4.927  15.121 -0.3725  0.4882 -0.3707
 7948TIP3    H245260   3.064   4.942  14.988 -0.2264  1.2768 -0.2104
 7949TIP3   OH245261   0.078   0.809  16.203  0.0946 -0.0089  0.0423
 7949TIP3    H145262   0.119   0.864  16.269  0.0783 -1.0117  0.9061
 7949TIP3    H245263   0.001   0.771  16.246  0.4059 -1.1384 -0.3442
 7950TIP3   OH245264   4.642   2.870   3.553 -0.4539 -0.6110 -0.9501
 7950TIP3    H145265   4.651   2.777   3.573 -1.5217 -0.3873  0.7455
 7950TIP3    H245266   4.551   2.880   3.525 -0.3285 -0.0683 -1.1737
 7951TIP3   OH245267   2.398   5.884  13.735 -0.0063  0.4324 -0.2655
 7951TIP3    H145268   2.307   5.910  13.721  0.0078  0.8712  0.3975
 7951TIP3    H245269   2.400   5.854  13.826 -0.1761 -2.6273 -1.1556
 7952TIP3   OH245270   5.637   2.677  13.621  0.0762  0.3012  0.4698
 7952TIP3    H145271   5.588   2.599  13.595 -0.4635  0.9577 -0.5597
 7952TIP3    H245272   5.716   2.643  13.662  0.7891 -0.8573 -1.6879
 7953TIP3   OH245273   2.786   0.303  17.000 -0.0659  0.1885 -0.0091
 7953TIP3    H145274   2.790   0.393  17.033 -0.2361  0.8478 -1.6915
 7953TIP3    H245275   2.869   0.291  16.953 -0.6423 -0.0175 -0.9986
 7954TIP3   OH245276   2.326   5.786   3.308 -0.2046  0.2012  0.0677
 7954TIP3    H145277   2.289   5.874   3.313 -0.0200  0.2336  1.0068
 7954TIP3    H245278   2.289   5.740   3.383  1.5604  0.2026  0.9954
 7955TIP3   OH245279   3.051   1.738   4.776 -0.1477 -0.3625 -0.2057
 7955TIP3    H145280   2.998   1.782   4.710 -3.8995 -0.6323  2.3686
 7955TIP3    H245281   3.009   1.653   4.789  0.3889 -0.3089  2.5401
 7956TIP3   OH245282   4.909   3.465  13.262  0.0335 -0.2117  0.2006
 7956TIP3    H145283   4.995   3.432  13.287  0.4694  0.8535  0.1582
 7956TIP3    H245284   4.904   3.451  13.168 -0.3566 -1.4090  0.3857
 7957TIP3   OH245285   5.875   1.484  15.530  0.3721 -0.8479 -0.0205
 7957TIP3    H145286   5.782   1.462  15.520  0.6360 -2.9472  1.5313
 7957TIP3    H245287   5.875   1.560  15.589 -0.3606 -1.1406  0.3803
 7958TIP3   OH245288   5.959   5.374  15.832  0.3560 -0.0072 -0.4103
 7958TIP3    H145289   5.883   5.431  15.819  1.3873  2.3008  2.5627
 7958TIP3    H245290   5.925   5.300  15.883  0.2165  1.8711  2.4703
 7959TIP3   OH245291   0.422   5.290  12.866  0.6150  0.2280  0.2690
 7959TIP3    H145292   0.332   5.265  12.847  0.7361 -0.5407  0.6584
 7959TIP3    H245293   0.434   5.269  12.959  1.3818 -0.2825  0.0685
 7960TIP3   OH245294   3.184   1.898  14.466 -0.1336 -0.7495 -0.3523
 7960TIP3    H145295   3.179   1.925  14.374 -0.6182 -0.3079 -0.2019
 7960TIP3    H245296   3.202   1.978  14.514 -2.1265 -0.5544  0.1541
 7961TIP3   OH245297   5.977   1.642  17.484 -0.4205  0.3008  0.6422
 7961TIP3    H145298   6.054   1.599  17.447 -0.4479 -0.6211  1.5921
 7961TIP3    H245299   5.991   1.735  17.469  1.1320  0.1891  1.2317
 7962TIP3   OH245300   3.514   4.450   2.406  0.4334 -0.3338  0.3877
 7962TIP3    H145301   3.494   4.385   2.338  0.1943  0.7633 -0.6200
 7962TIP3    H245302   3.438   4.508   2.407  0.6473 -0.0505  1.2717
 7963TIP3   OH245303   2.823   0.403  16.408  0.3208 -0.0362  0.1059
 7963TIP3    H145304   2.797   0.475  16.466 -1.3924  1.4419 -2.2715
 7963TIP3    H245305   2.881   0.444  16.344 -0.7279 -0.6653 -1.3199
 7964TIP3   OH245306   2.069   1.447   5.230 -0.1909 -0.1157 -0.3505
 7964TIP3    H145307   1.978   1.438   5.257  0.2127 -2.2746  0.5054
 7964TIP3    H245308   2.096   1.532   5.263 -1.6946  0.2646 -0.0246
 7965TIP3   OH245309   1.029   0.342   2.489 -0.3651 -0.2884 -0.2802
 7965TIP3    H145310   1.052   0.433   2.470  2.1295 -1.1858 -2.1926
 7965TIP3    H245311   1.073   0.323   2.572 -0.3875  0.0928 -0.1794
 7966TIP3   OH245312   0.436   0.185  15.936 -0.4227  0.1999 -1.0685
 7966TIP3    H145313   0.364   0.228  15.983  1.1360 -0.1566  1.8840
 7966TIP3    H245314   0.513   0.236  15.959  0.7607 -1.3587 -1.4358
 7967TIP3   OH245315   2.380   6.231   3.728  0.3704  0.1934  0.0226
 7967TIP3    H145316   2.381   6.157   3.667  2.6996 -0.3931  0.6264
 7967TIP3    H245317   2.407   6.192   3.812  0.4846  1.5193  0.6262
 7968TIP3   OH245318   0.435   4.142   1.575 -0.1324  0.3696  0.9548
 7968TIP3    H145319   0.362   4.145   1.638 -0.5459  0.8282  0.4749
 7968TIP3    H245320   0.513   4.133   1.629 -0.5044  0.4455  1.5208
 7969TIP3   OH245321   2.887   2.672   0.529 -0.0112 -0.1394 -0.1067
 7969TIP3    H145322   2.810   2.707   0.573 -0.0311  0.1768 -0.3900
 7969TIP3    H245323   2.931   2.749   0.494  1.6391 -0.0441  1.9476
 7970TIP3   OH245324   6.121   0.615  14.298  1.1311 -0.3831  0.8319
 7970TIP3    H145325   6.126   0.680  14.227 -1.4037  0.8677  1.6825
 7970TIP3    H245326   6.196   0.636  14.354  2.1503 -0.2573 -0.5159
 7971TIP3   OH245327   3.213   2.472   5.681 -0.4946 -0.3042 -0.3548
 7971TIP3    H145328   3.183   2.512   5.599  2.1167  1.9616 -0.3382
 7971TIP3    H245329   3.211   2.378   5.663 -0.5314  0.0937 -2.8273
 7972TIP3   OH245330   3.848   4.630  15.230 -0.8861 -0.1847  0.2153
 7972TIP3    H145331   3.880   4.610  15.318 -1.3256 -0.4492  0.3162
 7972TIP3    H245332   3.854   4.726  15.223  0.1613 -0.2408  0.1385
 7973TIP3   OH245333   3.448   5.194   4.468 -0.0763  0.2201  0.8330
 7973TIP3    H145334   3.488   5.108   4.467 -0.4338  0.0521 -0.6119
 7973TIP3    H245335   3.521   5.255   4.478  0.4019 -0.1510 -0.3281
 7974TIP3   OH245336   0.257   1.186   5.705 -0.6073  0.0268 -0.1351
 7974TIP3    H145337   0.259   1.280   5.688 -1.1044 -0.2189 -1.7652
 7974TIP3    H245338   0.182   1.173   5.763  0.1641  0.7514  1.0559
 7975TIP3   OH245339   3.731   1.307   5.718 -0.1957 -0.0533 -0.6597
 7975TIP3    H145340   3.771   1.234   5.765  0.8103  0.1208 -1.1936
 7975TIP3    H245341   3.643   1.276   5.695  0.4342 -1.3673 -1.4445
 7976TIP3   OH245342   5.041   2.397   6.920  0.1994 -0.3788 -0.2492
 7976TIP3    H145343   5.015   2.309   6.947  0.4275 -0.4527 -0.2761
 7976TIP3    H245344   4.989   2.455   6.976 -1.2108 -0.5131 -1.3642
 7977TIP3   OH245345   1.231   1.099   4.551 -0.1201 -0.8157 -0.0860
 7977TIP3    H145346   1.226   1.098   4.456  1.0046  0.0753 -0.1681
 7977TIP3    H245347   1.261   1.011   4.575 -0.4523 -1.0565 -0.5301
 7978TIP3   OH245348   2.033   2.500   0.056  0.1182 -0.6497  0.6008
 7978TIP3    H145349   2.071   2.524  -0.029 -1.3774 -1.1094 -0.2212
 7978TIP3    H245350   2.099   2.529   0.120 -0.2404  3.0042 -0.4561
 7979TIP3   OH245351   3.802   6.418   1.790 -0.2956  0.0980 -0.0516
 7979TIP3    H145352   3.803   6.431   1.695 -0.7785 -3.6605 -0.7187
 7979TIP3    H245353   3.710   6.425   1.815 -0.3555 -0.3754 -0.1334
 7980TIP3   OH245354   0.198   6.295   3.705  0.2654  0.3835 -0.6034
 7980TIP3    H145355   0.127   6.243   3.745  1.5918  0.2694  1.7923
 7980TIP3    H245356   0.153   6.362   3.653 -1.6427  0.7252  1.3595
 7981TIP3   OH245357   3.887   4.327  12.462  0.2036 -0.9629  0.2220
 7981TIP3    H145358   3.804   4.343  12.418 -0.1491  0.2727  1.2618
 7981TIP3    H245359   3.926   4.254  12.415 -1.3080 -1.3368 -0.5033
 7982TIP3   OH245360   4.236   0.912  11.460  0.1949  0.3120 -0.9226
 7982TIP3    H145361   4.246   1.008  11.459  1.5822  0.2074 -2.8814
 7982TIP3    H245362   4.317   0.880  11.499 -0.8073 -0.0808  0.9504
 7983TIP3   OH245363   1.690   5.065  13.685  0.0414 -0.5980  0.1693
 7983TIP3    H145364   1.760   5.110  13.733  1.3414 -1.2634 -1.0388
 7983TIP3    H245365   1.609   5.106  13.717  0.9876  0.4332  1.3544
 7984TIP3   OH245366   1.104   0.182   6.002  0.1595 -0.0135 -0.1335
 7984TIP3    H145367   1.031   0.223   5.956  0.4095 -1.4175 -1.8494
 7984TIP3    H245368   1.066   0.105   6.044  0.0569  0.9380  1.6256
 7985TIP3   OH245369   2.155   3.502  13.654 -0.3022 -0.0712 -0.0159
 7985TIP3    H145370   2.219   3.565  13.689 -0.6389 -0.0747  0.6194
 7985TIP3    H245371   2.105   3.552  13.590 -0.9062  0.4641  0.8515
 7986TIP3   OH245372   5.839   6.647  11.578  0.4335 -0.1101  0.0375
 7986TIP3    H145373   5.866   6.576  11.520  1.2115  1.2645 -1.3282
 7986TIP3    H245374   5.920   6.681  11.614  0.0630  0.1350  0.6594
 7987TIP3   OH245375   5.748   0.808  15.969  0.2594  0.4199  0.4910
 7987TIP3    H145376   5.828   0.756  15.958 -0.1128 -0.2510  0.8514
 7987TIP3    H245377   5.684   0.746  16.005  0.0436  1.3420  1.7607
 7988TIP3   OH245378   3.554   5.903   2.793  0.3734  0.6957 -0.0274
 7988TIP3    H145379   3.484   5.962   2.764 -0.3816 -0.2226 -0.1011
 7988TIP3    H245380   3.625   5.916   2.730 -0.1307  0.8660 -0.5652
 7989TIP3   OH245381   0.718   6.585   0.687  0.3924 -0.2513 -0.7750
 7989TIP3    H145382   0.642   6.644   0.686  2.2153  2.2619 -1.5029
 7989TIP3    H245383   0.787   6.636   0.730  1.8142 -2.2933 -0.4818
 7990TIP3   OH245384   0.187   0.259  13.617 -0.5553 -0.6355 -0.3836
 7990TIP3    H145385   0.103   0.265  13.664 -0.3962 -1.0634 -0.0469
 7990TIP3    H245386   0.212   0.167  13.623 -0.6537 -0.7509 -1.5297
 7991TIP3   OH245387   4.647   5.524   5.913  0.4174  0.2120 -0.2268
 7991TIP3    H145388   4.649   5.590   5.982  0.8665 -1.3301  1.2995
 7991TIP3    H245389   4.589   5.456   5.945  0.2302 -0.3196 -1.6067
 7992TIP3   OH245390   1.043   2.929   5.694 -0.2467  0.1756  0.3841
 7992TIP3    H145391   1.131   2.940   5.658 -0.4729 -0.3538 -0.3681
 7992TIP3    H245392   1.034   2.835   5.708 -0.9509  0.1257 -0.2793
 7993TIP3   OH245393   6.246   1.668  11.745  0.2789  0.3607  0.2564
 7993TIP3    H145394   6.194   1.675  11.665  1.7728 -2.0959 -1.0479
 7993TIP3    H245395   6.335   1.688  11.718  1.0700 -1.9752  0.8732
 7994TIP3   OH245396   4.242   2.479   4.100 -0.2055  0.0842 -0.0546
 7994TIP3    H145397   4.171   2.458   4.039 -0.7060  0.6808  0.3169
 7994TIP3    H245398   4.290   2.551   4.058  0.7918 -0.9443 -0.7641
 7995TIP3   OH245399   5.341   2.338  16.493 -0.0391 -0.6351 -0.8450
 7995TIP3    H145400   5.414   2.343  16.431 -1.2370 -0.1232 -2.2729
 7995TIP3    H245401   5.358   2.259  16.544  2.0725  0.0578 -0.3594
 7996TIP3   OH245402   1.521   4.225   0.246 -0.6671  0.2142 -0.1193
 7996TIP3    H145403   1.463   4.164   0.292  1.0687 -0.9345  0.6540
 7996TIP3    H245404   1.584   4.169   0.201  0.7718  1.4332  0.3158
 7997TIP3   OH245405   1.793   2.058   3.584 -0.1039 -0.7942 -0.1013
 7997TIP3    H145406   1.882   2.082   3.558  0.0215 -0.8682  0.2537
 7997TIP3    H245407   1.792   2.070   3.679 -0.0811 -2.0569  0.0686
 7998TIP3   OH245408   1.759   6.457   4.536 -0.3557  0.5008 -0.3582
 7998TIP3    H145409   1.689   6.392   4.530 -0.9964  1.3119 -2.6548
 7998TIP3    H245410   1.714   6.536   4.568  0.1140  0.2631  0.9341
 7999TIP3   OH245411   4.193   4.004   0.057 -0.1606 -0.1018  0.1659
 7999TIP3    H145412   4.261   4.039  -0.000 -0.8634  1.4418  0.2235
 7999TIP3    H245413   4.111   4.031   0.016 -0.7031 -0.3692  1.0549
 8000TIP3   OH245414   4.156   6.287   3.767  0.5698 -0.0265 -0.2783
 8000TIP3    H145415   4.083   6.293   3.829  0.2805 -1.2756 -0.4713
 8000TIP3    H245416   4.234   6.296   3.822  0.3140 -1.1123  0.2980
 8001TIP3   OH245417   2.850   4.906  12.909  0.3730  0.6029 -0.1561
 8001TIP3    H145418   2.919   4.863  12.960 -1.3135 -1.1913  0.7774
 8001TIP3    H245419   2.839   4.991  12.951  2.3797  1.1928 -0.7175
 8002TIP3   OH245420   1.545   1.744   0.125  0.0987  0.2698  0.4050
 8002TIP3    H145421   1.486   1.670   0.110 -1.8444  1.2816  2.4509
 8002TIP3    H245422   1.624   1.721   0.076 -2.1857 -0.8172 -3.1938
 8003TIP3   OH245423   0.038   4.089  15.374 -1.2629 -0.3382  0.0833
 8003TIP3    H145424   0.068   4.092  15.465  1.2597 -0.2064 -0.6813
 8003TIP3    H245425   0.006   4.177  15.356 -0.2058  0.1196  0.3756
 8004TIP3   OH245426   2.782   2.766   1.545  0.2741 -0.0804 -0.1509
 8004TIP3    H145427   2.715   2.834   1.536 -0.0010 -0.4830 -1.2281
 8004TIP3    H245428   2.865   2.814   1.545  0.0538  0.3061 -0.2660
 8005TIP3   OH245429   3.830   3.715  17.227 -0.2432  0.3516 -0.0583
 8005TIP3    H145430   3.801   3.784  17.167 -1.9843 -0.3385 -0.0807
 8005TIP3    H245431   3.749   3.676  17.259  0.6891 -0.9101  0.8712
 8006TIP3   OH245432   5.328   0.171  11.974 -0.2591  0.3250  0.0363
 8006TIP3    H145433   5.250   0.121  11.997 -0.2964  0.4779  0.2485
 8006TIP3    H245434   5.356   0.135  11.890 -0.8309  0.5901 -0.2724
 8007TIP3   OH245435   6.377   4.958  14.934  0.3774  0.3812 -0.3720
 8007TIP3    H145436   6.434   4.885  14.911  0.1888  0.1922 -0.2491
 8007TIP3    H245437   6.290   4.930  14.906  0.2627  0.4528 -0.0919
 8008TIP3   OH245438   2.263   0.984   4.915 -0.4608  0.5941  0.2745
 8008TIP3    H145439   2.302   1.062   4.955  1.8431  0.6233 -1.7999
 8008TIP3    H245440   2.238   1.011   4.827  1.1782 -1.1567 -0.7956
 8009TIP3   OH245441   5.842   1.179  14.796 -0.2096 -0.3050 -0.0756
 8009TIP3    H145442   5.852   1.168  14.891 -1.1043  2.9977  0.5100
 8009TIP3    H245443   5.862   1.092  14.760  3.0151 -1.0229  2.8755
 8010TIP3   OH245444   0.247   4.117  15.676  0.4974 -0.4672  0.3579
 8010TIP3    H145445   0.282   4.071  15.752 -0.3136 -1.6987  0.0323
 8010TIP3    H245446   0.303   4.089  15.603  0.8219  0.1269  0.3779
 8011TIP3   OH245447   3.955   6.592   1.576 -0.5061 -0.0651 -0.4632
 8011TIP3    H145448   3.867   6.589   1.538 -0.5347  0.8190 -0.4918
 8011TIP3    H245449   4.013   6.609   1.502 -0.1820 -1.6346 -0.6009
 8012TIP3   OH245450   1.424   3.654   4.377 -0.1034 -0.2674 -0.4525
 8012TIP3    H145451   1.417   3.607   4.460 -1.7672 -0.8695 -0.8842
 8012TIP3    H245452   1.469   3.736   4.400 -2.2189  0.5008  1.5055
 8013TIP3   OH245453   5.859   6.036   0.351  0.2768  0.3422 -0.0980
 8013TIP3    H145454   5.780   6.088   0.334 -1.0002 -0.3844  3.0167
 8013TIP3    H245455   5.909   6.089   0.413  1.1220 -0.2611 -0.2507
 8014TIP3   OH245456   0.006   1.434  15.105  0.0639  0.2303 -0.2239
 8014TIP3    H145457  -0.083   1.451  15.136  0.7230  0.7513  1.5471
 8014TIP3    H245458  -0.005   1.403  15.015 -1.8314  1.0741 -0.3296
 8015TIP3   OH245459   3.688   3.498  16.006  0.4961  0.1245 -0.6365
 8015TIP3    H145460   3.669   3.424  15.949  0.4065 -1.1927  1.0055
 8015TIP3    H245461   3.774   3.529  15.979  0.6549 -0.7676 -1.1777
 8016TIP3   OH245462   5.128   4.879   5.153  0.1360  0.0408  0.6360
 8016TIP3    H145463   5.184   4.877   5.075 -0.5992 -0.4168  0.1003
 8016TIP3    H245464   5.161   4.809   5.208  0.2605 -0.0540  0.4418
 8017TIP3   OH245465   6.305   3.989  13.222  0.2116 -0.2940  0.1017
 8017TIP3    H145466   6.211   4.008  13.214  0.1368 -1.4788 -2.9099
 8017TIP3    H245467   6.343   4.072  13.253 -1.5371  0.9930 -1.0011
 8018TIP3   OH245468   0.573   2.921   0.809  0.0460 -0.3463 -0.3492
 8018TIP3    H145469   0.638   2.902   0.876  1.0857  0.2244 -1.1780
 8018TIP3    H245470   0.531   3.002   0.838 -0.0372 -0.5053 -0.0187
 8019TIP3   OH245471   1.735   4.477   3.155 -0.5197 -0.4008 -0.0735
 8019TIP3    H145472   1.651   4.500   3.196 -0.6756  0.9277 -1.0446
 8019TIP3    H245473   1.800   4.493   3.223 -0.7286  2.1157 -0.3416
 8020TIP3   OH245474   3.657   2.732  15.116  0.2805 -0.7777 -0.1392
 8020TIP3    H145475   3.571   2.712  15.154  1.1412 -1.2336  1.6936
 8020TIP3    H245476   3.691   2.647  15.087  0.8521 -0.8976  0.8357
 8021TIP3   OH245477   4.520   5.820  10.559 -0.5800  0.1479  0.5488
 8021TIP3    H145478   4.431   5.850  10.575 -1.2824 -0.6398 -1.6656
 8021TIP3    H245479   4.511   5.741  10.506  1.4268 -0.4216  0.9379
 8022TIP3   OH245480   1.558   2.902  16.183 -0.1347  0.4264  0.1060
 8022TIP3    H145481   1.635   2.871  16.231  1.1194  1.0552 -1.3998
 8022TIP3    H245482   1.490   2.837  16.202  1.0377 -0.6550  0.7507
 8023TIP3   OH245483   3.903   0.176   6.592 -0.0108  0.0836 -0.1725
 8023TIP3    H145484   3.817   0.136   6.609  0.9819 -1.9180  0.4177
 8023TIP3    H245485   3.930   0.140   6.508  0.1838  0.8696 -0.4535
 8024TIP3   OH245486   2.657   4.770   5.023 -0.1655  0.4239  0.3423
 8024TIP3    H145487   2.716   4.838   5.057 -0.9903  0.5077  1.7051
 8024TIP3    H245488   2.649   4.790   4.930  1.7105  0.5657  0.1642
 8025TIP3   OH245489   4.814   2.783  12.810 -0.5717 -0.0927 -0.1156
 8025TIP3    H145490   4.750   2.853  12.823  0.2418  0.4408  1.1699
 8025TIP3    H245491   4.768   2.720  12.754 -1.4585  1.2611 -0.9953
 8026TIP3   OH245492   6.182   1.675  15.882  0.4351  0.3168 -0.1437
 8026TIP3    H145493   6.256   1.623  15.913  1.8665  1.0265 -2.2141
 8026TIP3    H245494   6.204   1.697  15.792 -2.1976  0.7902 -0.7449
 8027TIP3   OH245495   4.783   0.693  15.149  0.1686  0.0605  0.2366
 8027TIP3    H145496   4.722   0.619  15.151 -0.3317  0.4737  1.6777
 8027TIP3    H245497   4.820   0.691  15.061 -0.8483 -1.0743 -0.1992
 8028TIP3   OH245498   4.807   2.340   0.837 -0.5144 -0.4064 -0.2272
 8028TIP3    H145499   4.715   2.368   0.835  0.0785  1.9412  1.0784
 8028TIP3    H245500   4.803   2.245   0.841 -2.9765 -0.3373  1.7426
 8029TIP3   OH245501   5.415   3.228  15.123  0.0706 -0.1777 -0.0577
 8029TIP3    H145502   5.377   3.294  15.065  1.1630 -1.3754 -2.2590
 8029TIP3    H245503   5.339   3.182  15.160 -0.7697 -1.1614 -2.7299
 8030TIP3   OH245504   1.161   3.494  11.815 -0.6041  0.6648  0.0453
 8030TIP3    H145505   1.094   3.431  11.787  1.4529 -2.1978  1.0662
 8030TIP3    H245506   1.150   3.499  11.910  0.4762  0.2840  0.2008
 8031TIP3   OH245507   4.865   4.339  13.859  0.5603  0.2387  0.0876
 8031TIP3    H145508   4.932   4.290  13.907  0.3375  2.0019  2.3586
 8031TIP3    H245509   4.915   4.389  13.794  1.3281  0.4801  0.8390
 8032TIP3   OH245510   1.911   5.461  12.019 -0.2446  0.1753 -0.3544
 8032TIP3    H145511   1.888   5.456  12.112 -1.0146  1.2339 -0.4695
 8032TIP3    H245512   2.004   5.438  12.016 -0.5512 -1.2885  0.4983
 8033TIP3   OH245513   2.572   0.509  11.019  0.7370 -0.3296 -0.9087
 8033TIP3    H145514   2.514   0.512  10.944 -1.5803  1.0032  0.8009
 8033TIP3    H245515   2.519   0.540  11.092  2.4092 -2.8072  1.6011
 8034TIP3   OH245516   4.814   6.678   1.390 -0.1082  0.0544 -0.0468
 8034TIP3    H145517   4.831   6.718   1.304  0.7672 -0.6477 -0.2212
 8034TIP3    H245518   4.740   6.619   1.375  0.0474 -0.0733 -0.3384
 8035TIP3   OH245519   0.625   3.004  13.668  0.3693 -0.7421  0.1462
 8035TIP3    H145520   0.550   3.050  13.706  0.8076 -1.5281  2.0576
 8035TIP3    H245521   0.636   2.927  13.724  1.6220 -1.4809 -1.0722
 8036TIP3   OH245522   2.511   2.637  14.836 -0.2487  0.1182  0.0216
 8036TIP3    H145523   2.422   2.603  14.838  0.5756 -2.2244  0.4379
 8036TIP3    H245524   2.548   2.604  14.754 -0.0465  1.9981 -0.6993
 8037TIP3   OH245525   6.424   6.644  11.708 -0.3732  0.0159  0.5037
 8037TIP3    H145526   6.445   6.705  11.778  0.4386 -0.3109  0.5526
 8037TIP3    H245527   6.507   6.601  11.688 -0.1074  1.5309 -2.0767
 8038TIP3   OH245528   6.121   4.186   2.321  0.0050 -0.3349  0.1502
 8038TIP3    H145529   6.182   4.138   2.266  0.3744  0.4385 -0.1309
 8038TIP3    H245530   6.043   4.196   2.267 -0.6739 -1.9416  0.7599
 8039TIP3   OH245531   1.591   5.958   1.229 -0.3130  0.3705  0.3066
 8039TIP3    H145532   1.508   5.910   1.234 -0.9975  1.6166  1.3801
 8039TIP3    H245533   1.578   6.022   1.159  0.2990 -0.4104 -0.5449
 8040TIP3   OH245534   0.851   5.538  11.734  0.4713 -0.4021  0.2241
 8040TIP3    H145535   0.758   5.520  11.722  0.2528  0.3024  0.7191
 8040TIP3    H245536   0.876   5.485  11.809  0.3021 -0.1253  0.4833
 8041TIP3   OH245537   5.696   3.152   2.048  0.2355 -0.3574  0.1098
 8041TIP3    H145538   5.664   3.232   2.089 -0.2966  0.8503 -2.4702
 8041TIP3    H245539   5.632   3.132   1.980  0.4071 -2.9713  0.6035
 8042TIP3   OH245540   6.027   5.478   4.479 -0.1068 -0.4933 -0.5742
 8042TIP3    H145541   5.994   5.405   4.428 -0.7588 -0.6700  0.0901
 8042TIP3    H245542   5.952   5.507   4.531 -0.0790  1.1293 -1.3748
 8043TIP3   OH245543   1.133   1.427   0.661  0.1532  0.0009 -0.0377
 8043TIP3    H145544   1.196   1.435   0.732 -0.2662  1.0295  0.2354
 8043TIP3    H245545   1.164   1.352   0.610  1.9222  0.8219 -0.2531
 8044TIP3   OH245546   5.751   5.386   1.031 -0.5595 -0.1322 -0.3111
 8044TIP3    H145547   5.687   5.439   1.080 -2.6594 -1.2072 -1.7068
 8044TIP3    H245548   5.701   5.353   0.956  1.8528 -0.5600 -1.8247
 8045TIP3   OH245549   4.380   3.597  11.386 -0.1940 -0.5409 -0.1761
 8045TIP3    H145550   4.430   3.545  11.449 -0.9342  2.0350  2.7798
 8045TIP3    H245551   4.424   3.682  11.386 -1.2633  0.0513 -1.8920
 8046TIP3   OH245552   3.058   3.463  12.913 -0.6720 -0.2431  0.2574
 8046TIP3    H145553   3.147   3.490  12.889 -0.3733  0.1693  1.7266
 8046TIP3    H245554   3.041   3.386  12.858  0.6636 -0.4428  0.0851
 8047TIP3   OH245555   2.128   0.411  10.773  0.5450  0.2143 -0.4691
 8047TIP3    H145556   2.037   0.413  10.743  0.8234  0.4309 -1.3222
 8047TIP3    H245557   2.171   0.481  10.725  1.7646 -1.5462 -2.0764
 8048TIP3   OH245558   3.404   5.680   5.611  0.1086 -0.4367  0.1579
 8048TIP3    H145559   3.389   5.773   5.629  0.9707  0.0493 -1.4841
 8048TIP3    H245560   3.332   5.655   5.552 -0.1582 -0.8423  0.6442
 8049TIP3   OH245561   4.317   2.253  16.057  0.5350  0.0305  0.1258
 8049TIP3    H145562   4.347   2.165  16.036 -0.7316 -0.3028 -0.3901
 8049TIP3    H245563   4.276   2.244  16.143 -1.2440 -0.3285 -0.7077
 8050TIP3   OH245564   5.611   2.038   3.935  0.1162  0.1034  0.2164
 8050TIP3    H145565   5.681   1.988   3.977 -0.4059  0.0845  1.0961
 8050TIP3    H245566   5.531   1.992   3.960 -0.4782  1.9432  1.9739
 8051TIP3   OH245567   5.371   2.109  16.616 -0.0377  0.0910 -0.1398
 8051TIP3    H145568   5.277   2.110  16.633 -0.1107  1.3080 -0.5594
 8051TIP3    H245569   5.393   2.016  16.610 -1.1168 -0.2143  0.4563
 8052TIP3   OH245570   3.766   4.469  16.841  0.0619 -0.1115 -0.0048
 8052TIP3    H145571   3.694   4.522  16.876 -0.7862 -1.0401 -0.3172
 8052TIP3    H245572   3.746   4.457  16.749 -0.7186 -2.4418  0.4014
 8053TIP3   OH245573   3.870   0.448   4.473 -0.1861 -0.1313 -0.3246
 8053TIP3    H145574   3.905   0.365   4.505  0.7996  0.2998 -0.2713
 8053TIP3    H245575   3.936   0.513   4.495 -1.0428  0.7175 -0.1735
 8054TIP3   OH245576   3.540   2.439  11.643  0.1474  0.0638 -0.1248
 8054TIP3    H145577   3.504   2.362  11.600 -1.9777  0.5570  0.6531
 8054TIP3    H245578   3.476   2.509  11.626  1.2492  1.2690  0.4657
 8055TIP3   OH245579   0.290   0.075   1.485  0.1213 -0.2455  0.1007
 8055TIP3    H145580   0.315   0.005   1.424  1.1419  0.5287 -0.4094
 8055TIP3    H245581   0.213   0.042   1.530  0.2317 -1.4507 -0.5617
 8056TIP3   OH245582   0.719   6.539  15.861  0.0016 -0.0426 -0.2241
 8056TIP3    H145583   0.749   6.480  15.931 -0.9462 -0.6992 -0.3593
 8056TIP3    H245584   0.736   6.490  15.781 -2.5180 -0.9883 -0.2609
 8057TIP3   OH245585   1.845   5.343   3.408  0.3046  0.0276  0.2350
 8057TIP3    H145586   1.880   5.330   3.496 -0.2461  1.6316  0.7365
 8057TIP3    H245587   1.809   5.258   3.383 -1.6833  0.0833  2.5585
 8058TIP3   OH245588   2.799   1.349  14.264  0.8001  0.0238  0.0893
 8058TIP3    H145589   2.705   1.365  14.258  0.4949 -1.4172  0.5035
 8058TIP3    H245590   2.840   1.435  14.253 -0.5066  0.5179 -1.2091
 8059TIP3   OH245591   0.478   2.712  12.460  0.1016 -0.2219  0.1898
 8059TIP3    H145592   0.489   2.672  12.373  0.1370 -0.3888  0.2703
 8059TIP3    H245593   0.496   2.640  12.521  0.4896  0.0016  0.3389
 8060TIP3   OH245594   2.684   0.747  16.784  0.0264  0.5148 -0.2131
 8060TIP3    H145595   2.755   0.685  16.796  1.7134  2.3400 -0.2897
 8060TIP3    H245596   2.716   0.809  16.719 -2.0595  0.8365 -1.0253
 8061TIP3   OH245597   2.548   3.086   3.749 -0.7228  0.1450  0.2919
 8061TIP3    H145598   2.514   3.157   3.695  0.6374 -1.2710 -2.7096
 8061TIP3    H245599   2.617   3.126   3.801 -1.2545  1.3638  0.0862
 8062TIP3   OH245600   5.919   5.742  14.377  1.1323 -0.3838 -0.4708
 8062TIP3    H145601   5.896   5.749  14.470  1.4272  2.3839 -0.5281
 8062TIP3    H245602   5.842   5.774  14.331  0.8215 -2.1544 -1.2490
 8063TIP3   OH245603   1.681   6.148  13.802 -0.3853  0.2344  0.0395
 8063TIP3    H145604   1.672   6.232  13.847  0.5495  1.3249 -1.7090
 8063TIP3    H245605   1.615   6.092  13.843 -0.1756  1.3969  2.1324
 8064TIP3   OH245606   0.873   4.228  16.394  0.1353  0.3782  0.2998
 8064TIP3    H145607   0.942   4.287  16.364 -0.3598  0.1975 -1.3034
 8064TIP3    H245608   0.799   4.246  16.336 -0.9370  0.0733  1.5330
 8065TIP3   OH245609   5.277   3.498   0.333 -0.5753  0.2432 -0.0896
 8065TIP3    H145610   5.219   3.422   0.334 -0.4019  0.0979 -0.7095
 8065TIP3    H245611   5.251   3.548   0.256  0.2383  0.0787 -0.4829
 8066TIP3   OH245612   2.029   1.085   5.805  0.7524 -0.2449  0.5894
 8066TIP3    H145613   2.106   1.138   5.828 -1.0917  3.2418 -0.4998
 8066TIP3    H245614   2.034   1.076   5.710  0.8638 -1.9461  0.7166
 8067TIP3   OH245615   0.163   1.415   2.635  0.4797  0.3625 -0.2961
 8067TIP3    H145616   0.221   1.479   2.594 -0.8772  0.9601 -1.3765
 8067TIP3    H245617   0.163   1.439   2.728  0.3498  1.6647 -0.6082
 8068TIP3   OH245618   3.884   4.882   5.650 -0.4663  0.0207  0.3443
 8068TIP3    H145619   3.809   4.823   5.646  0.3338 -1.1765  1.8378
 8068TIP3    H245620   3.953   4.830   5.692  0.9683  1.3274 -0.2810
 8069TIP3   OH245621   1.494   1.957  14.774  0.3639 -0.2657 -0.1248
 8069TIP3    H145622   1.414   1.971  14.825  2.2615  0.0611  3.0703
 8069TIP3    H245623   1.493   1.864  14.752 -0.1183 -0.6753  1.4538
 8070TIP3   OH245624   6.384   4.600   1.285  0.0104 -0.7357  0.3974
 8070TIP3    H145625   6.307   4.545   1.272  0.0023 -0.2243 -2.1081
 8070TIP3    H245626   6.351   4.675   1.334 -1.2652 -0.2405 -1.1500
 8071TIP3   OH245627   6.742   2.479   3.985  0.0341 -0.2840 -0.2329
 8071TIP3    H145628   6.737   2.453   3.893  0.5597  0.1253 -0.3751
 8071TIP3    H245629   6.697   2.408   4.032  0.2381 -0.7630 -0.7501
 8072TIP3   OH245630   6.416   1.978   5.848  0.1651  0.6253  0.2541
 8072TIP3    H145631   6.436   1.919   5.920 -1.6606  0.9006  1.0552
 8072TIP3    H245632   6.498   2.025   5.831  0.8841 -0.1377  1.4885
 8073TIP3   OH245633   6.598   5.112   2.067 -0.7450 -0.1669  0.1972
 8073TIP3    H145634   6.541   5.177   2.109 -0.6783 -0.4984  0.8109
 8073TIP3    H245635   6.679   5.115   2.118 -0.9937 -1.2253  0.6673
 8074TIP3   OH245636   1.488   1.678  16.209  0.0421  0.6281 -0.6410
 8074TIP3    H145637   1.555   1.722  16.156 -0.6079  2.2819 -0.1530
 8074TIP3    H245638   1.516   1.692  16.300 -0.4630  0.5183 -0.4641
 8075TIP3   OH245639   0.463   1.742  14.097  0.3566 -0.3860 -0.4466
 8075TIP3    H145640   0.461   1.826  14.142  1.9879 -0.2795 -0.5484
 8075TIP3    H245641   0.373   1.730  14.067 -0.0604  0.9820  0.1663
 8076TIP3   OH245642   2.871   3.635   3.343  0.4857  0.3304  0.3824
 8076TIP3    H145643   2.895   3.688   3.267  0.3693  0.2636  0.2996
 8076TIP3    H245644   2.948   3.581   3.359  0.0567 -0.5612 -0.4612
 8077TIP3   OH245645   6.002   4.736  16.017  0.5277  0.0078  0.2744
 8077TIP3    H145646   6.024   4.827  16.036 -0.4865  0.9257 -2.4042
 8077TIP3    H245647   5.985   4.697  16.102 -2.1099  3.1991  1.4481
 8078TIP3   OH245648   0.924   2.727  15.864  0.2359 -0.5388 -0.0831
 8078TIP3    H145649   0.964   2.787  15.801  0.4163 -2.3817 -1.8102
 8078TIP3    H245650   0.997   2.700  15.920  0.0983  1.0070  0.9163
 8079TIP3   OH245651   1.555   2.792   0.404 -0.3643 -0.1027  0.4070
 8079TIP3    H145652   1.495   2.864   0.423 -1.4390 -0.8378 -0.1411
 8079TIP3    H245653   1.504   2.731   0.351  1.3276 -0.0074 -1.4373
 8080TIP3   OH245654   6.565   1.695   5.539 -0.0636  0.5502 -0.0716
 8080TIP3    H145655   6.564   1.750   5.461 -1.2016 -0.6510 -0.9580
 8080TIP3    H245656   6.576   1.756   5.612 -1.9984  2.0539 -0.9447
 8081TIP3   OH245657   6.026   4.303   2.838  0.1875  0.1466  0.3058
 8081TIP3    H145658   6.096   4.282   2.777  0.9260  2.2454  0.3642
 8081TIP3    H245659   6.061   4.374   2.892 -2.1536  1.6459 -0.0241
 8082TIP3   OH245660   1.303   5.559  16.642  0.1616  0.0860 -0.2414
 8082TIP3    H145661   1.301   5.472  16.681 -0.3825 -0.9610 -2.4826
 8082TIP3    H245662   1.222   5.564  16.591  0.3515  1.7800 -0.4266
 8083TIP3   OH245663   2.576   2.274  13.143 -0.2337  0.2458  0.3761
 8083TIP3    H145664   2.556   2.303  13.054 -1.0407 -0.6492  0.2530
 8083TIP3    H245665   2.579   2.178  13.137  0.8557  0.2144  1.0812
 8084TIP3   OH245666   0.189   3.609   5.769  0.3153 -0.0106  0.1082
 8084TIP3    H145667   0.195   3.514   5.773 -1.9804 -0.1676  1.9340
 8084TIP3    H245668   0.117   3.626   5.708 -0.1875  0.4710  0.8149
 8085TIP3   OH245669   0.323   5.666  15.293 -1.0057  0.0995  0.0056
 8085TIP3    H145670   0.250   5.694  15.237  0.8089  2.1341 -1.5349
 8085TIP3    H245671   0.305   5.706  15.378 -1.3967  1.1576 -0.5509
 8086TIP3   OH245672   5.173   5.982   2.051  0.3671  0.4698  0.1655
 8086TIP3    H145673   5.118   5.905   2.064  1.1695  0.1487  2.1128
 8086TIP3    H245674   5.185   5.989   1.957 -2.1398 -0.0285 -0.2322
 8087TIP3   OH245675   4.079   0.676  14.762  0.1762 -0.4001  0.0054
 8087TIP3    H145676   4.102   0.625  14.684  1.8825 -1.8841  1.3962
 8087TIP3    H245677   4.157   0.729  14.779 -1.1495  1.9474 -0.7562
 8088TIP3   OH245678   2.229   6.002  16.269  0.0611  0.0720 -0.2502
 8088TIP3    H145679   2.223   5.929  16.330 -0.2210  0.2792 -0.0275
 8088TIP3    H245680   2.139   6.030  16.255 -0.0466 -1.0694 -2.1155
 8089TIP3   OH245681   1.452   0.990   2.995 -0.7352 -0.2115 -0.5966
 8089TIP3    H145682   1.542   0.990   2.962 -0.4278 -0.3098  0.2231
 8089TIP3    H245683   1.426   1.082   2.994 -0.9885 -0.2805 -1.7705
 8090TIP3   OH245684   6.044   3.047   5.700  0.3527 -0.0278  0.5775
 8090TIP3    H145685   5.966   3.014   5.746  1.0666  0.8269  2.4944
 8090TIP3    H245686   6.116   3.031   5.761  2.1414 -2.7730 -1.9804
 8091TIP3   OH245687   4.462   3.992  12.092 -0.1825  0.0675 -0.0201
 8091TIP3    H145688   4.541   3.947  12.063 -0.0010 -0.2689  0.9394
 8091TIP3    H245689   4.457   3.972  12.186 -0.6175  1.2709  0.2293
 8092TIP3   OH245690   4.935   0.317   1.512  0.0304  0.5017 -0.0418
 8092TIP3    H145691   4.960   0.224   1.510  1.0725  0.7703 -1.0189
 8092TIP3    H245692   4.840   0.317   1.501  0.1202 -0.4394 -1.0885
 8093TIP3   OH245693   3.414   6.106  17.334 -0.0660  0.6252 -0.0673
 8093TIP3    H145694   3.442   6.060  17.254 -0.8091 -0.6783  0.3920
 8093TIP3    H245695   3.319   6.115  17.324  0.0334  1.8652 -0.0211
 8094TIP3   OH245696   2.578   2.134  12.868  0.2730  0.1337 -0.2611
 8094TIP3    H145697   2.548   2.048  12.839 -2.9368  0.9682  0.1601
 8094TIP3    H245698   2.600   2.180  12.788  2.4796 -1.1378 -0.4677
 8095TIP3   OH245699   2.013   3.578  13.146 -0.1075 -0.2075 -0.1746
 8095TIP3    H145700   2.040   3.531  13.067 -0.6539  2.7441 -2.2987
 8095TIP3    H245701   2.094   3.594  13.194  0.0684 -3.3488  0.7626
 8096TIP3   OH245702   4.650   3.577   5.294 -0.1945 -0.3878 -0.1215
 8096TIP3    H145703   4.708   3.554   5.221 -1.8933 -0.4419 -1.5085
 8096TIP3    H245704   4.677   3.666   5.319 -0.3245  0.0878 -1.5951
 8097TIP3   OH245705   6.545   6.087  10.874 -0.3737 -0.6495 -0.3572
 8097TIP3    H145706   6.633   6.053  10.862 -0.6949 -0.9464 -2.0490
 8097TIP3    H245707   6.548   6.175  10.835 -0.3288  0.1653  1.3726
 8098TIP3   OH245708   2.004   0.987  16.201  0.1852 -0.3484  0.5607
 8098TIP3    H145709   1.940   0.946  16.259 -0.9060  1.9838  1.1429
 8098TIP3    H245710   1.955   1.056  16.157  1.8999  0.3569 -0.3404
 8099TIP3   OH245711   4.820   2.955   0.956 -0.0041  0.1129 -0.5386
 8099TIP3    H145712   4.773   2.915   0.883 -0.3806 -0.0237 -0.2225
 8099TIP3    H245713   4.774   2.925   1.034 -0.8834  1.8866 -0.3152
 8100TIP3   OH245714   6.085   0.721  15.632  0.4664  0.4127  0.1769
 8100TIP3    H145715   6.149   0.772  15.582 -1.3117  0.6854 -1.9582
 8100TIP3    H245716   6.072   0.771  15.712  0.5179  2.0837 -0.8099
 8101TIP3   OH245717   4.384   5.502   2.433  0.1206 -0.2728  0.6037
 8101TIP3    H145718   4.422   5.572   2.486  1.4234  1.7770 -2.7160
 8101TIP3    H245719   4.301   5.539   2.400 -0.1222 -1.0395  0.3416
 8102TIP3   OH245720   6.723   4.805  15.709  0.7235 -0.5657 -0.3595
 8102TIP3    H145721   6.703   4.714  15.688 -0.2239 -0.7274  1.1177
 8102TIP3    H245722   6.817   4.805  15.729  0.5593 -1.4258  0.5079
 8103TIP3   OH245723   3.406   0.129  14.729  0.5156 -0.7494  0.2692
 8103TIP3    H145724   3.457   0.178  14.664 -1.8856  0.2873 -0.9481
 8103TIP3    H245725   3.396   0.189  14.802 -0.7682 -0.0772 -0.4180
 8104TIP3   OH245726   1.590   1.285  13.090  0.5379 -0.0622 -0.7734
 8104TIP3    H145727   1.533   1.266  13.016 -0.6023 -0.1232  0.0846
 8104TIP3    H245728   1.561   1.224  13.158 -0.3089  1.8094  0.6368
 8105TIP3   OH245729   5.927   0.233  13.204  0.5386  0.3865  0.1407
 8105TIP3    H145730   5.872   0.308  13.182  0.9586  0.7900  0.4394
 8105TIP3    H245731   5.981   0.219  13.126 -0.5867 -0.5724 -0.4946
 8106TIP3   OH245732   0.862   4.758  12.212  1.0034  0.4660 -0.9738
 8106TIP3    H145733   0.939   4.727  12.165  2.3140  0.6557  0.9482
 8106TIP3    H245734   0.894   4.826  12.270  0.0558 -1.5082  2.1421
 8107TIP3   OH245735   5.204   3.070   0.319  0.3854  0.6664  0.4805
 8107TIP3    H145736   5.189   3.132   0.389 -0.5854 -0.2347  1.1050
 8107TIP3    H245737   5.298   3.051   0.322  0.4315  1.0045  1.2189
 8108TIP3   OH245738   3.203   3.436   6.164 -0.2358  0.3264  0.1527
 8108TIP3    H145739   3.128   3.381   6.141 -0.0922  0.2279 -0.0843
 8108TIP3    H245740   3.270   3.374   6.193 -0.9122  0.5260  2.3101
 8109TIP3   OH245741   5.420   3.243   2.792 -0.2708  0.0882 -0.4267
 8109TIP3    H145742   5.515   3.241   2.781 -0.0964  0.1101  0.9197
 8109TIP3    H245743   5.386   3.206   2.710  0.9302 -1.1591 -0.4030
 8110TIP3   OH245744   4.400   6.545   5.408  0.2734  0.4022  0.2156
 8110TIP3    H145745   4.463   6.505   5.349  0.9023  0.7865  0.6111
 8110TIP3    H245746   4.364   6.619   5.359  1.3523  1.1805  0.5756
 8111TIP3   OH245747   3.780   0.361   2.407  0.1818  0.0633 -0.8167
 8111TIP3    H145748   3.728   0.314   2.472 -0.3964 -3.3433 -3.4136
 8111TIP3    H245749   3.733   0.443   2.392 -1.2026 -0.3455  0.9829
 8112TIP3   OH245750   1.872   6.073   1.853 -0.0168 -0.1972 -0.1782
 8112TIP3    H145751   1.874   6.116   1.939 -0.9979 -0.0891 -0.1997
 8112TIP3    H245752   1.787   6.029   1.849  0.8951 -2.0480 -0.2280
 8113TIP3   OH245753   3.811   4.892  15.630 -0.0831  0.3193 -0.1539
 8113TIP3    H145754   3.753   4.937  15.569 -1.2723  1.9022  2.0148
 8113TIP3    H245755   3.763   4.891  15.712  1.2491 -2.1692  0.7042
 8114TIP3   OH245756   2.320   3.082  17.167  0.6189  1.4212  0.7297
 8114TIP3    H145757   2.402   3.034  17.180 -0.2510 -0.7391 -1.0958
 8114TIP3    H245758   2.348   3.168  17.135  2.2602 -0.1383 -2.5114
 8115TIP3   OH245759   6.547   5.782  13.249  0.3812 -0.9671  0.0276
 8115TIP3    H145760   6.591   5.713  13.298 -1.0556 -1.9361  0.0142
 8115TIP3    H245761   6.453   5.763  13.259 -0.1542  1.9146  1.3884
 8116TIP3   OH245762   6.138   1.643   0.958 -0.4168  0.4802 -0.1729
 8116TIP3    H145763   6.132   1.733   0.925  0.5506  0.6973  0.2195
 8116TIP3    H245764   6.218   1.609   0.918 -0.7165 -0.1736 -0.2204
 8117TIP3   OH245765   5.268   6.206   6.788  0.1476 -0.0883  0.1130
 8117TIP3    H145766   5.364   6.196   6.785  0.1339 -0.1138 -0.4748
 8117TIP3    H245767   5.254   6.301   6.783  0.1364 -0.1047 -0.2049
 8118TIP3   OH245768   1.416   1.511  15.601 -0.1377 -0.0008 -0.1706
 8118TIP3    H145769   1.369   1.558  15.533  0.6067 -1.3317 -1.6780
 8118TIP3    H245770   1.350   1.493  15.668 -1.0627  0.6930 -0.8739
 8119TIP3   OH245771   2.727   4.181  12.928  0.2337  0.3363 -0.4318
 8119TIP3    H145772   2.653   4.142  12.974  1.4201 -1.3663  0.1381
 8119TIP3    H245773   2.743   4.123  12.854  2.5501 -0.8725  0.8884
 8120TIP3   OH245774   4.573   4.606   2.457  0.1831  0.2468  0.3579
 8120TIP3    H145775   4.536   4.627   2.371 -0.7608 -0.6398  0.5239
 8120TIP3    H245776   4.617   4.522   2.444 -3.9927 -2.4747  1.6787
 8121TIP3   OH245777   2.408   3.802  15.137 -0.3260 -0.2694 -0.5765
 8121TIP3    H145778   2.361   3.885  15.144  0.5480  0.1286  0.9551
 8121TIP3    H245779   2.428   3.793  15.044  1.0275  2.0796 -0.5669
 8122TIP3   OH245780   3.809   1.483  15.858 -0.4854  0.3493  0.0523
 8122TIP3    H145781   3.720   1.454  15.877 -0.3592 -0.5536 -0.6548
 8122TIP3    H245782   3.859   1.457  15.935 -0.3594 -1.4768 -0.5909
 8123TIP3   OH245783   0.420   0.232  11.115 -0.4791  0.3474  0.0511
 8123TIP3    H145784   0.442   0.320  11.084 -2.5985  0.7714 -0.3841
 8123TIP3    H245785   0.342   0.244  11.169  0.6586 -0.9627  2.1110
 8124TIP3   OH245786   3.129   6.104  17.195  0.5575  0.6577  0.4315
 8124TIP3    H145787   3.151   6.042  17.125  1.7178  0.9175  0.5368
 8124TIP3    H245788   3.057   6.062  17.242  1.5319 -0.7818  0.7047
 8125TIP3   OH245789   2.356   2.860  17.409 -0.0158  0.1118  0.1816
 8125TIP3    H145790   2.357   2.955  17.410  0.4769  0.1043  0.9967
 8125TIP3    H245791   2.410   2.836  17.333 -1.7835  0.4710 -1.2669
 8126TIP3   OH245792   3.960   0.924   0.632  0.1006  0.1457 -0.0020
 8126TIP3    H145793   3.960   0.919   0.536 -1.7599 -1.7436  0.0409
 8126TIP3    H245794   4.050   0.901   0.657  0.4099 -0.0912 -1.2614
 8127TIP3   OH245795   3.482   2.326  13.567 -0.5132  0.6347  0.7744
 8127TIP3    H145796   3.428   2.247  13.565 -2.3043  1.8050 -0.4340
 8127TIP3    H245797   3.550   2.310  13.501 -1.5241  0.4942 -0.2678
 8128TIP3   OH245798   2.352   1.259   1.360  0.0429 -0.2259  0.9187
 8128TIP3    H145799   2.372   1.244   1.267  1.4462 -0.7407  1.2696
 8128TIP3    H245800   2.265   1.221   1.373 -0.0239 -0.4476 -0.1127
 8129TIP3   OH245801   4.731   2.696   4.815  0.1598 -0.1077 -0.1724
 8129TIP3    H145802   4.702   2.763   4.753  2.2378  0.6988 -0.3299
 8129TIP3    H245803   4.784   2.636   4.763 -2.2218 -2.4143 -0.2017
 8130TIP3   OH245804   2.128   1.027  11.669  0.4289  0.3676  0.5788
 8130TIP3    H145805   2.131   0.934  11.648 -0.0014  0.2380  1.0889
 8130TIP3    H245806   2.172   1.070  11.594  1.5784 -0.3139  0.8419
 8131TIP3   OH245807   1.064   1.738   4.047  0.2335 -0.0349  0.4420
 8131TIP3    H145808   0.975   1.720   4.080  0.2239 -3.0016 -0.8147
 8131TIP3    H245809   1.063   1.830   4.024 -2.3050  0.1955  1.1465
 8132TIP3   OH245810   5.296   4.094  13.498 -0.2555  0.9126  0.1445
 8132TIP3    H145811   5.248   4.091  13.581 -1.9581  0.4987 -0.7872
 8132TIP3    H245812   5.304   4.002  13.473  1.1977  0.9676  0.3313
 8133TIP3   OH245813   4.291   2.629   3.668 -0.0020 -0.3895  0.2382
 8133TIP3    H145814   4.208   2.632   3.621  0.8632 -0.2233 -1.3662
 8133TIP3    H245815   4.301   2.537   3.694  0.4093 -0.9332 -1.7013
 8134TIP3   OH245816   4.008   6.633  17.268 -0.0059 -0.2420  0.0824
 8134TIP3    H145817   4.044   6.701  17.326  0.7270 -1.7649  1.4910
 8134TIP3    H245818   4.056   6.644  17.186 -0.5362  1.4872 -0.0511
 8135TIP3   OH245819   5.711   5.722  13.921  0.8297  0.0438 -0.3269
 8135TIP3    H145820   5.645   5.736  13.854  1.6564  0.4884 -1.0789
 8135TIP3    H245821   5.783   5.678  13.875  0.7852 -1.0827  0.6242
 8136TIP3   OH245822   2.304   4.020  14.535 -0.5689 -0.4147  0.0243
 8136TIP3    H145823   2.275   4.078  14.465 -1.8414 -0.5313  0.4232
 8136TIP3    H245824   2.359   3.955  14.491 -0.3353  0.2398 -0.6570
 8137TIP3   OH245825   1.498   1.806   3.794 -0.4279  0.6463  0.2805
 8137TIP3    H145826   1.585   1.833   3.826  0.1073  1.1621 -1.4591
 8137TIP3    H245827   1.467   1.743   3.859  1.2662  0.4217  0.9346
 8138TIP3   OH245828   1.655   2.401   2.868 -0.2598  0.0430  0.3501
 8138TIP3    H145829   1.582   2.402   2.930 -0.5683  0.6798 -0.0137
 8138TIP3    H245830   1.729   2.437   2.917  0.0301 -1.3222  0.9626
 8139TIP3   OH245831   5.692   2.568  11.516  0.3103  0.0555 -0.7552
 8139TIP3    H145832   5.651   2.484  11.536  0.2512  0.2646  0.0583
 8139TIP3    H245833   5.685   2.577  11.421 -4.2265  1.3512 -0.5433
 8140TIP3   OH245834   1.636   6.152  12.113  0.9034 -0.2571 -0.2556
 8140TIP3    H145835   1.603   6.211  12.046  2.1603  1.2516  0.3956
 8140TIP3    H245836   1.566   6.088  12.125 -1.0494  1.7913 -0.1411
 8141TIP3   OH245837   4.510   4.380   4.482  1.2108 -0.1749 -0.2327
 8141TIP3    H145838   4.477   4.413   4.398 -2.1654 -0.3674  0.8750
 8141TIP3    H245839   4.601   4.410   4.485  0.3221  3.3265 -2.2060
 8142TIP3   OH245840   2.777   5.050  13.299  0.4847 -0.2305  0.0681
 8142TIP3    H145841   2.864   5.014  13.281  0.0794 -0.9230 -0.5764
 8142TIP3    H245842   2.743   5.075  13.213 -0.1020 -0.3076  0.2707
 8143TIP3   OH245843   0.100   5.654   3.766 -0.4683  0.1716  0.0157
 8143TIP3    H145844   0.146   5.614   3.840  1.8943  1.0979 -0.8570
 8143TIP3    H245845   0.095   5.747   3.788  1.7486  0.7630 -1.5907
 8144TIP3   OH245846   2.263   3.949   5.267  0.3066  0.5365 -0.1392
 8144TIP3    H145847   2.231   3.870   5.222 -2.1011  1.2713  0.1320
 8144TIP3    H245848   2.265   4.016   5.198 -0.2467  0.8646  0.1531
 8145TIP3   OH245849   2.959   1.490  12.430  0.0027  0.1481 -0.2298
 8145TIP3    H145850   2.976   1.525  12.518 -1.0308  0.0033  0.0381
 8145TIP3    H245851   3.025   1.423  12.418  0.2443  0.2648  0.3869
 8146TIP3   OH245852   5.026   5.801   2.285 -0.0355 -0.2296 -0.4164
 8146TIP3    H145853   5.095   5.858   2.317 -0.6605 -0.1183  0.8041
 8146TIP3    H245854   4.946   5.853   2.292 -0.3094 -0.4916 -1.4332
 8147TIP3   OH245855   5.144   6.731  11.952  0.0215 -0.2659  0.0644
 8147TIP3    H145856   5.166   6.731  11.859 -2.0938  1.8894 -0.5391
 8147TIP3    H245857   5.048   6.734  11.954  0.0073 -0.9339  2.3275
 8148TIP3   OH245858   4.569   6.698  11.177  0.4625  0.0710 -0.5691
 8148TIP3    H145859   4.487   6.658  11.148  1.0916 -0.6911 -1.3855
 8148TIP3    H245860   4.576   6.676  11.270  0.1765 -0.6389 -0.7096
 8149TIP3   OH245861   5.002   5.751  14.366 -0.2607  0.4454 -0.4723
 8149TIP3    H145862   5.097   5.764  14.363 -0.4786  3.6674  1.4735
 8149TIP3    H245863   4.966   5.840  14.367 -3.1083 -0.5686  1.9674
 8150TIP3   OH245864   5.003   5.093  16.006 -0.2765 -0.5630  0.2609
 8150TIP3    H145865   5.046   5.017  15.966 -0.4205 -0.3877 -0.2279
 8150TIP3    H245866   4.946   5.055  16.073 -0.6655 -0.9162 -0.2658
 8151TIP3   OH245867   1.275   3.631   5.949 -0.4064 -0.1945  0.1226
 8151TIP3    H145868   1.329   3.616   6.027 -0.3912  0.8939  0.3423
 8151TIP3    H245869   1.252   3.724   5.954 -0.3283 -0.0831 -1.2126
 8152TIP3   OH245870   0.781   5.788  17.396  0.0381 -0.1053 -0.0522
 8152TIP3    H145871   0.864   5.792  17.349  0.5831  0.2433  0.9101
 8152TIP3    H245872   0.805   5.762  17.485 -0.8394  0.3618  0.3313
 8153TIP3   OH245873   3.747   1.856  15.506  0.3687 -0.4530 -0.6580
 8153TIP3    H145874   3.697   1.814  15.577 -0.8931  0.1497 -1.1491
 8153TIP3    H245875   3.802   1.786  15.471 -0.2371 -1.1886 -0.1830
 8154TIP3   OH245876   5.866   0.910  14.710 -0.6909 -0.1161  0.0272
 8154TIP3    H145877   5.883   0.875  14.622 -1.6492 -1.9692  0.5258
 8154TIP3    H245878   5.950   0.903  14.755 -0.7357 -1.3429 -0.0514
 8155TIP3   OH245879   1.701   0.169  11.515 -0.5654  0.9472  0.5842
 8155TIP3    H145880   1.693   0.248  11.461 -2.1120  0.5379  0.1424
 8155TIP3    H245881   1.688   0.096  11.453  0.6031  0.3490  1.0211
 8156TIP3   OH245882   2.098   6.414   1.266  0.3805 -0.5661 -0.0457
 8156TIP3    H145883   2.171   6.385   1.320  0.5033  0.6851  0.4854
 8156TIP3    H245884   2.051   6.333   1.244  0.7816 -1.1754  1.2622
 8157TIP3   OH245885   3.626   2.875  11.793 -0.3990  0.3304 -0.0622
 8157TIP3    H145886   3.669   2.803  11.747 -1.8829 -0.8101  0.3041
 8157TIP3    H245887   3.574   2.919  11.725  1.0946  1.6043 -0.4648
 8158TIP3   OH245888   6.408   0.029   1.983 -0.4169  0.5821  0.1576
 8158TIP3    H145889   6.350  -0.027   1.932 -0.1768 -0.3138  0.8335
 8158TIP3    H245890   6.356   0.053   2.060 -0.2721  0.6998  0.2187
 8159TIP3   OH245891   3.291   2.266  11.046 -0.3475 -0.0270 -0.3306
 8159TIP3    H145892   3.248   2.271  10.961 -1.6973  1.0538  0.3831
 8159TIP3    H245893   3.284   2.354  11.082  1.1025 -0.2104  0.4957
 8160TIP3   OH245894   5.136   3.918   4.506  0.6402  0.1742  0.2045
 8160TIP3    H145895   5.136   4.004   4.464  1.9963  0.1602  0.1144
 8160TIP3    H245896   5.169   3.858   4.439 -0.0645 -0.3779  0.3438
 8161TIP3   OH245897   4.303   4.987   5.752  0.2836 -0.1617 -0.0916
 8161TIP3    H145898   4.242   5.047   5.711 -0.7679 -0.9903  0.2079
 8161TIP3    H245899   4.331   4.929   5.681  0.2832 -0.1322 -0.1161
 8162TIP3   OH245900   1.742   0.233   3.632  0.3514 -0.2694  0.1483
 8162TIP3    H145901   1.757   0.214   3.539  0.5561  0.9098 -0.0728
 8162TIP3    H245902   1.655   0.272   3.635  1.4783  2.4798 -0.0057
 8163TIP3   OH245903   2.972   6.127   6.256 -0.4731 -1.0289 -0.0293
 8163TIP3    H145904   2.971   6.032   6.263 -1.7021 -0.9701  0.9417
 8163TIP3    H245905   2.947   6.158   6.344 -2.2836  0.1243 -0.8924
 8164TIP3   OH245906   2.525   4.388  14.011 -0.3333  0.4399  0.0562
 8164TIP3    H145907   2.488   4.472  13.983 -1.4429  0.4417  1.4341
 8164TIP3    H245908   2.607   4.411  14.055  0.3214  0.6091 -1.1942
 8165TIP3   OH245909   1.475   6.079  16.249 -0.3140  0.1942  0.3456
 8165TIP3    H145910   1.479   5.983  16.254 -0.3542  0.1852  0.2123
 8165TIP3    H245911   1.416   6.097  16.176 -1.3472  0.3284  1.1944
 8166TIP3   OH245912   3.047   4.900  16.644 -0.1648 -0.9362  0.3669
 8166TIP3    H145913   3.076   4.818  16.603  2.2031  0.0251 -0.0698
 8166TIP3    H245914   3.049   4.964  16.573  1.3737  0.1912  1.3811
 8167TIP3   OH245915   3.704   1.939   3.170  0.3785 -0.0364  0.2370
 8167TIP3    H145916   3.735   2.008   3.229  0.3634  0.1067  0.0791
 8167TIP3    H245917   3.722   1.857   3.216 -0.7378  0.1159  0.9721
 8168TIP3   OH245918   3.428   0.234   6.293  1.0549 -0.5615 -0.2225
 8168TIP3    H145919   3.518   0.207   6.314  1.6380  1.7187  0.6098
 8168TIP3    H245920   3.373   0.176   6.345  2.1826 -0.4694  1.1567
 8169TIP3   OH245921   0.276   3.690  16.675 -0.0032  0.2120 -0.0814
 8169TIP3    H145922   0.250   3.726  16.591  0.0228  0.3613 -0.0250
 8169TIP3    H245923   0.199   3.643  16.706  0.4291 -1.0900 -0.8598
 8170TIP3   OH245924   3.478   0.734  12.125 -0.7564 -0.0938 -0.2148
 8170TIP3    H145925   3.561   0.745  12.170 -0.6209  1.5256 -0.7835
 8170TIP3    H245926   3.443   0.823  12.118 -1.4070 -0.4502 -2.0707
 8171TIP3   OH245927   3.671   3.197   4.589 -0.6595  0.0059  0.3818
 8171TIP3    H145928   3.719   3.261   4.537 -0.1256  0.2403  1.1460
 8171TIP3    H245929   3.586   3.190   4.547  0.1714 -0.7402 -1.2709
 8172TIP3   OH245930   3.506   3.930   4.921 -0.0580  0.3700  0.5445
 8172TIP3    H145931   3.500   3.877   4.842 -2.2774  1.9086 -0.3878
 8172TIP3    H245932   3.416   3.947   4.947  0.5623  2.4529  1.6340
 8173TIP3   OH245933   0.431   1.748  11.545  0.1064 -0.1967  0.1439
 8173TIP3    H145934   0.447   1.675  11.605  2.8206  0.3789  0.2468
 8173TIP3    H245935   0.482   1.727  11.467 -1.0312  0.4637 -0.8126
 8174TIP3   OH245936   6.707   3.675   4.875 -0.1368 -0.6193  0.2784
 8174TIP3    H145937   6.757   3.749   4.841 -0.7675 -0.2163  0.2161
 8174TIP3    H245938   6.626   3.675   4.824 -0.1763 -1.3105  0.3254
 8175TIP3   OH245939   1.612   3.752   3.236  0.9287 -0.5432 -0.4246
 8175TIP3    H145940   1.592   3.708   3.154  0.8910  0.5730 -1.0296
 8175TIP3    H245941   1.543   3.817   3.247  0.9470 -0.6529  0.4842
 8176TIP3   OH245942   2.043   3.312  16.074 -0.0906  0.0910  0.2052
 8176TIP3    H145943   2.077   3.228  16.105  0.7904 -0.1126 -1.2038
 8176TIP3    H245944   1.956   3.291  16.039  0.5120 -0.4607 -1.0287
 8177TIP3   OH245945   5.127   3.348  11.705  0.3856 -0.2089 -0.2331
 8177TIP3    H145946   5.193   3.281  11.721  0.2754 -0.5759 -1.2189
 8177TIP3    H245947   5.175   3.431  11.704  0.4829 -0.2317  1.2466
 8178TIP3   OH245948   5.583   6.559   1.017  0.1730  0.0680 -0.1180
 8178TIP3    H145949   5.520   6.598   0.956  0.8285  0.7236 -0.3929
 8178TIP3    H245950   5.668   6.584   0.982  0.6014 -0.9920  0.1345
 8179TIP3   OH245951   3.294   2.552   3.264  0.5261  0.5413  0.4050
 8179TIP3    H145952   3.201   2.567   3.247  0.2591  0.7564  1.9363
 8179TIP3    H245953   3.338   2.625   3.219 -0.0710  0.6759  0.0226
 8180TIP3   OH245954   6.058   5.366   3.164  0.4921 -0.0016  0.0154
 8180TIP3    H145955   6.071   5.440   3.104  2.6801  0.8023  1.3857
 8180TIP3    H245956   6.098   5.292   3.118  1.5924  0.4734  0.1754
 8181TIP3   OH245957   1.666   0.378  16.668 -0.3567  0.2602 -0.2003
 8181TIP3    H145958   1.746   0.402  16.715 -0.7838  1.9037 -0.2583
 8181TIP3    H245959   1.606   0.348  16.736 -0.2848  0.6860  0.0490
 8182TIP3   OH245960   2.545   6.516   5.192  0.4075 -0.4230  0.1650
 8182TIP3    H145961   2.589   6.576   5.133  0.1132 -0.7151 -0.3544
 8182TIP3    H245962   2.548   6.560   5.277 -0.0238  0.4373 -0.2536
 8183TIP3   OH245963   5.743   4.348   3.592  0.3335  0.0089  0.1382
 8183TIP3    H145964   5.678   4.387   3.533 -0.3289 -2.4982 -0.9254
 8183TIP3    H245965   5.811   4.315   3.534  0.6153 -0.8147  0.9079
 8184TIP3   OH245966   1.942   1.093  13.231 -0.0744 -0.1303  0.1503
 8184TIP3    H145967   1.898   1.012  13.259  2.9747 -2.0737 -0.2117
 8184TIP3    H245968   1.957   1.141  13.312  0.7108 -1.4109  0.8092
 8185TIP3   OH245969   4.028   1.165   1.221 -0.4600 -0.1686  0.1813
 8185TIP3    H145970   3.954   1.166   1.282 -1.4975  2.8043 -0.9526
 8185TIP3    H245971   4.098   1.212   1.268 -0.8527  1.0295 -0.3868
 8186TIP3   OH245972   3.365   5.893  16.709 -0.2012 -0.1777  0.0596
 8186TIP3    H145973   3.430   5.828  16.738 -1.3244 -1.1797  0.4145
 8186TIP3    H245974   3.415   5.953  16.654  1.1543 -0.5657  0.8092
 8187TIP3   OH245975   2.125   4.279   0.020 -0.0083  0.2611  0.3951
 8187TIP3    H145976   2.144   4.343   0.089  2.7837 -0.1908  0.1560
 8187TIP3    H245977   2.151   4.195   0.058  1.7776  0.0245 -1.2025
 8188TIP3   OH245978   4.347   3.633  15.302  0.3396  0.2568 -0.5900
 8188TIP3    H145979   4.328   3.697  15.233  0.4944 -0.0737 -0.9405
 8188TIP3    H245980   4.305   3.669  15.380  0.9787  1.1223 -0.6267
 8189TIP3   OH245981   5.434   0.157   1.494 -0.3502 -0.4862 -0.4918
 8189TIP3    H145982   5.491   0.159   1.570  0.2392 -0.2950 -0.9350
 8189TIP3    H245983   5.347   0.178   1.529 -0.0641 -0.2780  0.1033
 8190TIP3   OH245984   4.897   6.206  11.291 -0.0317 -0.7002 -0.2331
 8190TIP3    H145985   4.981   6.231  11.330 -0.4684  0.8076 -0.1922
 8190TIP3    H245986   4.878   6.276  11.228 -0.8300 -1.4917 -0.8992
 8191TIP3   OH245987   6.524   5.590  16.074  0.2122 -0.5386 -0.7342
 8191TIP3    H145988   6.455   5.656  16.082 -0.8880 -1.7814  1.4248
 8191TIP3    H245989   6.479   5.514  16.036  0.3663 -1.3117  0.5540
 8192TIP3   OH245990   6.218   4.627  12.341 -0.4313  0.0350 -0.4546
 8192TIP3    H145991   6.178   4.671  12.266 -1.9462 -0.6041 -0.0583
 8192TIP3    H245992   6.274   4.560  12.303 -0.5045  0.2858 -1.0109
 8193TIP3   OH245993   4.438   2.834  14.109 -0.1787  0.1296  0.8120
 8193TIP3    H145994   4.520   2.851  14.154 -0.2490  0.1836  0.9195
 8193TIP3    H245995   4.415   2.918  14.069  0.3769 -0.1543 -0.1395
 8194TIP3   OH245996   0.102   2.366  16.846 -0.1032  0.1692 -0.2450
 8194TIP3    H145997   0.144   2.449  16.868  0.3835 -0.5862  1.8833
 8194TIP3    H245998   0.157   2.300  16.887 -1.2445 -1.1253 -0.7286
 8195TIP3   OH245999   3.943   0.613  11.241 -0.5593  0.4796 -0.0533
 8195TIP3    H146000   3.941   0.553  11.316  1.4185 -0.2774 -0.5575
 8195TIP3    H246001   3.851   0.621  11.216 -0.9137 -2.7937 -0.2568
 8196TIP3   OH246002   2.513   6.703  16.719 -0.2945 -0.0296 -0.0629
 8196TIP3    H146003   2.513   6.686  16.813 -0.1737  0.3650  0.0120
 8196TIP3    H246004   2.542   6.794  16.711 -2.6897  0.7608 -0.3463
 8197TIP3   OH246005   4.707   0.975  17.256 -0.3396 -0.2900 -0.5155
 8197TIP3    H146006   4.651   0.948  17.329  1.0093  0.0968  0.7117
 8197TIP3    H246007   4.734   1.064  17.279 -0.0497 -0.0852 -1.5958
 8198TIP3   OH246008   5.807   6.652  13.858 -0.3010  0.0102 -0.4816
 8198TIP3    H146009   5.826   6.653  13.764  0.5761  1.1906 -0.3180
 8198TIP3    H246010   5.770   6.738  13.875 -1.4456 -0.5789  0.0818
 8199TIP3   OH246011   6.623   5.711  11.220  0.0098 -0.5429 -0.1946
 8199TIP3    H146012   6.692   5.737  11.160 -1.0341  0.3403 -1.0651
 8199TIP3    H246013   6.559   5.664  11.166 -0.9085  0.2013  0.1997
 8200TIP3   OH246014   3.089   0.300  17.230  0.2501 -0.0094 -0.1552
 8200TIP3    H146015   2.995   0.280  17.234 -0.0820  1.2169 -1.2110
 8200TIP3    H246016   3.128   0.224  17.187 -0.2351 -0.5291  0.2920
 8201TIP3   OH246017   1.150   2.784   6.293  0.0812  0.0944 -0.0069
 8201TIP3    H146018   1.066   2.797   6.338  0.4539 -0.7506  0.9831
 8201TIP3    H246019   1.127   2.747   6.208 -0.5745  0.3487  0.0578
 8202TIP3   OH246020   2.634   4.083  15.628 -0.4255  0.2557 -0.1194
 8202TIP3    H146021   2.620   4.052  15.539 -0.5892  0.9501 -0.3444
 8202TIP3    H246022   2.643   4.178  15.619  1.8115  0.1335  0.3309
 8203TIP3   OH246023   1.757   0.248  12.925 -0.5195 -0.0517  0.0854
 8203TIP3    H146024   1.774   0.216  13.014 -0.1790  0.5857  0.2596
 8203TIP3    H246025   1.792   0.180  12.868  2.0524  0.8508  0.4321
 8204TIP3   OH246026   5.439   4.857   5.227  0.6423 -0.7433  0.0977
 8204TIP3    H146027   5.440   4.879   5.320 -0.7572  0.5154 -0.1420
 8204TIP3    H246028   5.436   4.941   5.182 -2.2241 -1.2577 -0.9373
 8205TIP3   OH246029   5.562   4.806   1.762  0.5957  0.2704 -0.6446
 8205TIP3    H146030   5.578   4.712   1.749 -0.5974 -0.0022 -0.3059
 8205TIP3    H246031   5.473   4.820   1.729  0.1864  0.9692  0.6743
 8206TIP3   OH246032   3.144   4.577   3.735 -0.3773 -0.5414 -0.4214
 8206TIP3    H146033   3.185   4.592   3.820 -0.6947  0.1804 -0.3837
 8206TIP3    H246034   3.051   4.597   3.750 -0.9227 -2.8499 -0.3126
 8207TIP3   OH246035   0.357   3.540   4.882 -0.2163  0.0119 -0.1159
 8207TIP3    H146036   0.402   3.584   4.954 -0.6125 -0.0297  0.1629
 8207TIP3    H246037   0.404   3.457   4.872 -0.4328 -0.1830  0.4014
 8208TIP3   OH246038   3.828   4.204  14.467  0.0116  0.0343  0.1145
 8208TIP3    H146039   3.813   4.276  14.405 -2.2123 -2.6049 -2.6988
 8208TIP3    H246040   3.919   4.177  14.451  0.0094  0.4909 -0.7249
 8209TIP3   OH246041   3.012   1.976   2.029 -0.3851 -0.5042  0.3191
 8209TIP3    H146042   3.008   1.915   2.103  0.1767 -2.2853 -1.0544
 8209TIP3    H246043   3.089   1.948   1.979  0.1969  1.6733 -0.1320
 8210TIP3   OH246044   4.618   1.818   5.835 -0.4406 -0.1623  0.0342
 8210TIP3    H146045   4.654   1.904   5.856 -1.6109  0.1958  0.7198
 8210TIP3    H246046   4.593   1.824   5.743 -1.5403  0.6521  0.3572
 8211TIP3   OH246047   4.514   4.139  10.450  0.0991 -0.1177  0.5220
 8211TIP3    H146048   4.583   4.072  10.452  0.1555 -0.0806 -0.0565
 8211TIP3    H246049   4.457   4.116  10.523  1.0817  0.2389  1.4244
 8212TIP3   OH246050   6.150   1.844   3.655  0.1108 -0.0531  0.2146
 8212TIP3    H146051   6.151   1.891   3.738  0.8777 -1.4581  1.0204
 8212TIP3    H246052   6.090   1.771   3.668  1.3248 -1.1141  0.0217
 8213TIP3   OH246053   1.144   1.303   5.466  0.2751 -0.1331  0.6352
 8213TIP3    H146054   1.215   1.240   5.451  0.9748  0.9089 -0.6356
 8213TIP3    H246055   1.162   1.339   5.552  0.2996 -1.1057  1.0571
 8214TIP3   OH246056   6.277   4.614   5.150 -0.1473  0.5279 -0.2507
 8214TIP3    H146057   6.349   4.559   5.181 -0.2466  1.6319  2.1999
 8214TIP3    H246058   6.198   4.568   5.178 -0.3180  0.5915 -0.6253
 8215TIP3   OH246059   2.057   4.231  17.007 -0.4326 -0.5700  0.1316
 8215TIP3    H146060   2.021   4.317  17.031  0.7269 -0.4493  1.6059
 8215TIP3    H246061   1.982   4.181  16.977 -1.1965  0.8462 -0.4495
 8216TIP3   OH246062   4.197   6.656  12.061  0.0943 -0.4212 -0.8149
 8216TIP3    H146063   4.197   6.715  11.985 -0.4744  1.8234  0.8109
 8216TIP3    H246064   4.178   6.714  12.136 -0.7503 -2.7423  0.8749
 8217TIP3   OH246065   5.067   5.015  15.245  0.2555  0.9788  0.3193
 8217TIP3    H146066   5.110   5.091  15.206 -0.3535 -0.3776 -3.4185
 8217TIP3    H246067   4.974   5.037  15.242  0.2141  1.0495  1.6494
 8218TIP3   OH246068   4.849   4.794  11.254 -0.8519 -0.1354  0.1872
 8218TIP3    H146069   4.917   4.859  11.239 -1.5722  0.5641 -0.0884
 8218TIP3    H246070   4.796   4.795  11.174 -0.9744 -0.9433  0.2411
 8219TIP3   OH246071   2.925   6.036   5.125  0.9690 -0.1260  0.4307
 8219TIP3    H146072   2.901   6.128   5.138 -0.9391 -0.7677  2.0479
 8219TIP3    H246073   3.004   6.024   5.178  2.3888  0.9745 -1.3320
 8220TIP3   OH246074   3.322   4.759   3.380  0.6630 -0.2575 -0.1319
 8220TIP3    H146075   3.318   4.840   3.430 -0.4345 -0.7092  0.5397
 8220TIP3    H246076   3.325   4.689   3.445  0.4069 -0.8071 -0.6915
 8221TIP3   OH246077   4.157   0.752  17.030 -0.0332 -0.2853 -0.1003
 8221TIP3    H146078   4.131   0.675  17.081 -0.1288  0.6167  1.2519
 8221TIP3    H246079   4.243   0.729  16.994 -0.6455 -1.5305 -0.8458
 8222TIP3   OH246080   2.651   4.349  15.627  0.0944 -0.6594  0.0091
 8222TIP3    H146081   2.690   4.426  15.668 -1.0826  0.7043 -1.3226
 8222TIP3    H246082   2.675   4.356  15.534 -2.0322 -0.5673 -0.5684
 8223TIP3   OH246083   2.378   5.527   1.290 -0.3470 -0.1125  0.1131
 8223TIP3    H146084   2.427   5.497   1.213  0.5187 -0.3820  0.7613
 8223TIP3    H246085   2.384   5.455   1.352 -2.3935 -0.5670 -0.1313
 8224TIP3   OH246086   2.673   1.183   1.050  0.5816  0.4314 -0.3698
 8224TIP3    H146087   2.679   1.090   1.027  2.2029  0.2898  0.4725
 8224TIP3    H246088   2.590   1.191   1.097  0.3561 -0.5515 -0.5808
 8225TIP3   OH246089   2.939   5.881  15.854 -0.2621  0.0555 -0.1219
 8225TIP3    H146090   2.942   5.883  15.949  0.1433 -1.4579 -0.0801
 8225TIP3    H246091   2.998   5.810  15.829 -0.3030  0.4709 -1.5112
 8226TIP3   OH246092   5.035   0.375  16.752 -1.1741 -0.5044 -0.5260
 8226TIP3    H146093   5.050   0.464  16.720  2.1917 -0.6735  0.1790
 8226TIP3    H246094   4.954   0.347  16.709 -0.1598  1.4182 -4.0791
 8227TIP3   OH246095   2.713   6.312  14.453  0.4757  0.2137 -0.8541
 8227TIP3    H146096   2.696   6.220  14.474  0.2817  0.9876  3.1740
 8227TIP3    H246097   2.809   6.319  14.455  0.4591  0.4793  1.3813
 8228TIP3   OH246098   5.931   1.302   5.839  0.3391  0.2434  0.0851
 8228TIP3    H146099   5.993   1.341   5.778 -0.3323  2.0297  0.4875
 8228TIP3    H246100   5.858   1.365   5.843  0.6419  0.5437  3.1647
 8229TIP3   OH246101   4.894   1.354   0.142 -0.3673  0.0467 -0.2406
 8229TIP3    H146102   4.922   1.371   0.052 -0.0224  1.1008  0.0442
 8229TIP3    H246103   4.849   1.435   0.169  2.9587  1.4329  1.8042
 8230TIP3   OH246104   5.280   6.347  16.125 -0.0302  0.1532  0.3837
 8230TIP3    H146105   5.338   6.283  16.166 -0.1010  1.6301  3.0072
 8230TIP3    H246106   5.192   6.319  16.151 -0.1805  0.4709  0.2222
 8231TIP3   OH246107   5.915   1.170   6.108  0.1635 -0.2006 -0.1679
 8231TIP3    H146108   5.952   1.227   6.041  2.1834 -0.7123  0.4278
 8231TIP3    H246109   5.968   1.187   6.186 -0.6833 -1.2170  0.6664
 8232TIP3   OH246110   0.246   0.224   2.749  0.2263  0.4322 -0.7065
 8232TIP3    H146111   0.304   0.249   2.821 -0.1364  1.6383 -0.8030
 8232TIP3    H246112   0.210   0.307   2.718 -1.3798 -0.2647 -0.7997
 8233TIP3   OH246113   5.859   5.146  16.629  0.2583 -0.4074  0.5309
 8233TIP3    H146114   5.900   5.063  16.653  0.7030 -0.7008 -1.1481
 8233TIP3    H246115   5.780   5.121  16.580  0.0705  0.1554  0.5403
 8234TIP3   OH246116   6.092   2.805   6.109 -0.3728  0.6324 -0.0730
 8234TIP3    H146117   6.002   2.802   6.077  0.5885 -0.8107 -3.0889
 8234TIP3    H246118   6.130   2.882   6.065  0.3056  0.1789 -0.3020
 8235TIP3   OH246119   0.872   0.233  15.373  0.3412 -0.5834  0.3007
 8235TIP3    H146120   0.935   0.180  15.421  0.4906  0.1710  0.9670
 8235TIP3    H246121   0.786   0.208  15.408  0.4154 -0.3524  0.6473
 8236TIP3   OH246122   0.929   5.920  16.745  0.4293 -0.1783 -0.2299
 8236TIP3    H146123   0.953   6.012  16.756  0.5443 -0.1964 -0.3277
 8236TIP3    H246124   1.008   5.879  16.709  0.3461 -0.2955 -0.2794
 8237TIP3   OH246125   3.594   6.313   1.389  0.2534  0.4425 -0.6627
 8237TIP3    H146126   3.541   6.236   1.409 -0.1313  0.9534  0.3432
 8237TIP3    H246127   3.560   6.345   1.305 -0.1406 -0.0031 -0.6722
 8238TIP3   OH246128   5.421   1.412   2.619 -0.1851 -0.4155 -0.2671
 8238TIP3    H146129   5.405   1.461   2.699 -0.8439  0.9576 -1.2062
 8238TIP3    H246130   5.513   1.429   2.598 -0.5999  1.0640 -0.9839
 8239TIP3   OH246131   2.617   6.187   0.650  0.5599 -0.4152  0.0760
 8239TIP3    H146132   2.609   6.193   0.745  1.1808 -0.9967  0.1736
 8239TIP3    H246133   2.588   6.273   0.619  1.0222  0.0376  0.8398
 8240TIP3   OH246134   1.236   5.833  16.301 -0.4700  0.2055 -0.5342
 8240TIP3    H146135   1.196   5.901  16.355 -0.1930  0.7185 -0.9723
 8240TIP3    H246136   1.257   5.876  16.218  1.5929  0.1374 -0.0914
 8241TIP3   OH246137   6.697   2.162   4.284 -0.3330  0.1834 -0.2176
 8241TIP3    H146138   6.704   2.070   4.258  1.3428  0.0531  0.5645
 8241TIP3    H246139   6.661   2.159   4.373  0.1990  0.2470  0.0032
 8242TIP3   OH246140   2.731   6.499  14.987  0.3753  0.1547 -0.7527
 8242TIP3    H146141   2.651   6.489  14.936  1.5688 -0.1781 -2.6800
 8242TIP3    H246142   2.731   6.590  15.016 -1.9476 -0.4632  1.6467
 8243TIP3   OH246143   2.458   2.757   0.571  0.4838 -0.0107  0.1926
 8243TIP3    H146144   2.544   2.786   0.601  0.2698  0.3506  0.4659
 8243TIP3    H246145   2.430   2.823   0.509  1.0440 -0.9015 -1.0598
 8244TIP3   OH246146   6.623   2.520   5.734  0.0564 -0.2026 -0.7606
 8244TIP3    H146147   6.632   2.486   5.823 -4.5444  0.2377  0.1205
 8244TIP3    H246148   6.602   2.444   5.681  0.5882 -0.1583 -1.0418
 8245TIP3   OH246149   4.086   0.177   1.854  0.1861 -1.0267  0.3906
 8245TIP3    H146150   4.044   0.212   1.932  1.1397  0.0039  0.4586
 8245TIP3    H246151   4.068   0.083   1.858 -1.5054 -0.7284  0.7624
 8246TIP3   OH246152   3.365   3.601   4.257 -0.0008 -0.5427  0.3039
 8246TIP3    H146153   3.342   3.641   4.173 -1.7095 -1.5583  0.2515
 8246TIP3    H246154   3.406   3.672   4.306 -1.1474  0.7350 -0.5161
 8247TIP3   OH246155   1.711   5.215  17.475 -0.0774 -0.2271  0.1038
 8247TIP3    H146156   1.757   5.145  17.429  0.1197 -0.3760  0.5246
 8247TIP3    H246157   1.751   5.295  17.443 -2.1250 -0.1128 -2.4687
 8248TIP3   OH246158   1.320   5.199  12.358 -0.5014 -0.0160  0.3881
 8248TIP3    H146159   1.261   5.130  12.328 -1.4091  0.4962  0.9378
 8248TIP3    H246160   1.293   5.216  12.449  1.9963 -1.3572  1.4713
 8249TIP3   OH246161   0.588   2.114   5.939  0.0216 -0.4756  0.4260
 8249TIP3    H146162   0.535   2.044   5.977 -1.5082  2.0074  3.3856
 8249TIP3    H246163   0.671   2.111   5.987  0.2129 -0.6523  0.0868
 8250TIP3   OH246164   3.023   0.452   5.669  0.0534  0.9291  0.4922
 8250TIP3    H146165   3.027   0.416   5.757 -0.7537 -0.9165 -0.1807
 8250TIP3    H246166   2.940   0.500   5.666 -0.1627  0.5620  0.5841
 8251TIP3   OH246167   2.847   1.745  14.919 -0.5708  0.4414 -0.2244
 8251TIP3    H146168   2.810   1.657  14.923  0.0596  0.2271  1.5603
 8251TIP3    H246169   2.937   1.732  14.890 -0.1562  0.3732  1.0536
 8252TIP3   OH246170   2.758   4.328  14.764  0.1408  0.4691  0.9908
 8252TIP3    H146171   2.824   4.259  14.776  1.7369  1.2813 -1.9136
 8252TIP3    H246172   2.678   4.281  14.739  0.6946 -0.4188  0.8282
 8253TIP3   OH246173   4.164   3.850  14.233  0.3573  0.3260 -0.6701
 8253TIP3    H146174   4.167   3.884  14.144 -1.0918  0.5573 -0.6591
 8253TIP3    H246175   4.103   3.776  14.229  1.9830 -1.0929 -0.2937
 8254TIP3   OH246176   3.362   5.065  14.926 -0.2265 -0.5030 -0.0206
 8254TIP3    H146177   3.279   5.089  14.968 -1.9659 -0.4444 -3.1923
 8254TIP3    H246178   3.350   4.973  14.900  0.5560 -0.3949 -0.8213
 8255TIP3   OH246179   2.649   5.270  15.688 -0.7633 -0.3410  0.2310
 8255TIP3    H146180   2.565   5.230  15.665 -0.5744  0.4574 -2.2247
 8255TIP3    H246181   2.635   5.364  15.671  0.6617 -0.2315 -0.4539
 8256TIP3   OH246182   2.609   2.029   2.632 -0.2361 -0.6723 -0.0439
 8256TIP3    H146183   2.515   2.014   2.643 -0.0897 -2.2266 -0.7312
 8256TIP3    H246184   2.620   2.122   2.652 -1.7798 -0.6486  0.8918
 8257TIP3   OH246185   2.069   5.364  13.656 -0.4409 -0.0920 -0.1165
 8257TIP3    H146186   1.979   5.335  13.672 -0.7283 -0.1809 -1.7820
 8257TIP3    H246187   2.069   5.395  13.566  0.8473  1.3552  0.3402
 8258TIP3   OH246188   6.338   6.498   2.382  0.4254  0.3454  0.3788
 8258TIP3    H146189   6.380   6.548   2.452  4.5956 -2.9338  0.5699
 8258TIP3    H246190   6.296   6.424   2.426  0.8638 -0.3783 -0.3974
 8259TIP3   OH246191   0.108   2.859   6.531 -0.0626 -0.2115 -0.4879
 8259TIP3    H146192   0.200   2.841   6.548 -0.5596 -0.8332  1.8285
 8259TIP3    H246193   0.086   2.933   6.588 -1.3549 -1.0799  0.1960
 8260TIP3   OH246194   0.117   3.484  14.704 -0.4899 -0.0740 -0.7504
 8260TIP3    H146195   0.128   3.486  14.609 -1.2451 -0.8423 -0.8716
 8260TIP3    H246196   0.198   3.521  14.739 -0.7168  1.4080 -1.7114
 8261TIP3   OH246197   0.395   5.593  13.828 -0.0641  0.3085  0.4949
 8261TIP3    H146198   0.489   5.574  13.830  0.0638  0.7520 -0.5144
 8261TIP3    H246199   0.390   5.681  13.791 -0.9431 -0.3300 -0.9740
 8262TIP3   OH246200   2.452   3.425  13.616  0.6116 -0.7528  0.1053
 8262TIP3    H146201   2.447   3.518  13.593 -0.1891 -0.5258  1.1253
 8262TIP3    H246202   2.512   3.388  13.552 -2.2674 -0.3784 -3.1286
 8263TIP3   OH246203   4.149   1.379  16.730  0.2233 -0.0908 -0.3183
 8263TIP3    H146204   4.218   1.315  16.745  0.2281  0.2292  1.0767
 8263TIP3    H246205   4.069   1.326  16.720  0.3796 -0.3582 -0.1592
 8264TIP3   OH246206   2.183   6.642   2.421  0.0357 -0.3738  0.0404
 8264TIP3    H146207   2.131   6.665   2.498 -1.2953  0.0464 -0.9472
 8264TIP3    H246208   2.210   6.726   2.384  0.8550 -0.5780  0.1603
 8265TIP3   OH246209   3.070   6.026  10.752  0.1697  0.0046  0.2897
 8265TIP3    H146210   3.020   6.054  10.829  0.5025  0.0048  0.5117
 8265TIP3    H246211   3.020   6.058  10.677  1.7979  3.5079  0.5145
 8266TIP3   OH246212   4.870   3.781  13.699  0.2818 -0.6448 -0.4042
 8266TIP3    H146213   4.853   3.720  13.628 -1.6072  0.8138 -1.3107
 8266TIP3    H246214   4.784   3.797  13.739  0.5831  1.7507 -0.5350
 8267TIP3   OH246215   1.048   2.597   0.381  0.0685 -0.1354 -0.0192
 8267TIP3    H146216   0.977   2.614   0.319 -1.7100  0.1330  1.9672
 8267TIP3    H246217   1.011   2.619   0.467  2.9631  1.2336  1.0244
 8268TIP3   OH246218   3.843   6.096  11.114  0.3832  0.1466  0.1405
 8268TIP3    H146219   3.783   6.024  11.097  0.1436  0.4694 -0.4520
 8268TIP3    H246220   3.837   6.112  11.208  1.6294 -1.6230  0.5501
 8269TIP3   OH246221   2.865   5.136  12.627 -0.2216  0.3495 -0.1242
 8269TIP3    H146222   2.922   5.104  12.557 -0.7858 -0.2515 -0.3182
 8269TIP3    H246223   2.781   5.153  12.583 -0.7701 -0.6357  0.5097
 8270TIP3   OH246224   0.487   4.071   0.514 -0.2317 -0.2335 -0.1253
 8270TIP3    H146225   0.405   4.059   0.466 -0.8287 -1.3744  1.1187
 8270TIP3    H246226   0.515   4.160   0.492 -0.6059 -0.6004 -2.3327
 8271TIP3   OH246227   0.692   6.028  13.218  0.3003  0.1986 -0.4700
 8271TIP3    H146228   0.616   5.984  13.256  1.0405 -0.2518  0.5326
 8271TIP3    H246229   0.698   5.992  13.130 -1.1553  0.8913 -0.8872
 8272TIP3   OH246230   0.444   5.045   2.483  0.0131  0.1174  0.2894
 8272TIP3    H146231   0.353   5.023   2.467 -0.3334  1.7267 -0.0623
 8272TIP3    H246232   0.447   5.140   2.481  1.7117  0.0964  0.2540
 8273TIP3   OH246233   0.247   3.703  15.426 -0.2929  0.4182  0.7863
 8273TIP3    H146234   0.184   3.750  15.372 -0.1782  0.0772  0.3488
 8273TIP3    H246235   0.327   3.754  15.420 -0.0605 -0.0384  0.0041
 8274TIP3   OH246236   5.829   3.589   3.660 -1.0590  0.4504  0.3911
 8274TIP3    H146237   5.862   3.662   3.713 -2.3958  1.2167  0.2157
 8274TIP3    H246238   5.759   3.628   3.606  0.1475 -0.3042 -1.8621
 8275TIP3   OH246239   5.512   0.630  11.965  0.2446  0.0186 -0.1168
 8275TIP3    H146240   5.476   0.710  12.004 -0.9997 -0.8676  0.5957
 8275TIP3    H246241   5.436   0.582  11.933  1.1477  0.4433 -3.2603
 8276TIP3   OH246242   3.695   2.178  13.026  0.1319  0.2692 -0.1075
 8276TIP3    H146243   3.700   2.214  12.938  1.6979  0.5704  0.0697
 8276TIP3    H246244   3.604   2.194  13.053  0.2715  2.5147 -0.7087
 8277TIP3   OH246245   5.055   0.099   5.564  0.0071  0.0522 -0.0508
 8277TIP3    H146246   5.151   0.094   5.570  0.5541  3.7109 -2.4965
 8277TIP3    H246247   5.035   0.056   5.481 -0.8436 -2.4960  1.3748
 8278TIP3   OH246248   5.187   5.948   1.699  0.4158  0.6582 -0.6720
 8278TIP3    H146249   5.100   5.984   1.717  0.9543  3.2925 -2.6478
 8278TIP3    H246250   5.228   6.012   1.640  3.4460 -0.8348 -0.4088
 8279TIP3   OH246251   4.825   2.016  12.708 -0.3288 -0.5168  0.4870
 8279TIP3    H146252   4.816   1.921  12.713  0.7024 -0.7370 -1.0578
 8279TIP3    H246253   4.736   2.049  12.696 -0.5342 -1.4520 -0.7252
 8280TIP3   OH246254   5.844   0.963   4.333  0.2554 -0.4073  0.2425
 8280TIP3    H146255   5.770   1.002   4.379  0.9836  0.4949  0.6855
 8280TIP3    H246256   5.904   0.936   4.403 -0.6271 -3.2953  0.0313
 8281TIP3   OH246257   6.370   5.369  16.000  0.5022  0.0893  0.2920
 8281TIP3    H146258   6.333   5.316  15.930  0.4256 -1.8075  1.6589
 8281TIP3    H246259   6.297   5.382  16.061  1.5364 -2.2788  2.2071
 8282TIP3   OH246260   2.836   2.307  13.354 -0.1904  0.3090 -0.1045
 8282TIP3    H146261   2.753   2.353  13.339 -0.1559 -0.1245 -1.8894
 8282TIP3    H246262   2.810   2.215  13.365 -0.1442  0.5226  2.0617
 8283TIP3   OH246263   6.241   1.235   2.370  0.0661 -0.2912 -0.0570
 8283TIP3    H146264   6.329   1.229   2.334 -0.1722 -2.2824 -0.4603
 8283TIP3    H246265   6.188   1.179   2.313 -1.4425  0.7190  0.2697
 8284TIP3   OH246266   5.753   4.372  16.288  0.0666 -0.0110  0.1981
 8284TIP3    H146267   5.727   4.304  16.225 -1.0967 -0.4671  1.1085
 8284TIP3    H246268   5.679   4.432  16.289  0.2758  0.2391  0.7832
 8285TIP3   OH246269   2.083   5.931  14.598  0.1031 -0.2550  0.3066
 8285TIP3    H146270   2.054   6.000  14.658  0.7598 -1.1349  1.6955
 8285TIP3    H246271   2.166   5.901  14.635  0.9771 -0.2734 -1.5355
 8286TIP3   OH246272   6.214   5.633   4.732 -0.1321 -0.3113 -0.2185
 8286TIP3    H146273   6.304   5.600   4.733 -0.9032 -2.5862 -0.9813
 8286TIP3    H246274   6.174   5.592   4.655 -2.4217 -1.0655  1.2908
 8287TIP3   OH246275   6.141   5.730  10.823  0.5276  0.1536 -0.2177
 8287TIP3    H146276   6.197   5.801  10.791  0.2359  1.0833  1.2073
 8287TIP3    H246277   6.096   5.768  10.899  0.5557 -1.6447  0.7568
 8288TIP3   OH246278   6.690   4.534   3.527 -0.5644  0.2879 -0.4814
 8288TIP3    H146279   6.667   4.558   3.617  1.6452  3.2961 -0.5371
 8288TIP3    H246280   6.757   4.467   3.536  0.0861  1.0108  0.1758
 8289TIP3   OH246281   1.658   3.909  12.486  0.0944  0.1729  0.2260
 8289TIP3    H146282   1.696   3.886  12.571  2.3689 -3.6368 -1.5340
 8289TIP3    H246283   1.588   3.846  12.473 -1.7490  2.1492  0.0939
 8290TIP3   OH246284   2.571   0.625  11.989  0.1425  0.2825  0.1367
 8290TIP3    H146285   2.549   0.620  12.082  0.6559 -2.2544  0.2007
 8290TIP3    H246286   2.638   0.693  11.983 -0.0631  0.6258  1.5934
 8291TIP3   OH246287   5.142   0.629   5.000  0.0094 -0.2580 -0.0092
 8291TIP3    H146288   5.106   0.547   4.967 -0.7656  0.6883 -1.6420
 8291TIP3    H246289   5.093   0.697   4.954  0.7762  1.1391  1.1365
 8292TIP3   OH246290   4.811   3.212   2.241 -0.2124  0.1852  0.2190
 8292TIP3    H146291   4.797   3.122   2.213  1.9069 -0.5115  1.1956
 8292TIP3    H246292   4.762   3.220   2.322  1.0811 -0.7324  1.1343
 8293TIP3   OH246293   6.154   2.496  15.976  0.2614 -0.5804 -0.1580
 8293TIP3    H146294   6.116   2.449  15.902 -1.0422 -1.1686  0.8397
 8293TIP3    H246295   6.132   2.442  16.052 -3.1305  2.4975  1.3792
 8294TIP3   OH246296   2.438   0.844   2.004  0.4787  0.8934  0.1815
 8294TIP3    H146297   2.410   0.876   1.918  2.4474 -0.1782 -0.9542
 8294TIP3    H246298   2.470   0.921   2.050 -0.7379  1.5024  0.0278
 8295TIP3   OH246299   3.792   4.401   5.230 -0.3286  0.1018  0.3006
 8295TIP3    H146300   3.791   4.436   5.141 -0.0642  1.2488  0.7199
 8295TIP3    H246301   3.857   4.332   5.228 -1.4596 -0.9818 -0.7726
 8296TIP3   OH246302   4.176   1.745  13.782 -0.0399 -0.3227 -0.3597
 8296TIP3    H146303   4.156   1.837  13.765  3.0628  0.3048 -1.2214
 8296TIP3    H246304   4.099   1.712  13.828 -1.5770  2.4764 -0.6925
 8297TIP3   OH246305   4.399   4.009   3.554 -0.3536 -0.2066 -0.7314
 8297TIP3    H146306   4.319   4.014   3.501 -0.8027 -1.1872 -0.1765
 8297TIP3    H246307   4.466   3.981   3.492 -0.8430 -1.2015 -0.8265
 8298TIP3   OH246308   4.184   2.847  11.863 -0.0993  0.1812 -0.1690
 8298TIP3    H146309   4.195   2.885  11.776  1.5105  4.4252  1.5953
 8298TIP3    H246310   4.272   2.847  11.901 -1.0049  0.3896  2.1030
 8299TIP3   OH246311   2.480   3.668   0.770  0.2385 -0.0516 -0.1916
 8299TIP3    H146312   2.404   3.611   0.786  0.9312 -0.5899  1.3153
 8299TIP3    H246313   2.443   3.743   0.723 -0.8115 -1.4099 -1.6676
 8300TIP3   OH246314   3.678   2.726   2.735  0.3123 -0.4853 -0.2170
 8300TIP3    H146315   3.584   2.730   2.720  0.3531 -0.1295 -0.3848
 8300TIP3    H246316   3.692   2.643   2.781 -0.1417 -0.2995  0.2605
 8301TIP3   OH246317   4.640   5.647  10.325  0.1068 -0.0534 -0.3686
 8301TIP3    H146318   4.712   5.646  10.388 -2.1525  1.4631  2.4897
 8301TIP3    H246319   4.575   5.586  10.362 -1.7093  1.6274 -0.6283
 8302TIP3   OH246320   1.228   2.818  13.315 -0.1968  0.1035  0.1587
 8302TIP3    H146321   1.190   2.836  13.400 -1.1883 -0.5644 -0.1246
 8302TIP3    H246322   1.314   2.780  13.334  0.1600  1.2171  0.8197
 8303TIP3   OH246323   3.742   0.968   3.633 -0.2815 -0.0550  0.0005
 8303TIP3    H146324   3.708   1.024   3.563 -0.5051  0.6733  0.6727
 8303TIP3    H246325   3.670   0.964   3.696  0.3926  0.4342  0.8287
 8304TIP3   OH246326   4.210   0.167  14.443 -0.1995  0.1395  0.4979
 8304TIP3    H146327   4.224   0.150  14.350 -0.4725  1.7213  0.1390
 8304TIP3    H246328   4.163   0.089  14.475 -0.1391 -0.4061 -0.6871
 8305TIP3   OH246329   6.736   4.113  17.245 -0.3790  0.5606  0.3506
 8305TIP3    H146330   6.747   4.024  17.211 -1.2961  0.3493  0.5987
 8305TIP3    H246331   6.825   4.140  17.267 -0.2111 -0.7443  1.4020
 8306TIP3   OH246332   0.820   4.243   5.678 -0.2688 -0.8718  0.3143
 8306TIP3    H146333   0.742   4.291   5.648  0.1764 -0.4082 -0.1277
 8306TIP3    H246334   0.886   4.260   5.610  0.1439 -1.4586  0.5615
 8307TIP3   OH246335   0.154   6.741  16.008  0.3131  0.2783  0.1533
 8307TIP3    H146336   0.230   6.797  16.024 -0.5154  1.3988  0.3125
 8307TIP3    H246337   0.143   6.741  15.913  0.3379  0.3499  0.1513
 8308TIP3   OH246338   6.176   2.420  12.113  0.0185 -0.1136  0.3956
 8308TIP3    H146339   6.189   2.344  12.170  0.3857 -0.4156 -0.0861
 8308TIP3    H246340   6.124   2.386  12.040  0.6045 -0.0157 -0.0677
 8309TIP3   OH246341   1.236   1.153  17.264  0.0834 -0.1054 -0.5395
 8309TIP3    H146342   1.179   1.079  17.283 -0.8970  0.5121 -1.0297
 8309TIP3    H246343   1.311   1.114  17.219  2.1734 -1.5594  3.6471
 8310TIP3   OH246344   3.878   1.655  12.417  0.2800  0.7377 -0.3662
 8310TIP3    H146345   3.940   1.705  12.364  0.9660  0.5091  0.2029
 8310TIP3    H246346   3.912   1.566  12.417  0.3742  0.7660  0.5814
 8311TIP3   OH246347   1.714   4.687   1.999 -0.0112 -0.8201  0.1307
 8311TIP3    H146348   1.637   4.695   1.942  0.6591  2.2928 -0.5250
 8311TIP3    H246349   1.788   4.705   1.942  0.8076  0.7097  1.5676
 8312TIP3   OH246350   6.359   2.583   0.046  0.5267  0.0871  0.6134
 8312TIP3    H146351   6.390   2.519  -0.018 -0.3639  0.1980  0.0595
 8312TIP3    H246352   6.280   2.544   0.083  0.7357  0.2662  1.2736
 8313TIP3   OH246353   6.452   2.190  16.437 -0.0115 -0.5142  0.0669
 8313TIP3    H146354   6.459   2.126  16.365  0.8254  0.0286 -0.3566
 8313TIP3    H246355   6.385   2.154  16.494  0.4234 -1.7751 -0.1715
 8314TIP3   OH246356   0.305   0.691  16.079 -0.1298  0.3923  0.2359
 8314TIP3    H146357   0.287   0.622  16.015 -1.1072 -1.1416  2.0192
 8314TIP3    H246358   0.223   0.740  16.085  0.0752  0.7573  0.0415
 8315TIP3   OH246359   5.989   6.017   4.494 -0.2935 -0.2453 -0.1588
 8315TIP3    H146360   6.008   6.096   4.544 -1.2194  1.8188 -2.8140
 8315TIP3    H246361   5.895   6.023   4.475 -0.7157 -2.7751  0.7607
 8316TIP3   OH246362   0.017   1.470  14.167 -0.4607 -0.8120 -0.3304
 8316TIP3    H146363   0.094   1.470  14.223 -0.8850  1.8788  0.4138
 8316TIP3    H246364  -0.046   1.414  14.213  0.0864 -0.7511  0.5143
 8317TIP3   OH246365   0.141   1.439   1.260  0.9476 -0.5709 -0.2144
 8317TIP3    H146366   0.179   1.382   1.193 -0.4846 -0.2647 -1.3420
 8317TIP3    H246367   0.136   1.525   1.218  0.3101 -0.3091  0.3764
 8318TIP3   OH246368   6.288   4.396   0.355 -1.0774  0.2131 -0.2132
 8318TIP3    H146369   6.263   4.431   0.269 -0.1159  0.1014 -0.5522
 8318TIP3    H246370   6.329   4.312   0.335 -1.4492 -0.1243  0.4201
 8319TIP3   OH246371   1.178   3.292  17.453  0.2724  0.2516 -0.0170
 8319TIP3    H146372   1.247   3.256  17.397  0.0520  0.7444 -0.6096
 8319TIP3    H246373   1.164   3.381  17.420 -0.3077  0.3194  0.4084
 8320TIP3   OH246374   5.176   0.721  12.583  0.3082  0.2377  0.0127
 8320TIP3    H146375   5.234   0.680  12.518 -0.2177  0.2295 -0.4569
 8320TIP3    H246376   5.182   0.664  12.659  1.3149  0.5095  0.1534
 8321TIP3   OH246377   3.525   6.353  16.735  0.4347  0.4374 -0.0143
 8321TIP3    H146378   3.591   6.301  16.688 -1.2396 -2.9087  0.9573
 8321TIP3    H246379   3.546   6.340  16.827 -0.9331  0.1630  0.2834
 8322TIP3   OH246380   5.651   5.283  17.369 -0.1386 -0.0885 -0.1612
 8322TIP3    H146381   5.579   5.220  17.375  0.7062 -1.2183 -1.1819
 8322TIP3    H246382   5.608   5.368  17.368 -1.5129 -0.7399 -1.0616
 8323TIP3   OH246383   3.004   6.395  15.545 -0.1904 -0.0440 -0.7287
 8323TIP3    H146384   2.945   6.334  15.590 -1.7330  1.4914 -0.5621
 8323TIP3    H246385   3.008   6.471  15.602  1.0149  0.3621 -1.3242
 8324TIP3   OH246386   1.451   2.227  17.421 -0.2050  0.4387  0.3621
 8324TIP3    H146387   1.486   2.255  17.505 -1.1125 -0.3233  1.0062
 8324TIP3    H246388   1.413   2.141  17.437 -0.6562  0.4072 -0.7605
 8325TIP3   OH246389   5.366   4.994   6.454 -0.5313  0.3827  0.0555
 8325TIP3    H146390   5.303   5.064   6.467 -0.3260  0.4362  0.7732
 8325TIP3    H246391   5.451   5.038   6.451 -0.3270  0.1075  1.2662
 8326TIP3   OH246392   0.011   5.961  12.045  0.1772  0.1320 -0.1535
 8326TIP3    H146393   0.081   5.945  11.982  1.0316 -0.1268  0.8378
 8326TIP3    H246394  -0.070   5.944  11.996  0.6617  2.5557 -1.9520
 8327TIP3   OH246395   3.908   4.509  15.479 -0.4484 -0.4307  0.3952
 8327TIP3    H146396   3.852   4.478  15.550 -1.2946  0.2521  0.0365
 8327TIP3    H246397   3.994   4.469  15.497 -1.0075 -1.3934  1.0091
 8328TIP3   OH246398   1.958   0.854   2.009  0.3036 -0.0525  0.0607
 8328TIP3    H146399   2.014   0.822   2.080  2.2293  2.0013 -0.4085
 8328TIP3    H246400   2.014   0.914   1.960 -1.8888  0.9137 -1.4042
 8329TIP3   OH246401   3.743   1.353   2.660  0.6027 -0.5671  0.6726
 8329TIP3    H146402   3.724   1.447   2.658  3.1515  0.0165 -0.0146
 8329TIP3    H246403   3.685   1.315   2.594  1.9523  1.1117 -1.6325
 8330TIP3   OH246404   4.482   4.122  11.447 -0.7436  0.1041 -0.0301
 8330TIP3    H146405   4.418   4.189  11.420 -1.3955 -0.7975 -0.7773
 8330TIP3    H246406   4.507   4.080  11.365  1.3865  0.9098  0.1427
 8331TIP3   OH246407   0.130   1.000  13.502  0.5060 -0.3315  0.2016
 8331TIP3    H146408   0.122   1.002  13.407  0.7531 -0.3656  0.1815
 8331TIP3    H246409   0.040   0.986  13.533  0.4103 -0.2176 -0.0223
 8332TIP3   OH246410   4.112   3.336   1.541  0.2513 -0.4704 -0.5554
 8332TIP3    H146411   4.045   3.314   1.478 -0.4403  2.2151 -0.8973
 8332TIP3    H246412   4.152   3.417   1.507  2.7111 -1.1933  0.3518
 8333TIP3   OH246413   2.265   6.233  15.735 -0.0276  0.3708  0.5136
 8333TIP3    H146414   2.293   6.144  15.712 -1.5839 -0.6746  2.3363
 8333TIP3    H246415   2.309   6.251  15.817 -0.3902  0.9474  0.5824
 8334TIP3   OH246416   1.770   3.658   2.025 -0.5966  0.0270  0.5134
 8334TIP3    H146417   1.787   3.752   2.016  0.9004 -0.2448  0.2028
 8334TIP3    H246418   1.822   3.632   2.101 -0.4999 -0.6598  0.2177
 8335TIP3   OH246419   2.715   5.247  16.483 -0.2386  0.3652  0.7437
 8335TIP3    H146420   2.665   5.169  16.459  2.0137 -0.7013 -0.9011
 8335TIP3    H246421   2.722   5.297  16.401 -1.0099  1.9540  1.6023
 8336TIP3   OH246422   4.911   3.397  14.398 -0.1718  0.4406 -0.0869
 8336TIP3    H146423   4.838   3.456  14.417  0.2443  0.3834  1.8795
 8336TIP3    H246424   4.982   3.426  14.454  0.5787 -0.9364 -0.2577
 8337TIP3   OH246425   2.325   5.843   4.142 -0.0100 -0.5832 -0.0327
 8337TIP3    H146426   2.324   5.749   4.124  0.1903 -0.5219 -0.3563
 8337TIP3    H246427   2.242   5.875   4.107  0.2285 -0.5220 -0.5435
 8338TIP3   OH246428   3.991   5.026   4.788 -0.3351  0.3547  0.6556
 8338TIP3    H146429   3.955   4.950   4.834 -0.3228 -0.3426 -0.4696
 8338TIP3    H246430   4.031   5.079   4.858  0.4337 -1.0936  1.3649
 8339TIP3   OH246431   0.133   0.531  16.373  0.0303  0.1564 -0.4680
 8339TIP3    H146432   0.202   0.532  16.439 -1.6143  2.0661  1.3355
 8339TIP3    H246433   0.158   0.599  16.310 -0.9135  2.0533  1.0892
 8340TIP3   OH246434   1.390   4.832  15.886  0.2018 -0.0752 -0.5574
 8340TIP3    H146435   1.383   4.748  15.843  0.2114 -0.9389  1.0445
 8340TIP3    H246436   1.434   4.888  15.822 -1.1687 -0.8154 -2.2312
 8341TIP3   OH246437   4.391   0.363  17.347  0.7176  0.0515 -0.7559
 8341TIP3    H146438   4.342   0.412  17.413 -0.5638 -1.3360 -0.6302
 8341TIP3    H246439   4.419   0.430  17.283 -0.5011  1.0148 -0.3187
 8342TIP3   OH246440   6.516   4.953  13.632 -0.6952  0.1199  0.2299
 8342TIP3    H146441   6.484   4.883  13.689  2.2540 -0.2494  1.6015
 8342TIP3    H246442   6.538   4.910  13.550 -1.7398  0.0455 -0.0304
 8343TIP3   OH246443   3.897   4.820   5.170  0.3192  0.2054  0.2402
 8343TIP3    H146444   3.922   4.804   5.079  0.8125 -0.8899  0.5532
 8343TIP3    H246445   3.935   4.747   5.219 -0.2661  0.5711  1.2759
 8344TIP3   OH246446   6.259   0.527  15.508 -0.1592  0.5628 -0.3818
 8344TIP3    H146447   6.234   0.568  15.425  2.6008  0.4429 -1.3655
 8344TIP3    H246448   6.241   0.594  15.573 -2.3556  0.6752 -1.0056
 8345TIP3   OH246449   6.266   5.412  11.600 -0.4363 -0.0474  0.4919
 8345TIP3    H146450   6.186   5.442  11.558  1.3958  2.5137 -1.4633
 8345TIP3    H246451   6.281   5.325  11.563 -1.9603 -0.3028  0.4195
 8346TIP3   OH246452   2.947   4.233  16.696 -0.1655 -0.6788 -0.1575
 8346TIP3    H146453   2.967   4.284  16.618 -0.3456 -0.5888 -0.1450
 8346TIP3    H246454   2.857   4.257  16.718  0.5587  0.9107  1.2952
 8347TIP3   OH246455   1.323   2.686   0.306 -0.1729 -0.2030 -0.4051
 8347TIP3    H146456   1.314   2.781   0.309  0.0998 -0.1671  2.6399
 8347TIP3    H246457   1.233   2.653   0.311 -0.2612 -0.1392 -1.3700
 8348TIP3   OH246458   3.076   1.973  12.451  0.3969  0.1264  0.8128
 8348TIP3    H146459   3.093   2.046  12.390  0.9242  0.3333  1.2040
 8348TIP3    H246460   3.072   1.896  12.395  0.3101  0.3904  0.4491
 8349TIP3   OH246461   4.995   2.365   1.360 -0.1230  0.2643  0.0248
 8349TIP3    H146462   5.038   2.280   1.368 -0.5363  0.0687  0.1893
 8349TIP3    H246463   5.018   2.395   1.272  1.2175  0.6442  0.4895
 8350TIP3   OH246464   2.544   1.598  11.815 -0.1230 -0.5353 -0.4339
 8350TIP3    H146465   2.465   1.557  11.779  1.2450 -1.7067 -2.2916
 8350TIP3    H246466   2.546   1.685  11.775 -1.9992  0.7566  2.0042
 8351TIP3   OH246467   6.386   4.083   0.956  0.2095  0.4201 -0.0730
 8351TIP3    H146468   6.384   4.159   1.014  0.7466  1.3782 -1.2797
 8351TIP3    H246469   6.295   4.050   0.956  0.6260 -1.1128  3.1725
 8352TIP3   OH246470   3.512   1.250   1.834 -0.1738  0.3111 -0.1288
 8352TIP3    H146471   3.519   1.241   1.929  0.1215 -1.1927 -0.2659
 8352TIP3    H246472   3.440   1.312   1.821 -2.5247 -1.9543  1.0813
 8353TIP3   OH246473   4.831   4.055   5.228 -0.1368  0.0709 -0.0600
 8353TIP3    H146474   4.803   4.140   5.261  0.0111 -0.0637  0.4264
 8353TIP3    H246475   4.785   4.045   5.144 -2.2826 -0.5494  1.1210
 8354TIP3   OH246476   5.616   2.822  14.412  0.1017  0.2682 -0.3310
 8354TIP3    H146477   5.653   2.816  14.324  1.1811  0.2066  0.1141
 8354TIP3    H246478   5.543   2.883  14.403  1.2426  1.5803 -0.9394
 8355TIP3   OH246479   2.342   6.005   1.425  0.2876  0.3516  1.0340
 8355TIP3    H146480   2.253   5.977   1.403  0.3487  0.9434 -0.0055
 8355TIP3    H246481   2.391   5.924   1.435 -0.2450  0.0321  1.1180
 8356TIP3   OH246482   6.072   2.209   0.324 -0.3191 -0.3690 -0.1799
 8356TIP3    H146483   6.013   2.151   0.371 -0.7144  0.1160 -0.0807
 8356TIP3    H246484   6.088   2.282   0.384  0.0257 -0.2788 -0.3781
 8357TIP3   OH246485   4.788   1.566   4.537  0.0209 -0.3885 -0.0383
 8357TIP3    H146486   4.820   1.478   4.558 -1.2378 -0.3779  2.3706
 8357TIP3    H246487   4.694   1.555   4.522 -0.3587  0.6390  1.3452
 8358TIP3   OH246488   0.324   1.219   2.276 -0.2444  0.3934  0.0989
 8358TIP3    H146489   0.281   1.135   2.261 -0.7957  0.6867  0.0041
 8358TIP3    H246490   0.385   1.203   2.347  0.2064 -0.2737 -0.4336
 8359TIP3   OH246491   6.234   2.764   0.962  0.2783 -0.8215  0.2054
 8359TIP3    H146492   6.182   2.690   0.994  0.0708 -1.4638 -1.5214
 8359TIP3    H246493   6.253   2.816   1.041  2.0419 -3.6550  1.8241
 8360TIP3   OH246494   1.836   6.517  13.101 -0.4428  0.1718  0.0230
 8360TIP3    H146495   1.920   6.546  13.066 -0.6824 -0.5909 -1.2480
 8360TIP3    H246496   1.778   6.510  13.025 -1.4081 -0.1632  0.7538
 8361TIP3   OH246497   3.050   0.743   5.201  0.0062  0.3237 -0.2345
 8361TIP3    H146498   3.046   0.659   5.245 -0.4391  0.8374  0.7305
 8361TIP3    H246499   3.032   0.723   5.109 -1.3850 -0.4885  0.1827
 8362TIP3   OH246500   6.607   6.460  15.650 -0.5318  0.1254 -0.1533
 8362TIP3    H146501   6.610   6.544  15.605 -1.8425 -0.8920 -2.2660
 8362TIP3    H246502   6.631   6.481  15.741  1.0578  2.4362 -1.0104
 8363TIP3   OH246503   3.231   1.743  17.323  0.3989  0.3334  0.6186
 8363TIP3    H146504   3.263   1.691  17.249  1.4593  1.0328  0.5547
 8363TIP3    H246505   3.174   1.684  17.372  0.1179 -0.3049 -0.4623
 8364TIP3   OH246506   3.409   2.255   3.934  0.1881 -0.6013 -0.2556
 8364TIP3    H146507   3.349   2.221   4.000 -1.0503  2.8611  0.6113
 8364TIP3    H246508   3.396   2.198   3.858 -2.2152 -1.5764  0.7966
 8365TIP3   OH246509   6.353   6.538  13.863  0.0452 -0.1513 -0.1936
 8365TIP3    H146510   6.390   6.464  13.910  0.3010 -0.9367 -1.5888
 8365TIP3    H246511   6.408   6.548  13.786 -1.4379 -0.0672 -1.2852
 8366TIP3   OH246512   4.993   4.960   0.616  0.1330  0.6334 -0.3789
 8366TIP3    H146513   4.971   4.928   0.704  1.1021 -0.0542 -0.3698
 8366TIP3    H246514   4.938   4.907   0.558 -2.1112  2.5289 -0.1391
 8367TIP3   OH246515   3.417   2.201   1.392  0.2376  0.7181  0.2774
 8367TIP3    H146516   3.371   2.285   1.400  1.0246  1.3146 -1.2096
 8367TIP3    H246517   3.451   2.200   1.303 -0.1096 -1.3801  0.1063
 8368TIP3   OH246518   3.184   5.423  17.068  0.2723  0.0804 -0.1610
 8368TIP3    H146519   3.199   5.517  17.067 -0.0298  0.1231 -0.7307
 8368TIP3    H246520   3.193   5.398  17.160  1.0572  0.5522 -0.1029
 8369TIP3   OH246521   6.690   3.672   1.742  0.4873  0.1602  0.2187
 8369TIP3    H146522   6.770   3.713   1.709  0.4446  0.4575  0.4753
 8369TIP3    H246523   6.625   3.688   1.673  0.4172  0.7135  0.4055
 8370TIP3   OH246524   2.479   6.580  13.875 -0.6198  0.4216  0.3322
 8370TIP3    H146525   2.454   6.612  13.962  1.0736  0.2679  0.8996
 8370TIP3    H246526   2.572   6.562  13.881  0.0479  2.4983 -2.1580
 8371TIP3   OH246527   1.446   5.127   5.377  0.4823  0.1247  0.4242
 8371TIP3    H146528   1.384   5.154   5.445 -0.4003 -1.8989  0.4782
 8371TIP3    H246529   1.393   5.116   5.298  0.8855 -0.9121  0.2820
 8372TIP3   OH246530   3.014   3.263   4.895 -0.1623  0.0665 -0.2973
 8372TIP3    H146531   2.939   3.226   4.941 -0.5654 -1.1857 -1.9151
 8372TIP3    H246532   2.983   3.282   4.807  1.3162 -0.1534 -0.9037
 8373TIP3   OH246533   3.182   5.588   0.546 -0.2050  0.0353  0.1718
 8373TIP3    H146534   3.227   5.629   0.620  0.8753 -0.1557 -0.3548
 8373TIP3    H246535   3.227   5.504   0.534 -0.7893 -0.2162 -0.2961
 8374TIP3   OH246536   0.164   1.250  16.949 -0.1231  0.0278  0.7872
 8374TIP3    H146537   0.220   1.256  16.871 -2.4529 -3.4173 -1.4485
 8374TIP3    H246538   0.197   1.173  16.996 -1.1885 -0.2813  1.0364
 8375TIP3   OH246539   6.616   0.005   6.018  0.3811 -0.0067 -0.4589
 8375TIP3    H146540   6.666  -0.041   6.086 -0.5323  0.8973  0.8927
 8375TIP3    H246541   6.672   0.078   5.992  1.1416 -0.8986 -1.4212
 8376TIP3   OH246542   2.374   2.602   4.623 -0.0999 -0.2624 -0.4807
 8376TIP3    H146543   2.377   2.526   4.564 -1.4621 -0.8997  0.2475
 8376TIP3    H246544   2.359   2.565   4.710  0.5095  0.7684  0.0837
 8377TIP3   OH246545   2.794   6.345   5.662  0.6404  0.8773 -0.8668
 8377TIP3    H146546   2.879   6.324   5.700  0.0792 -1.6771 -0.8480
 8377TIP3    H246547   2.730   6.307   5.722 -0.4921  1.9878 -1.3286
 8378TIP3   OH246548   1.987   3.524  14.289  0.0262  0.1511  0.1618
 8378TIP3    H146549   2.058   3.472  14.326 -0.1814  0.2999  0.7882
 8378TIP3    H246550   1.916   3.516  14.353 -1.5023 -2.1416 -1.6356
 8379TIP3   OH246551   3.104   1.164   0.095 -0.3776  0.3521 -0.2400
 8379TIP3    H146552   3.149   1.164   0.179 -0.4473  1.5127 -0.1837
 8379TIP3    H246553   3.023   1.116   0.110 -0.0421 -0.0906  0.1561
 8380TIP3   OH246554   5.032   3.307  12.382  0.1135 -0.8863 -0.4163
 8380TIP3    H146555   5.108   3.291  12.326 -0.5178 -1.5824 -1.0981
 8380TIP3    H246556   4.962   3.255  12.342 -0.6723 -0.3990  0.3057
 8381TIP3   OH246557   1.681   2.841   0.889  0.0873 -0.1791 -0.4998
 8381TIP3    H146558   1.694   2.786   0.812  0.3019 -1.0676  0.1489
 8381TIP3    H246559   1.589   2.868   0.883  0.2245  0.1279 -1.2957
 8382TIP3   OH246560   4.671   0.056  14.412 -0.1388  0.7000 -0.1392
 8382TIP3    H146561   4.622   0.035  14.492 -1.0080  0.2072 -0.7926
 8382TIP3    H246562   4.607   0.048  14.342  0.9354 -0.2095 -1.0530
 8383TIP3   OH246563   3.575   3.786   2.182  0.5357 -0.0978  0.0336
 8383TIP3    H146564   3.483   3.809   2.171  0.9162  0.7363 -1.8859
 8383TIP3    H246565   3.589   3.715   2.119  1.5393  0.8412 -0.8359
 8384TIP3   OH246566   2.422   5.716   2.572  0.6535 -0.2932 -0.6937
 8384TIP3    H146567   2.431   5.637   2.624  1.4500  0.0740 -0.2454
 8384TIP3    H246568   2.501   5.717   2.517  1.3360  0.8590  0.2626
 8385TIP3   OH246569   0.193   1.790  15.622  0.3775 -0.1625 -0.6988
 8385TIP3    H146570   0.172   1.698  15.636  0.1129 -0.3414 -2.1276
 8385TIP3    H246571   0.237   1.817  15.703 -1.8867 -0.8022  0.8547
 8386TIP3   OH246572   3.949   5.922  13.155 -0.1752  0.5225  0.4664
 8386TIP3    H146573   3.944   5.979  13.232 -1.0145  1.5050 -0.2969
 8386TIP3    H246574   4.043   5.913  13.138  0.0529 -0.2367  1.9684
 8387TIP3   OH246575   1.600   6.666  13.827  0.0001  0.3721  0.2821
 8387TIP3    H146576   1.682   6.677  13.874  0.0659  0.0286  0.2465
 8387TIP3    H246577   1.532   6.687  13.892  0.0678 -0.6517  0.7071
 8388TIP3   OH246578   6.120   0.096  11.320  0.1671  0.0092 -0.0931
 8388TIP3    H146579   6.079   0.175  11.355 -1.0201 -0.7952  0.4160
 8388TIP3    H246580   6.206   0.092  11.363 -1.1019 -0.7648  2.5878
 8389TIP3   OH246581   5.277   1.822   1.577  0.1907  0.4417 -0.0374
 8389TIP3    H146582   5.241   1.739   1.545  1.4712 -0.9946  1.9678
 8389TIP3    H246583   5.232   1.837   1.661  1.3958  0.6695  0.5957
 8390TIP3   OH246584   3.270   2.157  14.597  0.0533  0.3896 -0.4102
 8390TIP3    H146585   3.265   2.228  14.661  0.1052 -1.5943  1.9829
 8390TIP3    H246586   3.353   2.171  14.551  1.7858  0.1101  2.3947
 8391TIP3   OH246587   2.155   3.149   3.659 -0.0665 -0.0691  0.2148
 8391TIP3    H146588   2.072   3.110   3.629 -0.2307  0.0899  0.4564
 8391TIP3    H246589   2.195   3.184   3.579 -0.2181 -0.1731  0.0910
 8392TIP3   OH246590   4.257   1.749   4.125 -0.2595 -0.7481  0.3859
 8392TIP3    H146591   4.230   1.661   4.101 -0.1366 -0.5544 -0.4986
 8392TIP3    H246592   4.194   1.807   4.081 -2.0535 -0.4002  3.1244
 8393TIP3   OH246593   4.342   2.071   6.205 -0.3800 -0.3778 -0.3824
 8393TIP3    H146594   4.327   2.102   6.294 -2.8759 -1.7157 -0.2253
 8393TIP3    H246595   4.352   2.150   6.153  1.5065  0.4170  1.0835
 8394TIP3   OH246596   4.178   5.006   3.136 -0.5493  0.1369  0.3735
 8394TIP3    H146597   4.087   5.005   3.166 -0.4619 -0.6372  0.6449
 8394TIP3    H246598   4.230   5.004   3.217 -0.2835  0.8808  0.2287
 8395TIP3   OH246599   5.839   5.645   4.951  0.5976  0.1556 -0.2927
 8395TIP3    H146600   5.899   5.574   4.975  1.4018  0.5389 -1.1052
 8395TIP3    H246601   5.897   5.719   4.930 -0.1887  0.7238 -0.4994
 8396TIP3   OH246602   6.301   6.043   4.706 -0.5095  0.7123  0.2872
 8396TIP3    H146603   6.322   5.974   4.769 -1.9214 -0.4050 -0.4051
 8396TIP3    H246604   6.210   6.065   4.724 -1.2936 -0.4001 -2.0040
 8397TIP3   OH246605   2.562   4.376  12.209 -0.1023 -0.0738  0.2166
 8397TIP3    H146606   2.540   4.300  12.155  0.2528  0.3265 -0.5114
 8397TIP3    H246607   2.490   4.383  12.272 -0.5847 -0.4854 -0.2837
 8398TIP3   OH246608   6.030   3.393   3.646 -0.4706 -0.4641 -0.4751
 8398TIP3    H146609   5.982   3.469   3.614 -0.5409 -0.4815 -0.4112
 8398TIP3    H246610   5.993   3.376   3.733  0.3674  0.1663  0.0166
 8399TIP3   OH246611   6.119   5.650   5.463 -0.6316  1.3376 -0.1532
 8399TIP3    H146612   6.054   5.701   5.511 -0.6629 -0.3221  1.6446
 8399TIP3    H246613   6.070   5.574   5.430  0.1684  0.6004  0.3411
 8400TIP3   OH246614   5.118   0.038  16.212 -0.0450  0.9252 -0.2907
 8400TIP3    H146615   5.056  -0.030  16.237 -0.4956  2.2965  2.7187
 8400TIP3    H246616   5.202  -0.007  16.208 -0.7548 -0.3795 -1.5217
 8401TIP3   OH246617   1.992   1.853   0.904  0.0944 -0.4884 -0.2461
 8401TIP3    H146618   1.922   1.857   0.970  1.1100  0.0764  0.8476
 8401TIP3    H246619   2.053   1.922   0.930  0.9076 -0.7550 -1.3607
 8402TIP3   OH246620   2.308   2.032  14.813 -0.1840  0.2836 -0.4986
 8402TIP3    H146621   2.305   2.005  14.721 -1.7297 -0.7887 -0.1612
 8402TIP3    H246622   2.346   1.958  14.859  2.4982  1.5690 -0.4644
 8403TIP3   OH246623   2.552   3.200  14.444 -0.2824 -0.3280  0.1184
 8403TIP3    H146624   2.521   3.280  14.401 -0.8023  0.4357  1.8290
 8403TIP3    H246625   2.589   3.230  14.527 -0.3312 -1.8528  0.7275
 8404TIP3   OH246626   0.443   4.884   3.130  0.2815 -0.2335  0.2057
 8404TIP3    H146627   0.425   4.912   3.220 -0.2465 -0.3347  0.1351
 8404TIP3    H246628   0.496   4.954   3.093 -0.7311  0.5210  0.1384
 8405TIP3   OH246629   3.624   3.846   2.485  0.0556  0.1080  0.3617
 8405TIP3    H146630   3.635   3.815   2.575 -1.3726 -0.4536  0.3748
 8405TIP3    H246631   3.543   3.805   2.455 -0.2546  1.4135 -0.7048
 8406TIP3   OH246632   6.216   3.605   3.258 -0.0689  0.1597 -0.3870
 8406TIP3    H146633   6.201   3.681   3.202 -0.2510  0.3376 -0.0957
 8406TIP3    H246634   6.139   3.550   3.245 -0.6368  0.7134  0.5188
 8407TIP3   OH246635   0.251   1.819   3.205 -0.7146  0.1020 -0.2687
 8407TIP3    H146636   0.232   1.747   3.265 -1.2541 -1.2690 -1.9895
 8407TIP3    H246637   0.176   1.822   3.146  0.6523  0.0816 -2.0983
 8408TIP3   OH246638   1.786   0.359  15.829 -0.1430  0.0073  0.5427
 8408TIP3    H146639   1.837   0.385  15.751 -0.3293 -0.2746  0.3254
 8408TIP3    H246640   1.817   0.418  15.898 -0.4100  0.6690  0.1043
 8409TIP3   OH246641   5.530   0.507   5.008  0.0316  0.5330  0.3081
 8409TIP3    H146642   5.539   0.499   4.913 -1.5102 -1.1348  0.2478
 8409TIP3    H246643   5.489   0.593   5.021  0.0303  0.6699 -0.5350
 8410TIP3   OH246644   1.590   2.434  16.046 -0.0533 -0.7372 -0.2113
 8410TIP3    H146645   1.520   2.430  16.111  0.2657 -0.0127  0.1845
 8410TIP3    H246646   1.669   2.408  16.095  0.3509  0.7292 -0.0592
 8411TIP3   OH246647   3.093   3.061   4.097 -0.0922  0.8016  0.0348
 8411TIP3    H146648   3.073   3.154   4.086  1.7998  1.3512  0.8345
 8411TIP3    H246649   3.081   3.024   4.009 -1.9652  1.5283 -0.0744
 8412TIP3   OH246650   3.596   3.237   2.495 -0.1966  0.6817  0.2436
 8412TIP3    H146651   3.566   3.156   2.452 -0.9519  1.3404 -0.5248
 8412TIP3    H246652   3.674   3.261   2.446  1.1238 -0.5341  1.6482
 8413TIP3   OH246653   5.435   2.218   2.784  0.7810  0.0363  0.1303
 8413TIP3    H146654   5.415   2.303   2.744  2.5647  0.8953  0.9399
 8413TIP3    H246655   5.444   2.158   2.710 -2.3460  0.0273 -0.3892
 8414TIP3   OH246656   6.655   2.564  15.780  0.3625 -0.1619 -0.3309
 8414TIP3    H146657   6.621   2.475  15.794 -0.3517 -0.1390 -1.7447
 8414TIP3    H246658   6.749   2.552  15.772  0.1575 -1.0234 -1.9089
 8415TIP3   OH246659   2.949   4.363  17.189 -0.7688 -0.5712 -0.1444
 8415TIP3    H146660   2.861   4.386  17.218 -0.2366 -0.7034  1.6586
 8415TIP3    H246661   2.999   4.444  17.198 -0.6361 -0.5536 -0.9504
 8416TIP3   OH246662   2.767   2.821   2.187  0.3813  0.0046  0.1544
 8416TIP3    H146663   2.686   2.844   2.143  1.1034  0.0224 -1.2296
 8416TIP3    H246664   2.796   2.903   2.228 -0.3431 -0.0298  0.7468
 8417TIP3   OH246665   0.116   5.529  15.127 -0.1999 -0.1429  0.7289
 8417TIP3    H146666   0.093   5.436  15.125  0.1575 -0.2261  0.3318
 8417TIP3    H246667   0.137   5.546  15.219  0.4846 -0.6440  0.6757
 8418TIP3   OH246668   0.746   3.507  12.738 -0.3065 -0.4094  0.0343
 8418TIP3    H146669   0.713   3.574  12.798 -0.3098  0.4924 -0.9353
 8418TIP3    H246670   0.841   3.508  12.751  0.0074  1.6753 -1.7779
 8419TIP3   OH246671   5.925   1.158   0.608  0.9234  0.2211 -0.7610
 8419TIP3    H146672   5.977   1.124   0.681 -0.4635 -0.0461  0.1387
 8419TIP3    H246673   5.990   1.181   0.541  2.1980  0.0648  0.3785
 8420TIP3   OH246674   5.380   1.171   3.332 -0.0106 -0.1023  0.1347
 8420TIP3    H146675   5.461   1.198   3.288 -0.8294 -2.9150 -3.5521
 8420TIP3    H246676   5.311   1.222   3.291 -0.5698 -1.0600 -0.1406
 8421TIP3   OH246677   2.186   6.492   4.304 -0.2244  0.0525 -0.1817
 8421TIP3    H146678   2.189   6.458   4.214  1.0016  0.2160 -0.2283
 8421TIP3    H246679   2.156   6.582   4.294  0.1145  0.1371 -0.4550
 8422TIP3   OH246680   3.125   0.222  12.501  0.4298  0.0328 -0.3527
 8422TIP3    H146681   3.207   0.232  12.454  0.8422 -1.5997 -0.0677
 8422TIP3    H246682   3.152   0.200  12.590 -0.3006 -0.8079 -0.3285
 8423TIP3   OH246683   5.758   0.261  12.819 -0.2586 -0.2238  0.0322
 8423TIP3    H146684   5.757   0.333  12.756  1.5409  0.7541  1.0368
 8423TIP3    H246685   5.690   0.284  12.882 -0.9597 -0.3902 -0.6391
 8424TIP3   OH246686   6.252   1.244  13.679 -0.5219 -0.2445  0.6246
 8424TIP3    H146687   6.284   1.331  13.705  1.8957 -0.5755 -0.9137
 8424TIP3    H246688   6.295   1.184  13.741 -1.6505 -0.4183  1.2560
 8425TIP3   OH246689   2.498   2.394  16.509  0.1861 -0.6452 -0.0537
 8425TIP3    H146690   2.496   2.488  16.490 -1.7877 -1.0536 -2.1717
 8425TIP3    H246691   2.519   2.390  16.603  1.7436  1.8137 -0.1966
 8426TIP3   OH246692   6.191   3.819   5.909  0.1447 -0.5716  0.2418
 8426TIP3    H146693   6.159   3.774   5.987 -0.3930  0.2817  0.5237
 8426TIP3    H246694   6.135   3.896   5.900  1.2746  0.2592 -0.0086
 8427TIP3   OH246695   6.743   4.972   0.507  0.0553  0.4593  0.1804
 8427TIP3    H146696   6.760   4.944   0.417 -1.7823  0.5072 -0.2266
 8427TIP3    H246697   6.681   5.044   0.499 -0.3903  0.2611  1.4928
 8428TIP3   OH246698   5.701   0.775  16.478 -0.4125 -0.9508  0.2872
 8428TIP3    H146699   5.789   0.813  16.472 -0.8199 -0.0394 -0.0481
 8428TIP3    H246700   5.716   0.680  16.470  0.5859 -0.8496  0.8119
 8429TIP3   OH246701   3.716   2.520  11.423 -0.3648 -0.0620  0.3339
 8429TIP3    H146702   3.629   2.541  11.458 -0.6104  0.8061 -0.7453
 8429TIP3    H246703   3.702   2.508  11.329  0.8122  1.0021 -0.0061
 8430TIP3   OH246704   2.242   0.787   5.704 -0.6198  0.3853 -0.3877
 8430TIP3    H146705   2.318   0.729   5.703  0.7134  2.0249 -2.6760
 8430TIP3    H246706   2.171   0.732   5.738  1.0029 -1.9381 -0.4972
 8431TIP3   OH246707   3.186   0.727   1.076  0.1178  0.2745 -0.1807
 8431TIP3    H146708   3.168   0.716   1.170  0.0637 -0.0090 -0.2243
 8431TIP3    H246709   3.114   0.781   1.044  0.5444  1.0170  0.0936
 8432TIP3   OH246710   0.059   2.677   0.209 -0.3336  0.0097 -0.1335
 8432TIP3    H146711   0.151   2.705   0.213 -0.4280  0.9265 -2.6364
 8432TIP3    H246712   0.061   2.594   0.163 -0.8526  1.2220 -2.5409
 8433TIP3   OH246713   1.186   5.436   0.413  0.1891  0.3948  0.3485
 8433TIP3    H146714   1.257   5.398   0.465  0.5874  1.5126  0.6327
 8433TIP3    H246715   1.108   5.388   0.442  0.4494  0.7833  1.7563
 8434TIP3   OH246716   4.166   1.943   1.756 -0.4844 -0.2428  0.1393
 8434TIP3    H146717   4.202   2.003   1.691  0.6751 -0.1201  0.8608
 8434TIP3    H246718   4.131   1.870   1.706 -0.7995  0.4624 -0.6844
 8435TIP3   OH246719   2.896   0.938  15.261  0.6075  0.2454  0.0456
 8435TIP3    H146720   2.947   0.903  15.189  0.7229  0.0305  0.2304
 8435TIP3    H246721   2.904   0.873  15.331  0.5811  0.4977  0.2876
 8436TIP3   OH246722   2.381   5.840  16.723  0.1015  0.2447 -0.9825
 8436TIP3    H146723   2.412   5.911  16.667 -1.4150  1.5599 -0.2578
 8436TIP3    H246724   2.335   5.780  16.664  1.3749 -0.1418 -1.5999
 8437TIP3   OH246725   5.847   1.759  13.403  0.3522  0.0324  0.3664
 8437TIP3    H146726   5.843   1.830  13.467  0.9482  0.1903  0.2293
 8437TIP3    H246727   5.845   1.679  13.455 -0.9289  0.1290  0.4947
 8438TIP3   OH246728   2.765   1.770   1.545 -0.0038  0.4677  0.0280
 8438TIP3    H146729   2.740   1.863   1.546  1.8450  1.0343  1.8074
 8438TIP3    H246730   2.855   1.770   1.513 -0.3900 -0.8799 -1.1483
 8439TIP3   OH246731   1.602   4.627  15.868  0.5689  0.1550  0.2987
 8439TIP3    H146732   1.597   4.569  15.945  1.7688  0.9357  1.0061
 8439TIP3    H246733   1.691   4.614  15.834 -0.4402 -1.3924 -1.9856
 8440TIP3   OH246734   6.608   4.671   6.319 -0.1000 -0.3376  0.2503
 8440TIP3    H146735   6.568   4.641   6.400 -0.6928  1.2015  0.5620
 8440TIP3    H246736   6.561   4.624   6.250  0.0281 -1.2365  0.7581
 8441TIP3   OH246737   0.742   4.762   2.235  0.1375 -0.0610  0.3309
 8441TIP3    H146738   0.686   4.767   2.158  1.3396  2.8202 -0.4654
 8441TIP3    H246739   0.683   4.734   2.306 -2.1374  1.9954 -0.6232
 8442TIP3   OH246740   2.456   3.179   0.915 -0.5641 -0.1712 -0.1714
 8442TIP3    H146741   2.443   3.267   0.949 -0.0237 -0.3171  0.4318
 8442TIP3    H246742   2.374   3.157   0.871 -0.8751  0.4367  0.1053
 8443TIP3   OH246743   2.934   2.411  12.437  0.6471 -0.3669  0.6042
 8443TIP3    H146744   3.008   2.452  12.483 -1.9569  3.1209  2.0987
 8443TIP3    H246745   2.914   2.471  12.365 -0.6655 -1.2859  0.1705
 8444TIP3   OH246746   6.630   5.215  16.176 -0.5742 -0.2011 -0.4056
 8444TIP3    H146747   6.671   5.139  16.135  0.5419  1.6086 -2.9466
 8444TIP3    H246748   6.588   5.261  16.103 -1.2025  1.6270  1.0269
 8445TIP3   OH246749   0.082   4.212  14.829 -0.6428 -0.6018 -0.7475
 8445TIP3    H146750   0.069   4.128  14.784 -2.0341 -0.2121 -1.1054
 8445TIP3    H246751   0.090   4.188  14.921 -0.3859 -1.1861 -0.9149
 8446TIP3   OH246752   6.380   6.006  13.927 -0.5216 -0.0609  0.2198
 8446TIP3    H146753   6.383   5.967  14.014  3.2352 -1.3002 -0.2765
 8446TIP3    H246754   6.454   6.066  13.924 -0.5561 -0.0107 -2.0792
 8447TIP3   OH246755   3.362   2.306   3.375  0.2978 -0.2268 -0.3353
 8447TIP3    H146756   3.348   2.399   3.359  0.6931  0.0821  0.9876
 8447TIP3    H246757   3.288   2.263   3.331 -0.5462  0.7946  0.0301
 8448TIP3   OH246758   2.453   0.851  11.268 -0.3417  0.6968 -0.1884
 8448TIP3    H146759   2.424   0.936  11.302  0.8490  0.4739  1.4938
 8448TIP3    H246760   2.548   0.860  11.259 -0.1363 -0.5827  0.4950
 8449TIP3   OH246761   5.360   1.894   6.688 -0.3603  0.0616  0.1439
 8449TIP3    H146762   5.420   1.872   6.760  0.8212  1.1884 -0.4596
 8449TIP3    H246763   5.300   1.819   6.684  1.9388 -1.8736 -0.2180
 8450TIP3   OH246764   5.331   4.508  14.491  0.3927  0.5576 -0.2033
 8450TIP3    H146765   5.254   4.479  14.540  0.1144  1.2869 -0.1936
 8450TIP3    H246766   5.380   4.428  14.474 -0.1411  0.1393  0.1820
 8451TIP3   OH246767   3.685   2.773  12.381 -0.4737  0.2077 -0.0354
 8451TIP3    H146768   3.772   2.806  12.362  0.0681 -0.2563  1.4926
 8451TIP3    H246769   3.684   2.761  12.476 -2.1436  0.0452 -0.0432
 8452TIP3   OH246770   1.567   1.162   4.415 -0.4305  0.2403 -0.1271
 8452TIP3    H146771   1.504   1.090   4.426 -0.8931  0.4800 -1.1179
 8452TIP3    H246772   1.603   1.150   4.328  1.7238 -0.5057  0.7869
 8453TIP3   OH246773   5.979   6.244  16.283  0.8128 -0.1452  0.1723
 8453TIP3    H146774   5.915   6.298  16.237  1.6062  0.7488  0.0685
 8453TIP3    H246775   5.948   6.155  16.273 -0.4521  0.2790  0.2020
 8454TIP3   OH246776   0.182   6.684  14.079  0.2142 -0.3050  0.0891
 8454TIP3    H146777   0.209   6.619  14.144  0.5805  0.7741  1.0583
 8454TIP3    H246778   0.205   6.768  14.119 -1.3560  0.4874 -0.6127
 8455TIP3   OH246779   5.357   3.007  12.843 -0.3264  0.2933  0.2160
 8455TIP3    H146780   5.403   3.091  12.850 -2.2267  1.4652 -0.5532
 8455TIP3    H246781   5.403   2.961  12.773 -0.2221  1.3805 -0.4539
 8456TIP3   OH246782   1.637   3.995  14.099  0.1707 -0.2924  0.0362
 8456TIP3    H146783   1.542   3.987  14.089 -0.0034 -0.2483  1.4650
 8456TIP3    H246784   1.656   3.953  14.183  1.4560 -0.5095 -0.3386
 8457TIP3   OH246785   0.827   3.320  12.037  0.3447  0.1132 -0.3769
 8457TIP3    H146786   0.777   3.312  11.955 -1.8192  0.3900  0.8551
 8457TIP3    H246787   0.819   3.234  12.078  2.6630 -0.5083 -1.0314
 8458TIP3   OH246788   2.281   5.526  11.825  0.4282  0.4144  0.7259
 8458TIP3    H146789   2.276   5.430  11.826  0.1432  0.4285  0.8408
 8458TIP3    H246790   2.292   5.549  11.732  1.6043  0.2236  0.8096
 8459TIP3   OH246791   1.823   0.853  15.796 -0.2340 -0.0934  0.2331
 8459TIP3    H146792   1.795   0.899  15.717  0.3176  2.4611  1.4330
 8459TIP3    H246793   1.759   0.783  15.806 -1.3502  0.6053 -1.4975
 8460TIP3   OH246794   2.654   4.331   4.521 -0.5763  0.1663  0.3015
 8460TIP3    H146795   2.600   4.315   4.598  0.7677  0.5217  1.3623
 8460TIP3    H246796   2.735   4.369   4.556 -0.7594  2.4028 -1.4687
 8461TIP3   OH246797   6.569   3.385  16.284 -0.5279  0.6060  0.1159
 8461TIP3    H146798   6.647   3.393  16.229  0.3728 -0.8400  1.1219
 8461TIP3    H246799   6.536   3.475  16.291 -0.2711  0.9425 -2.1538
 8462TIP3   OH246800   6.334   4.898   4.674 -0.1323 -0.3266  0.7713
 8462TIP3    H146801   6.248   4.940   4.668 -0.3142 -0.7634  0.1787
 8462TIP3    H246802   6.362   4.889   4.583 -0.1497 -1.5716  0.8711
 8463TIP3   OH246803   4.540   6.428   1.629 -0.1761 -0.6318 -0.6195
 8463TIP3    H146804   4.554   6.399   1.539  0.0464 -1.6117 -0.2850
 8463TIP3    H246805   4.447   6.412   1.646 -0.1483 -0.7548 -0.5783
 8464TIP3   OH246806   3.105   4.299   1.614 -0.1930 -0.1209 -0.2242
 8464TIP3    H146807   3.102   4.392   1.637  1.7409 -0.0774 -0.0033
 8464TIP3    H246808   3.193   4.285   1.580  0.1769 -2.2086  1.3598
 8465TIP3   OH246809   2.728   2.524   1.384  0.4096  0.4222  0.2540
 8465TIP3    H146810   2.658   2.579   1.418  1.9763  3.1923 -0.7232
 8465TIP3    H246811   2.692   2.487   1.303 -0.7640 -0.2729  1.0661
 8466TIP3   OH246812   5.703   0.403  12.086  0.4718  0.0763 -0.5271
 8466TIP3    H146813   5.646   0.460  12.033  0.2617  1.8417  1.4499
 8466TIP3    H246814   5.645   0.332  12.114 -0.6862  1.5220  0.9508
 8467TIP3   OH246815   6.327   0.704   3.625 -0.3427 -0.2867  0.3425
 8467TIP3    H146816   6.377   0.623   3.637  0.5694  0.2375  0.2038
 8467TIP3    H246817   6.309   0.707   3.531  0.2347  0.0046  0.2329
 8468TIP3   OH246818   3.540   6.372   1.703 -0.8655  0.1741 -0.2514
 8468TIP3    H146819   3.495   6.288   1.706 -1.3056  0.3784 -0.8822
 8468TIP3    H246820   3.507   6.414   1.623 -0.2938  0.7417 -0.1990
 8469TIP3   OH246821   5.531   2.446  14.740 -0.5688 -0.7211 -0.0235
 8469TIP3    H146822   5.577   2.406  14.814 -0.9992 -0.6799  0.2706
 8469TIP3    H246823   5.488   2.373  14.697 -1.2921 -0.5963  0.4675
 8470TIP3   OH246824   4.125   4.059   1.158 -0.3592 -0.6131 -0.2351
 8470TIP3    H146825   4.157   4.008   1.232  1.1896  0.9045  0.2156
 8470TIP3    H246826   4.075   3.997   1.105  1.2665 -2.5350  0.3691
 8471TIP3   OH246827   4.250   2.989  16.056  0.1114  0.1848  0.6217
 8471TIP3    H146828   4.287   2.988  16.144  0.1891  0.6924  0.5983
 8471TIP3    H246829   4.247   3.082  16.032 -0.4490  0.0964  0.3189
 8472TIP3   OH246830   4.317   3.256   2.552  0.0972 -0.2557  0.0160
 8472TIP3    H146831   4.395   3.291   2.508  0.5515 -1.7008 -0.3734
 8472TIP3    H246832   4.261   3.226   2.481  1.0978 -3.1678  0.3088
 8473TIP3   OH246833   2.434   4.903  16.708  0.3149 -0.0075 -0.5507
 8473TIP3    H146834   2.447   4.813  16.679  0.4042 -0.8325  1.8363
 8473TIP3    H246835   2.522   4.939  16.714  0.2886  0.2184 -1.3413
 8474TIP3   OH246836   0.645   3.029  15.055  0.0755 -0.5056 -0.5025
 8474TIP3    H146837   0.680   3.059  14.972 -0.8353  0.1423 -0.6700
 8474TIP3    H246838   0.554   3.006  15.035 -1.5513  3.6994  1.1108
 8475TIP3   OH246839   1.719   5.506   3.772 -0.4993  0.2086 -0.6879
 8475TIP3    H146840   1.671   5.569   3.826 -1.9310 -1.2586 -0.1481
 8475TIP3    H246841   1.810   5.513   3.802 -1.0836  0.1378  1.2547
 8476TIP3   OH246842   2.231   0.307  17.063  0.7488  0.4467  0.0493
 8476TIP3    H146843   2.195   0.257  17.136  0.5638 -1.4526 -1.2716
 8476TIP3    H246844   2.241   0.243  16.993  2.8589  1.7738 -0.9487
 8477TIP3   OH246845   1.019   6.521  15.987  0.4415  0.2749  0.4252
 8477TIP3    H146846   1.064   6.568  15.916 -0.4469  0.6686  0.1072
 8477TIP3    H246847   0.946   6.477  15.944  0.9774 -1.0160  0.8097
 8478TIP3   OH246848   0.667   5.369   5.215  0.2225  0.5801  0.6472
 8478TIP3    H146849   0.744   5.350   5.269 -0.6985 -1.4359  1.3656
 8478TIP3    H246850   0.700   5.373   5.125  1.1369 -0.5953  0.9117
 8479TIP3   OH246851   5.823   6.419  13.669  0.3732 -0.3240 -0.0301
 8479TIP3    H146852   5.729   6.402  13.675 -0.0797  1.7539 -0.4066
 8479TIP3    H246853   5.845   6.459  13.754  1.5045 -3.0711  1.0696
 8480TIP3   OH246854   0.176   5.219  15.180 -0.5527 -0.4314  0.2129
 8480TIP3    H146855   0.194   5.206  15.087  0.3575 -2.0473  0.5861
 8480TIP3    H246856   0.262   5.231  15.220 -0.9948  1.4145  0.7325
 8481TIP3   OH246857   0.990   0.420  15.942 -0.2324 -0.5684  0.6856
 8481TIP3    H146858   1.008   0.326  15.942  0.2101 -0.4886  0.9159
 8481TIP3    H246859   1.020   0.450  16.028 -1.4527 -0.4157  1.0707
 8482TIP3   OH246860   3.858   0.948   4.654  0.6098  0.0228 -0.1915
 8482TIP3    H146861   3.770   0.981   4.637  0.7070 -0.5495 -2.0611
 8482TIP3    H246862   3.854   0.856   4.629  1.5949 -0.1430  0.2294
 8483TIP3   OH246863   4.639   0.095  16.852 -0.2288  0.0331  0.4453
 8483TIP3    H146864   4.615   0.089  16.759  2.4736 -1.7972 -0.2311
 8483TIP3    H246865   4.578   0.036  16.896 -1.3613  0.7055 -0.1649
 8484TIP3   OH246866   5.398   6.211  11.512 -0.0898  0.4010 -0.2549
 8484TIP3    H146867   5.377   6.302  11.493 -1.0253  0.3305  0.3292
 8484TIP3    H246868   5.493   6.205  11.503 -0.1770  1.0358 -1.9182
 8485TIP3   OH246869   0.441   6.486  11.470  0.2358  0.5025  0.0728
 8485TIP3    H146870   0.430   6.397  11.436 -2.1964  1.4029 -1.7891
 8485TIP3    H246871   0.491   6.531  11.402 -1.0902  1.2582 -0.4478
 8486TIP3   OH246872   5.552   5.525  15.278  0.1859  0.0922  0.5143
 8486TIP3    H146873   5.628   5.486  15.321  1.2598  0.4823 -0.9661
 8486TIP3    H246874   5.517   5.454  15.223  0.6432  0.4768 -0.2774
 8487TIP3   OH246875   5.380   0.343   0.757 -0.1744 -0.0081 -0.1237
 8487TIP3    H146876   5.356   0.275   0.694  1.6342 -1.1123  0.2852
 8487TIP3    H246877   5.475   0.350   0.749 -0.2096  1.7129  0.6400
 8488TIP3   OH246878   2.292   1.581   0.344  0.2735 -0.0861  0.1397
 8488TIP3    H146879   2.283   1.503   0.289 -0.7243 -0.1838  0.4051
 8488TIP3    H246880   2.207   1.589   0.388 -0.1628  1.9572 -0.9477
 8489TIP3   OH246881   0.164   4.352  12.322 -0.2544 -0.2355  0.6920
 8489TIP3    H146882   0.106   4.285  12.358  0.1762 -0.0780  1.7123
 8489TIP3    H246883   0.135   4.434  12.362 -0.4110  0.1140 -0.1087
 8490TIP3   OH246884   2.892   4.416   4.603 -0.4461  0.5306 -0.1592
 8490TIP3    H146885   2.873   4.493   4.657  1.2757  1.1302 -0.3337
 8490TIP3    H246886   2.962   4.370   4.650  0.2730  0.4404 -1.2705
 8491TIP3   OH246887   4.816   0.625   4.160 -0.0409  0.2254  0.7243
 8491TIP3    H146888   4.786   0.709   4.125  1.3636  0.1983 -0.6378
 8491TIP3    H246889   4.779   0.560   4.100  0.3188 -0.0061  0.7545
 8492TIP3   OH246890   4.431   5.738   2.608 -0.1634  0.0672 -0.7274
 8492TIP3    H146891   4.509   5.790   2.590 -0.5711  1.1524  0.4985
 8492TIP3    H246892   4.439   5.715   2.701 -2.1097  1.6493 -0.0998
 8493TIP3   OH246893   6.429   2.249  13.382  0.9739  0.1069  0.9537
 8493TIP3    H146894   6.395   2.160  13.392  0.8471  0.2403  1.8310
 8493TIP3    H246895   6.363   2.304  13.425  0.6188  0.7159 -0.3504
 8494TIP3   OH246896   2.209   0.703   2.116  0.1792 -0.7446  0.3398
 8494TIP3    H146897   2.250   0.703   2.202  1.2280  1.3359 -0.0963
 8494TIP3    H246898   2.262   0.762   2.064 -0.0710 -2.3822 -1.9485
 8495TIP3   OH246899   4.510   5.873   4.901 -0.0174  0.2287 -0.7420
 8495TIP3    H146900   4.466   5.842   4.822 -1.1181  1.0276 -0.4818
 8495TIP3    H246901   4.438   5.904   4.957  0.8145  0.5764  0.1578
 8496TIP3   OH246902   5.946   5.999   3.789 -0.3074  0.2500 -0.4114
 8496TIP3    H146903   5.877   6.038   3.842  0.3955  2.7160 -1.1597
 8496TIP3    H246904   5.984   6.073   3.742  2.1447 -1.1654 -0.8220
 8497TIP3   OH246905   0.781   4.926   5.297 -0.6119  0.7581  0.0396
 8497TIP3    H146906   0.738   4.991   5.352  0.8844  1.7263  0.1099
 8497TIP3    H246907   0.851   4.891   5.352 -1.6218 -1.2412  0.1446
 8498TIP3   OH246908   2.216   5.768   5.421  0.3881 -0.1866  0.1911
 8498TIP3    H146909   2.174   5.761   5.506 -1.2070 -1.0659 -0.6133
 8498TIP3    H246910   2.188   5.853   5.387 -1.9155 -1.2597 -0.8522
 8499TIP3   OH246911   1.718   3.473   1.256  0.6963 -0.0889 -0.0938
 8499TIP3    H146912   1.682   3.413   1.191  0.5015  0.1862 -0.2430
 8499TIP3    H246913   1.647   3.485   1.319  0.5097  0.4621 -0.3931
 8500TIP3   OH246914   5.052   2.242   1.824  0.0011  0.0044  0.0168
 8500TIP3    H146915   5.083   2.188   1.751  1.9289  1.0106  0.0256
 8500TIP3    H246916   5.023   2.179   1.889 -0.1818 -0.9546 -0.9507
 8501TIP3   OH246917   3.378   0.762   0.826  0.0397  0.6935 -0.7337
 8501TIP3    H146918   3.299   0.806   0.856  0.1459 -0.2655  1.0970
 8501TIP3    H246919   3.371   0.673   0.860  1.6911  0.4587 -0.9128
 8502TIP3   OH246920   0.401   6.540   1.115 -0.7743  0.2107  0.0523
 8502TIP3    H146921   0.433   6.461   1.071  1.8056  1.9279 -1.3215
 8502TIP3    H246922   0.341   6.580   1.053  2.3133  2.2489 -1.8551
 8503TIP3   OH246923   1.963   3.999   3.700  0.4615  0.4812 -0.4217
 8503TIP3    H146924   1.917   3.986   3.783  1.7624 -0.1229  0.2307
 8503TIP3    H246925   2.055   3.983   3.720  0.5756 -2.3017 -2.4880
 8504TIP3   OH246926   6.357   0.521   0.660  0.1295 -0.1292 -0.2110
 8504TIP3    H146927   6.452   0.516   0.653  0.2697 -2.6903  1.9979
 8504TIP3    H246928   6.325   0.481   0.579  0.9285  0.0458 -0.6286
 8505TIP3   OH246929   3.088   4.005   1.308  0.2443 -0.0143 -0.0734
 8505TIP3    H146930   3.027   3.931   1.297  0.2753 -0.4125  1.9745
 8505TIP3    H246931   3.174   3.967   1.290  0.2030 -0.3610  0.4166
 8506TIP3   OH246932   1.942   6.571   1.069  0.1023  0.1057  0.2949
 8506TIP3    H146933   1.971   6.505   1.132  2.4291 -0.5964 -1.3802
 8506TIP3    H246934   1.847   6.561   1.067  0.3700 -4.7315 -1.3193
 8507TIP3   OH246935   1.305   5.125   5.628 -0.4070  0.6704 -0.4513
 8507TIP3    H146936   1.213   5.123   5.602 -0.4534 -0.8148 -0.2296
 8507TIP3    H246937   1.305   5.104   5.721  0.1533  0.7324 -0.4325
 8508TIP3   OH246938   1.348   3.779   6.212 -0.2115 -0.2456  0.8187
 8508TIP3    H146939   1.320   3.864   6.179  0.4665 -1.0840 -2.2574
 8508TIP3    H246940   1.311   3.774   6.301 -4.0551  1.3767 -0.4806
 8509TIP3   OH246941   0.053   0.242   0.922 -0.0486 -0.5041  0.3977
 8509TIP3    H146942  -0.041   0.257   0.913  0.2768  0.5378 -1.7426
 8509TIP3    H246943   0.089   0.328   0.943  0.5471 -0.6780  0.1129
 8510TIP3   OH246944   0.274   0.253  16.399 -0.4674 -0.4267  0.4653
 8510TIP3    H146945   0.236   0.281  16.482 -1.0877 -1.0232  0.3972
 8510TIP3    H246946   0.339   0.187  16.424  2.8719  2.6984  0.8489
 8511TIP3   OH246947   0.262   5.076   4.903 -0.0363 -0.9040 -0.2895
 8511TIP3    H146948   0.287   4.984   4.908  0.1498 -0.8302  0.2125
 8511TIP3    H246949   0.332   5.122   4.949 -0.9646 -0.6704  0.9582
 8512TIP3   OH246950   4.181   2.947  13.450  0.0064  0.4094  0.4439
 8512TIP3    H146951   4.127   2.970  13.374  0.8017  0.1813 -0.2001
 8512TIP3    H246952   4.229   3.027  13.471  1.1874 -0.0255 -0.4790
 8513TIP3   OH246953   4.497   5.441   1.016  0.2543 -0.2041  0.1726
 8513TIP3    H146954   4.547   5.411   1.092 -0.3317 -0.7460  0.3538
 8513TIP3    H246955   4.425   5.378   1.008  0.9541 -0.8361 -1.5389
 8514TIP3   OH246956   3.059   0.354   1.276 -0.5098 -0.3442 -0.2438
 8514TIP3    H146957   3.131   0.300   1.244 -1.8515 -2.1195 -0.4087
 8514TIP3    H246958   3.100   0.413   1.340  0.9463 -1.9153  0.3601
 8515TIP3   OH246959   2.191   6.078   5.390 -0.0674 -0.2327 -1.0239
 8515TIP3    H146960   2.124   6.109   5.451 -0.3459  0.3411 -1.6074
 8515TIP3    H246961   2.207   6.152   5.332  1.0430 -0.3790 -0.9274
 8516TIP3   OH246962   6.710   2.800  16.499  0.3823  0.5131 -0.2120
 8516TIP3    H146963   6.715   2.705  16.506  1.2914  0.6883  2.4501
 8516TIP3    H246964   6.657   2.815  16.420  1.7384 -2.1282 -1.7615
 8517TIP3   OH246965   6.289   6.460  15.852 -0.5083  0.2228 -0.3092
 8517TIP3    H146966   6.275   6.494  15.940 -0.4376  1.3629 -0.7194
 8517TIP3    H246967   6.201   6.457  15.814 -0.4484  0.5529 -0.4800
 8518TIP3   OH246968   5.417   1.131  17.073 -0.2515  0.2641 -0.4246
 8518TIP3    H146969   5.400   1.041  17.043  0.4219  0.0701 -0.2467
 8518TIP3    H246970   5.389   1.186  17.000 -1.3412 -0.0482 -0.2543
 8519TIP3   OH246971   2.608   2.066   1.370 -0.1006 -0.1486 -0.0879
 8519TIP3    H146972   2.655   2.148   1.383  0.1724 -0.5844  1.9779
 8519TIP3    H246973   2.532   2.089   1.316  0.5581  1.2360 -0.4415
 8520TIP3   OH246974   1.787   4.885  14.172 -0.2581  0.2482  0.6158
 8520TIP3    H146975   1.701   4.877  14.214 -0.7812  0.2916 -0.3934
 8520TIP3    H246976   1.771   4.856  14.082  1.1925 -1.4394  0.8514
 8521TIP3   OH246977   6.741   0.606   2.220 -0.0835  0.1588 -0.2226
 8521TIP3    H146978   6.736   0.633   2.312 -0.8457  1.1013 -0.5268
 8521TIP3    H246979   6.684   0.667   2.174  1.3893  0.5953 -1.5465
 8522TIP3   OH246980   1.649   5.870   0.648 -0.1264 -0.1089 -0.1217
 8522TIP3    H146981   1.563   5.832   0.668 -0.4843  0.3576 -0.7155
 8522TIP3    H246982   1.699   5.860   0.728 -1.1218  0.6654  0.6146
 8523TIP3   OH246983   2.497   4.891  11.537  0.5742 -0.0478  0.5405
 8523TIP3    H146984   2.474   4.810  11.583 -0.1095  0.3975  0.9940
 8523TIP3    H246985   2.479   4.871  11.445  0.3887 -0.4053  0.6505
 8524TIP3   OH246986   2.761   2.700   3.712  0.0004  0.1541  0.8868
 8524TIP3    H146987   2.673   2.737   3.702  0.6322  1.5309  0.2208
 8524TIP3    H246988   2.793   2.736   3.794  0.2966  0.4106  0.6605
 8525TIP3   OH246989   2.495   0.715   3.068 -0.0657  0.2843 -0.3761
 8525TIP3    H146990   2.525   0.685   3.154 -0.2917  0.0244 -0.3833
 8525TIP3    H246991   2.575   0.726   3.016  0.0465  0.0709 -0.2494
 8526TIP3   OH246992   5.610   0.008  14.525  0.5673  0.3119  0.8494
 8526TIP3    H146993   5.565   0.024  14.442 -0.2948 -1.0948  1.0176
 8526TIP3    H246994   5.545   0.030  14.592 -0.1251 -2.2258  1.0936
 8527TIP3   OH246995   5.053   2.860  16.074  0.1791  0.6536  0.1429
 8527TIP3    H146996   5.025   2.885  15.987 -1.0839 -1.3498 -0.0940
 8527TIP3    H246997   4.972   2.848  16.124  0.8397  0.8001  1.3030
 8528TIP3   OH246998   1.966   2.548   1.244  0.0256 -0.4410 -0.3820
 8528TIP3    H146999   1.953   2.461   1.282  0.2647 -0.0740  0.5663
 8528TIP3    H247000   1.877   2.584   1.238 -0.0336 -0.5839 -0.3767
 8529TIP3   OH247001   3.508   5.879   0.016  0.0281  0.3083 -0.1335
 8529TIP3    H147002   3.453   5.953   0.044 -1.5672 -0.8737  0.0391
 8529TIP3    H247003   3.517   5.825   0.095  0.5325 -0.0525 -0.4346
 8530TIP3   OH247004   4.336   4.932   5.456  0.0571 -0.4816  0.6871
 8530TIP3    H147005   4.255   4.969   5.422 -0.5685 -0.0152  2.5319
 8530TIP3    H247006   4.323   4.837   5.453 -0.7252 -0.4021  1.3066
 8531TIP3   OH247007   0.261   5.509   3.920  0.5920  0.6667 -0.4252
 8531TIP3    H147008   0.340   5.548   3.956  0.5572  1.2240 -0.9332
 8531TIP3    H247009   0.235   5.443   3.984 -0.1239  2.4143  1.1890
 8532TIP3   OH247010   0.430   0.802   4.614 -0.1734 -0.1219  0.0182
 8532TIP3    H147011   0.482   0.823   4.691  1.8338 -0.5334 -1.1596
 8532TIP3    H247012   0.345   0.844   4.630  0.9721  1.8297  1.3707
 8533TIP3   OH247013   3.103   2.851  12.642 -0.1010 -0.3964 -0.4563
 8533TIP3    H147014   3.078   2.904  12.567 -1.5723 -0.3702  0.0171
 8533TIP3    H247015   3.168   2.904  12.689  0.0386  0.0368 -1.1331
 8534TIP3   OH247016   5.856   2.956  16.881  0.3250 -0.2618  0.4693
 8534TIP3    H147017   5.885   2.934  16.970 -0.4708  1.4244  1.1925
 8534TIP3    H247018   5.815   3.042  16.890  1.5767  0.6482 -1.8341
 8535TIP3   OH247019   1.780   5.708  16.485 -0.1777 -0.6979  0.4485
 8535TIP3    H147020   1.746   5.797  16.482 -1.1016 -0.9356  2.0902
 8535TIP3    H247021   1.785   5.680  16.394 -0.8355  0.6768 -0.0295
 8536TIP3   OH247022   0.512   2.000   0.319 -0.1766  0.3735  0.6744
 8536TIP3    H147023   0.438   2.057   0.295 -0.3719 -0.2301 -0.2010
 8536TIP3    H247024   0.476   1.944   0.388  0.0349  1.3321  1.5857
 8537TIP3   OH247025   3.689   2.584   2.444 -0.6255 -0.5811  0.1762
 8537TIP3    H147026   3.614   2.530   2.469 -2.4670  0.7304 -2.0402
 8537TIP3    H247027   3.698   2.648   2.515 -1.1632 -1.1778  0.7899
 8538TIP3   OH247028   6.574   3.920  12.706  0.2042  0.7399 -0.0120
 8538TIP3    H147029   6.669   3.913  12.698  0.1842 -1.9430  1.0687
 8538TIP3    H247030   6.559   3.948  12.797 -0.0162 -1.7271  0.7719
 8539TIP3   OH247031   6.390   5.103   1.024  0.1603 -0.0410  0.7281
 8539TIP3    H147032   6.372   5.015   0.991 -1.1518 -0.4783  2.4402
 8539TIP3    H247033   6.316   5.122   1.082  1.4396  1.3326  2.0064
 8540TIP3   OH247034   2.102   2.186   4.444 -0.4022 -0.3768  0.5610
 8540TIP3    H147035   2.007   2.181   4.454 -0.5973 -1.2951 -1.3532
 8540TIP3    H247036   2.116   2.193   4.350  1.4035  1.2100  0.8897
 8541TIP3   OH247037   4.766   4.933  14.839 -0.7884  0.0462  0.5992
 8541TIP3    H147038   4.720   4.855  14.871 -2.3468  0.8835  0.4871
 8541TIP3    H247039   4.748   5.000  14.906  0.3324  0.3841  0.5750
 8542TIP3   OH247040   4.233   3.446  10.492  0.1041  0.0067 -0.2357
 8542TIP3    H147041   4.208   3.538  10.484  0.2924 -0.0537 -2.0709
 8542TIP3    H247042   4.298   3.433  10.423  0.0634 -1.5112 -0.0319
 8543TIP3   OH247043   0.094   1.625   6.609  0.1392  0.3971 -0.8406
 8543TIP3    H147044   0.106   1.582   6.694 -0.1737  0.2589 -0.8651
 8543TIP3    H247045   0.162   1.587   6.554 -0.5286 -0.5535 -1.0399
 8544TIP3   OH247046   3.491   6.623  16.314 -0.4661 -0.5327 -0.0790
 8544TIP3    H147047   3.452   6.537  16.332 -1.4373 -0.1822 -0.4022
 8544TIP3    H247048   3.526   6.652  16.399 -2.1424 -0.2825  0.5743
 8545TIP3   OH247049   2.721   4.967  14.943 -0.1458  0.0292  0.1551
 8545TIP3    H147050   2.782   4.984  14.871 -0.4109 -2.1540 -0.6377
 8545TIP3    H247051   2.777   4.937  15.015 -0.2029 -1.4312 -0.3901
 8546TIP3   OH247052   6.323   5.178   0.136 -0.7859  0.1978  0.0975
 8546TIP3    H147053   6.265   5.244   0.175 -0.7826  0.5162 -0.4322
 8546TIP3    H247054   6.404   5.186   0.186 -0.8435  0.4825  0.1527
 8547TIP3   OH247055   2.190   2.399  16.705 -0.6224  0.0593  0.5310
 8547TIP3    H147056   2.102   2.419  16.737 -0.2365  0.1391  1.5890
 8547TIP3    H247057   2.247   2.459  16.753  0.0201 -0.0308 -0.1025
 8548TIP3   OH247058   6.693   1.875   5.691 -0.0891  0.2360 -0.1237
 8548TIP3    H147059   6.714   1.888   5.784 -0.2411 -0.1134 -0.0359
 8548TIP3    H247060   6.719   1.956   5.649  1.1195 -0.0414  0.0388
 8549TIP3   OH247061   1.262   1.498   0.377  0.1422  0.0500  0.4536
 8549TIP3    H147062   1.240   1.501   0.471 -0.5405  0.1932  0.2961
 8549TIP3    H247063   1.356   1.516   0.374 -0.2296  2.3458  0.9533
 8550TIP3   OH247064   3.178   4.442  13.686  0.2125 -0.1454  0.0816
 8550TIP3    H147065   3.090   4.478  13.678 -0.5094 -2.0831 -1.4446
 8550TIP3    H247066   3.235   4.519  13.690 -1.4674  1.1465  0.2960
 8551TIP3   OH247067   5.428   0.078   3.703 -0.3872 -0.5480 -0.0985
 8551TIP3    H147068   5.481   0.157   3.719  0.0530 -1.1230  1.3686
 8551TIP3    H247069   5.480   0.006   3.737 -1.0349 -1.4378 -0.9221
 8552TIP3   OH247070   3.872   1.085   6.560  0.1421  0.2111 -0.3611
 8552TIP3    H147071   3.911   1.163   6.521  1.4189 -0.2525 -0.0643
 8552TIP3    H247072   3.944   1.023   6.566 -1.0743 -1.3750 -1.5076
 8553TIP3   OH247073   1.447   4.347  14.606 -0.0877 -0.2601 -0.2898
 8553TIP3    H147074   1.529   4.313  14.571 -0.1499 -1.4234  0.6550
 8553TIP3    H247075   1.380   4.290  14.568 -0.4333  0.3600 -0.6410
 8554TIP3   OH247076   1.350   6.564   5.117 -0.1705  0.5009 -0.0619
 8554TIP3    H147077   1.405   6.492   5.085  1.1993  1.0257  0.9878
 8554TIP3    H247078   1.261   6.530   5.115  0.4820 -1.3468  0.7023
 8555TIP3   OH247079   6.086   5.916  14.829 -0.3761  0.2938  0.0970
 8555TIP3    H147080   6.024   5.958  14.890 -0.4083  0.1761  0.1465
 8555TIP3    H247081   6.046   5.928  14.743 -0.4838  0.1933  0.1321
 8556TIP3   OH247082   6.367   5.822   5.904 -0.1495  0.1919  0.0987
 8556TIP3    H147083   6.329   5.776   5.979  0.5089 -0.2838  0.1520
 8556TIP3    H247084   6.298   5.881   5.875 -0.7656 -0.3316  0.4672
 8557TIP3   OH247085   2.275   2.861   1.873 -0.0464 -0.2729  0.0594
 8557TIP3    H147086   2.211   2.911   1.924  1.3524 -0.5873  2.2382
 8557TIP3    H247087   2.329   2.927   1.830 -0.3107  0.0163  0.1709
 8558TIP3   OH247088   4.442   0.769  11.611 -0.2572 -0.0036  0.5837
 8558TIP3    H147089   4.401   0.689  11.579 -2.3544  0.8275  1.0230
 8558TIP3    H247090   4.459   0.753  11.704 -0.5539  0.0161  0.6412
 8559TIP3   OH247091   5.111   1.986  15.426  0.4777 -0.1903 -0.3007
 8559TIP3    H147092   5.138   2.015  15.513 -0.6549 -0.5119  0.1733
 8559TIP3    H247093   5.182   1.931  15.396  0.5292 -0.7254  0.7611
 8560TIP3   OH247094   0.731   5.181  13.910  0.2678  0.2839 -0.3786
 8560TIP3    H147095   0.698   5.093  13.894  2.7368 -0.8585  0.2612
 8560TIP3    H247096   0.679   5.213  13.984 -0.5158 -0.7089 -0.4803
 8561TIP3   OH247097   1.900   0.981   1.658 -0.3761 -0.0936 -0.2442
 8561TIP3    H147098   1.958   1.019   1.724  0.0281 -1.0454 -0.0434
 8561TIP3    H247099   1.876   1.056   1.603 -0.3088  0.6166  0.6616
 8562TIP3   OH247100   2.365   1.375  13.407 -0.0954  0.2058 -0.0041
 8562TIP3    H147101   2.358   1.280  13.400  0.3966  0.0907  0.8730
 8562TIP3    H247102   2.369   1.392  13.502  0.6292  1.0311 -0.1613
 8563TIP3   OH247103   3.505   1.546   3.943  0.8024 -0.3294 -0.1096
 8563TIP3    H147104   3.498   1.488   4.019 -0.1101 -2.7026 -1.8747
 8563TIP3    H247105   3.510   1.487   3.868  0.5634  1.9124 -2.0128
 8564TIP3   OH247106   5.066   1.578  15.684  0.2884  0.6706  0.0551
 8564TIP3    H147107   5.002   1.576  15.755  0.2274  0.8995  0.0083
 8564TIP3    H247108   5.132   1.641  15.712  0.5227  0.3949  0.1270
 8565TIP3   OH247109   3.262   2.168  13.571  0.0807 -0.3688 -0.4160
 8565TIP3    H147110   3.210   2.095  13.603 -0.6993  0.2573 -0.2428
 8565TIP3    H247111   3.199   2.238  13.553  0.9940  1.0353  1.5178
 8566TIP3   OH247112   2.041   4.016   3.400 -0.3515  0.6061  0.0680
 8566TIP3    H147113   1.979   3.952   3.365  0.6415 -1.1084  1.2922
 8566TIP3    H247114   2.015   4.027   3.491  0.2280  1.0229  0.1916
 8567TIP3   OH247115   5.600   2.032  13.127 -0.5728  0.0694  0.0934
 8567TIP3    H147116   5.642   2.071  13.203  1.0069  1.2256 -1.3041
 8567TIP3    H247117   5.573   2.107  13.074 -0.0679 -0.7090 -1.2947
 8568TIP3   OH247118   1.738   5.798   3.710  0.0462 -0.0167  0.6602
 8568TIP3    H147119   1.687   5.860   3.762 -0.8548  0.0468 -0.2700
 8568TIP3    H247120   1.680   5.773   3.638  1.0131 -0.6339  0.0659
 8569TIP3   OH247121   6.683   1.822  15.991 -0.5002 -0.2612 -0.2838
 8569TIP3    H147122   6.771   1.859  15.980 -0.9008  1.8103  2.3466
 8569TIP3    H247123   6.629   1.871  15.929 -0.0986 -0.3227 -0.6895
 8570TIP3   OH247124   5.912   6.605   1.331  0.0356  0.3542 -0.0051
 8570TIP3    H147125   5.864   6.623   1.413  1.1900  0.7539  0.6078
 8570TIP3    H247126   5.945   6.690   1.304  0.5750  0.0532 -0.3046
 8571TIP3   OH247127   3.870   4.770   4.058  0.4958  0.0012 -0.2159
 8571TIP3    H147128   3.927   4.719   3.999 -1.0385  1.7773 -3.5340
 8571TIP3    H247129   3.918   4.851   4.073 -0.8524  1.4495 -2.9190
 8572TIP3   OH247130   1.070   0.853   3.071 -0.2704 -0.1084 -0.3544
 8572TIP3    H147131   1.133   0.883   3.137  0.3240  0.4302 -1.1354
 8572TIP3    H247132   1.026   0.933   3.042 -0.3500 -0.3024 -0.7814
 8573TIP3   OH247133   2.204   2.263  14.623  0.0886  0.3024  0.1439
 8573TIP3    H147134   2.134   2.198  14.631  1.3813 -1.2573 -0.7033
 8573TIP3    H247135   2.237   2.273  14.712 -0.2572 -0.0384  0.3159
 8574TIP3   OH247136   5.491   0.461  17.247 -0.5781  0.5624  0.5209
 8574TIP3    H147137   5.547   0.406  17.302 -0.8955  1.1990  1.5144
 8574TIP3    H247138   5.499   0.423  17.159  1.3842  0.6171  0.6234
 8575TIP3   OH247139   3.977   3.277   2.954  0.5391 -0.1548  0.3285
 8575TIP3    H147140   3.919   3.201   2.947 -0.2145  0.2841  1.5250
 8575TIP3    H247141   4.009   3.291   2.865  1.2390 -2.2799  0.1849
 8576TIP3   OH247142   2.522   1.551  11.152  0.1065  0.5331 -0.3338
 8576TIP3    H147143   2.562   1.514  11.231  1.3383 -0.2419 -1.2765
 8576TIP3    H247144   2.441   1.591  11.183  1.1199  1.2974  1.5078
 8577TIP3   OH247145   2.374   2.280  15.171  0.4698 -0.3511 -0.2185
 8577TIP3    H147146   2.394   2.291  15.078  1.4183  0.7771  0.0999
 8577TIP3    H247147   2.278   2.284  15.176  0.4789  2.3317 -0.8601
 8578TIP3   OH247148   0.511   1.927   4.099 -0.1444  0.1916 -0.1644
 8578TIP3    H147149   0.436   1.982   4.120 -0.6253  0.0012 -1.3419
 8578TIP3    H247150   0.516   1.865   4.172 -0.0956  1.2467  0.7634
 8579TIP3   OH247151   1.478   6.080  14.540  0.4688  0.1186 -0.3071
 8579TIP3    H147152   1.557   6.028  14.555  1.0640  0.4198 -2.1512
 8579TIP3    H247153   1.441   6.094  14.627  1.6434 -1.2742  0.4496
 8580TIP3   OH247154   5.223   5.494  15.405  0.3983  0.2463 -0.2502
 8580TIP3    H147155   5.285   5.503  15.478 -0.5992  0.0625  0.6375
 8580TIP3    H247156   5.163   5.567  15.415 -0.7702 -0.7349  0.1417
 8581TIP3   OH247157   4.041   2.861   3.092 -0.0859 -0.3537 -0.2691
 8581TIP3    H147158   3.984   2.929   3.128  0.7163  0.2896 -0.2006
 8581TIP3    H247159   3.987   2.817   3.026 -0.2296  1.1287 -1.1817
 8582TIP3   OH247160   4.132   6.645  12.679 -0.3207 -0.6283 -0.2921
 8582TIP3    H147161   4.119   6.555  12.649 -2.5347 -0.7725  0.8562
 8582TIP3    H247162   4.166   6.691  12.602  1.7414 -2.5757 -0.6442
 8583TIP3   OH247163   5.780   6.614  17.410  0.0596  0.3272  0.0659
 8583TIP3    H147164   5.743   6.626  17.497  0.0968  1.0342 -0.0109
 8583TIP3    H247165   5.873   6.594  17.425  0.0175  0.2321  0.1949
 8584TIP3   OH247166   3.052   4.194   6.215 -0.7871  0.3834 -0.9336
 8584TIP3    H147167   3.127   4.254   6.210 -0.4564  0.1251  0.6731
 8584TIP3    H247168   2.988   4.240   6.268 -1.0562 -0.1395 -0.8017
 8585TIP3   OH247169   6.257   0.291  12.655 -0.5764  0.0286 -0.3686
 8585TIP3    H147170   6.181   0.319  12.707 -0.8454 -1.2609 -0.0398
 8585TIP3    H247171   6.258   0.352  12.581 -1.5085  0.5035 -0.0176
 8586TIP3   OH247172   1.504   1.016  13.340  0.6453 -0.2409 -0.1413
 8586TIP3    H147173   1.557   0.971  13.274 -0.4437  0.4944 -1.5585
 8586TIP3    H247174   1.420   0.970  13.339  0.1206  0.7047 -0.3309
 8587TIP3   OH247175   1.877   5.877   5.466 -0.4701 -0.0266 -0.0099
 8587TIP3    H147176   1.891   5.953   5.411 -1.5070 -0.5236 -0.9930
 8587TIP3    H247177   1.888   5.802   5.407  0.9237 -0.6928  1.0087
 8588TIP3   OH247178   2.711   1.397  11.833  0.2461 -0.4022  0.0221
 8588TIP3    H147179   2.770   1.431  11.766 -0.5502  1.0489  0.0319
 8588TIP3    H247180   2.641   1.461  11.840  0.1458 -0.6387  2.0540
 8589TIP3   OH247181   0.145   4.413  15.004  0.5151 -0.3656  0.1276
 8589TIP3    H147182   0.128   4.395  14.911  0.0391  0.4207  0.0516
 8589TIP3    H247183   0.062   4.392  15.047 -0.3058  2.1586 -0.0552
 8590TIP3   OH247184   3.150   5.208  13.966 -0.0329  0.5310  0.1169
 8590TIP3    H147185   3.155   5.270  14.039 -2.6341  1.5940 -0.4994
 8590TIP3    H247186   3.215   5.241  13.903  0.4232  1.1030  0.8614
 8591TIP3   OH247187   1.786   3.275  13.755 -0.2985 -0.7886 -0.1260
 8591TIP3    H147188   1.703   3.292  13.799 -0.9991 -2.4331 -0.7368
 8591TIP3    H247189   1.769   3.292  13.663  1.0400  2.1873  0.0542
 8592TIP3   OH247190   6.438   1.662  16.443 -0.3609  0.0763  0.3811
 8592TIP3    H147191   6.531   1.664  16.464 -0.7131  0.6776  2.1034
 8592TIP3    H247192   6.405   1.746  16.476 -1.5570 -0.2609  0.0740
 8593TIP3   OH247193   1.048   2.875  12.973  0.4452  0.3752  0.5357
 8593TIP3    H147194   0.958   2.908  12.968  1.0219  2.2096  1.2344
 8593TIP3    H247195   1.092   2.937  13.031  1.9409 -1.0360  0.9788
 8594TIP3   OH247196   4.711   1.685  13.740 -0.2648  0.7061 -0.9697
 8594TIP3    H147197   4.630   1.724  13.708 -0.9910  0.6021  0.6237
 8594TIP3    H247198   4.687   1.643  13.823  1.2175 -0.1658 -0.9350
 8595TIP3   OH247199   2.661   6.313  11.109  0.2689  0.1663 -0.2868
 8595TIP3    H147200   2.733   6.341  11.053  1.4012 -2.9705 -0.6439
 8595TIP3    H247201   2.592   6.287  11.048  0.0535  0.2335 -0.0703
 8596TIP3   OH247202   0.653   2.640  15.883  0.4928  0.7562  0.2580
 8596TIP3    H147203   0.640   2.657  15.977  1.0313  0.3858  0.4020
 8596TIP3    H247204   0.748   2.649  15.870  0.3180  1.7526 -0.4409
 8597TIP3   OH247205   6.326   3.272   0.438 -0.5682  0.6222 -0.2833
 8597TIP3    H147206   6.306   3.201   0.499  0.5797  0.2777 -0.2832
 8597TIP3    H247207   6.244   3.319   0.428 -1.2678 -0.5017 -0.0095
 8598TIP3   OH247208   4.534   2.409  16.104 -0.0631 -0.3000 -0.9702
 8598TIP3    H147209   4.531   2.461  16.184  1.3051  1.3225 -1.9114
 8598TIP3    H247210   4.445   2.373  16.095 -1.5674  3.0620 -0.9973
 8599TIP3   OH247211   4.122   1.290  17.109 -0.6315 -0.0615 -0.2453
 8599TIP3    H147212   4.209   1.253  17.116 -0.3162  0.8966  1.5113
 8599TIP3    H247213   4.066   1.217  17.081  0.7637 -0.5730 -1.8512
 8600TIP3   OH247214   2.367   2.096   2.716  0.2435  0.2357 -0.3128
 8600TIP3    H147215   2.333   2.062   2.798 -1.8896 -1.4125 -1.7648
 8600TIP3    H247216   2.327   2.182   2.707 -0.4798 -0.0830 -0.1808
 8601TIP3   OH247217   0.206   3.835  14.633 -0.0473  0.5777  0.8701
 8601TIP3    H147218   0.231   3.848  14.541  1.6727 -1.6890  0.9319
 8601TIP3    H247219   0.141   3.904  14.650 -1.2444  0.4245 -2.3306
 8602TIP3   OH247220   4.893   4.293   0.096  0.3839 -0.2464  0.3747
 8602TIP3    H147221   4.883   4.275   0.003  0.1399 -1.0443  0.5505
 8602TIP3    H247222   4.871   4.386   0.105  1.2172  0.0490 -0.4814
 8603TIP3   OH247223   4.246   6.115  16.290 -0.7461  0.2674 -0.0993
 8603TIP3    H147224   4.275   6.059  16.218 -2.2834 -2.9121  1.5437
 8603TIP3    H247225   4.297   6.086  16.366 -2.8170 -0.2198  1.1813
 8604TIP3   OH247226   0.160   3.029   4.661 -0.3018  0.1224  0.4903
 8604TIP3    H147227   0.097   2.960   4.645 -0.8727  0.7255  0.0853
 8604TIP3    H247228   0.223   3.021   4.590 -0.2613 -0.0955  0.5510
 8605TIP3   OH247229   4.080   4.049   1.610  0.4151  0.5704  0.3202
 8605TIP3    H147230   4.062   4.143   1.613 -1.8662  0.1966  0.3663
 8605TIP3    H247231   4.017   4.015   1.547  0.1246 -1.1382  1.4695
 8606TIP3   OH247232   4.496   2.503  16.367  0.0112  0.1490 -0.7516
 8606TIP3    H147233   4.421   2.549  16.404 -0.3668  0.7226 -2.1368
 8606TIP3    H247234   4.565   2.510  16.433 -0.3147  1.9575 -0.5617
 8607TIP3   OH247235   4.159   0.851   6.096  0.5328 -0.6645  0.1650
 8607TIP3    H147236   4.156   0.847   6.000 -0.5860 -0.6361  0.1895
 8607TIP3    H247237   4.170   0.944   6.115 -1.3635 -0.3824  0.0773
 8608TIP3   OH247238   4.123   5.116  14.670 -0.0278 -0.2661 -0.9603
 8608TIP3    H147239   4.087   5.189  14.721  0.8644  0.3148 -1.1414
 8608TIP3    H247240   4.116   5.041  14.728 -1.7100 -0.2156 -1.0638
 8609TIP3   OH247241   4.950   3.562   2.168  0.4160  1.1648  0.7347
 8609TIP3    H147242   5.031   3.553   2.118  0.4178  0.6857  0.8145
 8609TIP3    H247243   4.884   3.518   2.116  0.6849 -0.5422  1.7457
 8610TIP3   OH247244   1.264   3.817  15.845 -0.3418  0.1880  0.6379
 8610TIP3    H147245   1.347   3.858  15.867 -0.2936  0.5647 -0.1900
 8610TIP3    H247246   1.246   3.846  15.755 -0.7530 -0.8762  0.3528
 8611TIP3   OH247247   5.160   4.114  13.725 -0.5532  0.0439  0.1098
 8611TIP3    H147248   5.209   4.099  13.805 -0.0515  1.6225  0.1371
 8611TIP3    H247249   5.149   4.209  13.721 -0.3363  0.0238 -1.8223
 8612TIP3   OH247250   3.629   2.488  14.967 -0.1191  0.4512  1.2816
 8612TIP3    H147251   3.582   2.497  14.885  0.2267  1.9473  1.2126
 8612TIP3    H247252   3.698   2.424  14.949  0.2265  1.0914  0.2686
 8613TIP3   OH247253   2.121   4.651  13.533 -0.5470 -0.0830 -0.5037
 8613TIP3    H147254   2.025   4.657  13.542 -0.7182 -2.4578 -0.0312
 8613TIP3    H247255   2.155   4.672  13.620 -0.8404 -1.7368  0.0434
 8614TIP3   OH247256   2.756   4.807   1.014  0.1326  0.2654  0.0568
 8614TIP3    H147257   2.831   4.757   0.980  1.0987  1.8465 -0.2328
 8614TIP3    H247258   2.794   4.888   1.047 -1.5502  1.4851 -0.8501
 8615TIP3   OH247259   1.835   5.745  12.082 -0.2388 -0.1252  0.1490
 8615TIP3    H147260   1.804   5.666  12.037  1.3267 -0.9432  0.4551
 8615TIP3    H247261   1.930   5.742  12.073 -0.1297  1.5708  0.4537
 8616TIP3   OH247262   4.103   1.835   3.626  0.1621 -0.1554  0.4059
 8616TIP3    H147263   4.064   1.899   3.686 -1.1990  0.1905 -0.7871
 8616TIP3    H247264   4.063   1.855   3.541 -0.7967 -3.0154  0.1118
 8617TIP3   OH247265   5.961   5.969  15.513  0.0056  0.3217  0.2158
 8617TIP3    H147266   6.000   5.882  15.504  0.4766  0.6212 -0.6973
 8617TIP3    H247267   6.015   6.026  15.459 -0.3816  1.1692  0.6941
 8618TIP3   OH247268   1.214   3.201  15.465  0.0031 -0.0513 -0.0740
 8618TIP3    H147269   1.122   3.176  15.452 -0.4677  2.2886 -1.8054
 8618TIP3    H247270   1.210   3.270  15.532  0.5967 -0.4549  0.3798
 8619TIP3   OH247271   3.641   5.766  12.516 -0.1814  0.4754 -0.5923
 8619TIP3    H147272   3.728   5.726  12.526 -0.5121 -0.1103  0.0625
 8619TIP3    H247273   3.580   5.695  12.537 -0.8627  0.5155 -2.2966
 8620TIP3   OH247274   5.298   0.073  12.455 -0.2856 -0.2404  0.4595
 8620TIP3    H147275   5.301   0.005  12.388 -0.1258  1.7210 -1.6411
 8620TIP3    H247276   5.326   0.029  12.535  1.2253 -2.3133 -1.1048
 8621TIP3   OH247277   5.354   3.581  12.568  0.0360  0.0280 -0.4152
 8621TIP3    H147278   5.330   3.613  12.655  3.0539  1.1064  0.1608
 8621TIP3    H247279   5.304   3.636  12.507  2.2537  3.5040  0.6360
 8622TIP3   OH247280   3.723   4.087  15.271  0.1870  0.0591  0.1929
 8622TIP3    H147281   3.710   4.180  15.293 -0.4608  0.1453 -0.5277
 8622TIP3    H247282   3.635   4.051  15.270  0.4281 -0.5351  0.2880
 8623TIP3   OH247283   5.525   5.263  13.179  0.2659 -0.2768  0.2330
 8623TIP3    H147284   5.551   5.270  13.087  1.2439 -0.6655  0.4679
 8623TIP3    H247285   5.564   5.340  13.220  0.4012 -0.4615  0.4498
 8624TIP3   OH247286   3.384   0.084   3.365  0.0267  0.2999  0.3602
 8624TIP3    H147287   3.432   0.153   3.410  1.6217  2.0690 -3.5698
 8624TIP3    H247288   3.452   0.023   3.336 -0.9329 -0.8617  0.4884
 8625TIP3   OH247289   1.761   4.472   2.680  0.1725 -0.5356  0.6512
 8625TIP3    H147290   1.779   4.545   2.739  0.2700 -0.7267  0.8630
 8625TIP3    H247291   1.812   4.491   2.601 -1.0022  0.4003  0.0849
 8626TIP3   OH247292   1.407   5.671  11.293 -0.2155 -0.2863  0.0743
 8626TIP3    H147293   1.357   5.673  11.212  1.0310  1.1028 -0.6957
 8626TIP3    H247294   1.447   5.757  11.299  0.1887 -0.5557  1.8842
 8627TIP3   OH247295   3.557   1.089   3.467  0.2659 -0.0316 -0.3555
 8627TIP3    H147296   3.495   1.125   3.531 -1.2236 -0.9803 -1.1954
 8627TIP3    H247297   3.519   1.005   3.443  2.5758 -1.2512  0.0167
 8628TIP3   OH247298   6.285   4.256   2.666  0.4089 -0.1016 -0.7742
 8628TIP3    H147299   6.309   4.346   2.644  0.2571  0.0586 -0.2955
 8628TIP3    H247300   6.277   4.212   2.581  3.0111 -0.3405 -0.9642
 8629TIP3   OH247301   3.922   0.871  12.337  0.6250 -0.2104  0.2142
 8629TIP3    H147302   3.934   0.916  12.253 -0.4944 -0.6571 -0.2032
 8629TIP3    H247303   3.928   0.941  12.402  1.4896  0.1450 -0.2238
 8630TIP3   OH247304   2.445   1.056   4.105 -0.2870 -0.0019 -0.6259
 8630TIP3    H147305   2.429   1.014   4.189 -1.5524 -1.3232 -1.4763
 8630TIP3    H247306   2.449   1.150   4.124  0.0747 -0.3199  0.9716
 8631TIP3   OH247307   5.273   3.111  11.750 -0.0287 -0.4897  0.7083
 8631TIP3    H147308   5.316   3.090  11.667 -0.3908  0.3917  0.2866
 8631TIP3    H247309   5.336   3.085  11.817  1.9431  2.3535  0.1037
 8632TIP3   OH247310   2.515   6.155   5.281 -0.5471  0.4583 -0.2321
 8632TIP3    H147311   2.447   6.202   5.232  0.0115  1.9524  0.3692
 8632TIP3    H247312   2.581   6.221   5.301  0.2023 -0.5514  0.8109
 8633TIP3   OH247313   3.313   5.356   0.485  0.5814 -0.4016 -0.3576
 8633TIP3    H147314   3.260   5.305   0.547  0.6570 -1.7932 -1.3919
 8633TIP3    H247315   3.328   5.296   0.412  3.0471  0.1730 -0.3932
 8634TIP3   OH247316   4.856   2.385  12.180 -0.1280 -0.2700  0.2784
 8634TIP3    H147317   4.890   2.409  12.093  0.7673  3.0395  1.3866
 8634TIP3    H247318   4.922   2.325  12.215  2.3186  2.3130  0.5092
 8635TIP3   OH247319   5.206   6.395  16.572 -0.4221  0.0695  0.2477
 8635TIP3    H147320   5.194   6.355  16.659  1.1577  0.5407  0.7240
 8635TIP3    H247321   5.120   6.391  16.532 -0.8673 -1.5395  1.2507
 8636TIP3   OH247322   3.541   1.907  14.091 -0.3490 -0.3107 -0.0829
 8636TIP3    H147323   3.526   2.000  14.073 -1.9890 -0.4815  0.2262
 8636TIP3    H247324   3.520   1.896  14.183 -1.4657 -1.2055 -0.4154
 8637TIP3   OH247325   0.424   2.483   0.074 -0.3133  0.4205 -0.2977
 8637TIP3    H147326   0.456   2.421   0.009 -0.2683 -0.8200  0.8673
 8637TIP3    H247327   0.449   2.445   0.158 -0.3175  2.0112  0.4578
 8638TIP3   OH247328   0.651   1.844  12.753  0.0643 -0.3674  0.2829
 8638TIP3    H147329   0.714   1.886  12.812 -0.5743 -1.1267  1.5673
 8638TIP3    H247330   0.705   1.792  12.693  0.7277  0.3256  0.2627
 8639TIP3   OH247331   3.143   1.118   3.164  0.0169 -0.2515  0.3342
 8639TIP3    H147332   3.194   1.040   3.143  0.2287 -0.9179  3.0015
 8639TIP3    H247333   3.053   1.089   3.167 -0.1358  0.0831 -0.6192
 8640TIP3   OH247334   2.740   2.271  14.250 -0.1667 -0.4000 -0.1888
 8640TIP3    H147335   2.663   2.215  14.258 -1.6806  1.5205 -0.5831
 8640TIP3    H247336   2.751   2.307  14.338  0.8613 -1.3259  0.0868
 8641TIP3   OH247337   5.891   3.473  14.403  0.5003 -0.7744 -0.1090
 8641TIP3    H147338   5.826   3.521  14.455  0.4791 -0.4276 -0.4478
 8641TIP3    H247339   5.841   3.401  14.365  0.5269 -1.0579  0.3839
 8642TIP3   OH247340   3.530   3.929  12.894  0.3400  0.2351  0.0566
 8642TIP3    H147341   3.583   3.880  12.831  1.7648  2.2108 -0.3970
 8642TIP3    H247342   3.542   4.021  12.868 -0.9286  0.9445  1.8056
 8643TIP3   OH247343   5.451   6.727   5.059  0.1083 -0.5013  0.5074
 8643TIP3    H147344   5.436   6.815   5.093  1.9655 -0.0552  0.2543
 8643TIP3    H247345   5.416   6.729   4.970  2.0709  0.6981 -0.2959
 8644TIP3   OH247346   0.953   6.147   0.923 -0.1656 -0.0381 -0.2694
 8644TIP3    H147347   0.980   6.199   0.847 -0.1232 -0.8383 -0.8160
 8644TIP3    H247348   0.874   6.191   0.955 -0.9565 -0.4383 -1.5876
 8645TIP3   OH247349   1.244   4.776  14.906 -0.1659 -0.1786  0.2479
 8645TIP3    H147350   1.281   4.790  14.819  0.1664 -1.1473  0.2273
 8645TIP3    H247351   1.319   4.782  14.965 -0.3742  0.3731  0.4672
 8646TIP3   OH247352   2.748   5.875   3.915 -0.3210 -0.2394 -0.0266
 8646TIP3    H147353   2.733   5.809   3.984 -0.7081 -1.2677 -1.0536
 8646TIP3    H247354   2.663   5.883   3.872  0.2126 -0.5596 -1.1802
 8647TIP3   OH247355   6.479   1.706   0.694  0.1621  0.8634  0.1881
 8647TIP3    H147356   6.432   1.786   0.671 -1.5620 -0.5197 -1.4709
 8647TIP3    H247357   6.478   1.654   0.613  0.1125 -1.3523  1.5347
 8648TIP3   OH247358   5.949   4.121   6.258  0.5031  0.2495  0.1795
 8648TIP3    H147359   6.036   4.083   6.276  0.0403 -1.2363 -0.5867
 8648TIP3    H247360   5.889   4.046   6.262 -0.9248  1.4002  1.7095
 8649TIP3   OH247361   4.338   3.601  13.385 -0.5281  0.2152  0.2697
 8649TIP3    H147362   4.349   3.596  13.479 -0.7595 -0.3955  0.2681
 8649TIP3    H247363   4.426   3.598  13.349 -0.5036 -1.0191  0.4071
 8650TIP3   OH247364   3.546   0.636   4.698  0.0601 -0.2607 -0.9020
 8650TIP3    H147365   3.459   0.665   4.726  0.0820  0.1770 -1.2807
 8650TIP3    H247366   3.588   0.607   4.779 -0.4548 -0.5294 -0.7232
 8651TIP3   OH247367   4.231   2.664  12.730  0.3606  0.0549 -0.1329
 8651TIP3    H147368   4.194   2.668  12.818  0.1052 -2.1504 -0.0699
 8651TIP3    H247369   4.181   2.728  12.679 -0.7225  0.0797  0.9289
 8652TIP3   OH247370   0.728   3.268   6.026  0.0003 -0.8101 -0.5380
 8652TIP3    H147371   0.690   3.310   5.949  1.0184  0.6541 -0.2845
 8652TIP3    H247372   0.657   3.216   6.063 -1.3685  0.7526 -0.8481
 8653TIP3   OH247373   4.966   2.625  14.171 -0.1769 -0.3980  0.4135
 8653TIP3    H147374   5.009   2.686  14.230 -0.5654 -1.4983  1.8947
 8653TIP3    H247375   5.007   2.540  14.190 -1.6121 -1.1103  0.4653
 8654TIP3   OH247376   5.140   4.956  11.879  0.2351  0.1139  0.5000
 8654TIP3    H147377   5.071   4.938  11.943 -1.7334  1.9153 -0.9634
 8654TIP3    H247378   5.179   4.871  11.861  0.1407 -0.5915  3.2454
 8655TIP3   OH247379   5.659   3.047  12.569 -0.3834  0.4466  0.8282
 8655TIP3    H147380   5.713   3.112  12.525  0.9107 -1.3405 -0.3469
 8655TIP3    H247381   5.601   3.013  12.501 -0.4338 -0.2704  1.2213
 8656TIP3   OH247382   1.255   2.881  13.971  0.2356 -0.4163 -0.2230
 8656TIP3    H147383   1.234   2.920  13.886  0.4101  3.6847  1.3800
 8656TIP3    H247384   1.350   2.878  13.974  0.2316 -0.5062 -0.1771
 8657TIP3   OH247385   2.615   5.065   5.417  0.6591 -0.0176  0.5284
 8657TIP3    H147386   2.572   5.138   5.461 -0.2808  0.8710 -1.6943
 8657TIP3    H247387   2.708   5.079   5.432  0.8155  3.5810 -2.3825
 8658TIP3   OH247388   0.415   4.396  14.711  0.2679  0.7054  0.1472
 8658TIP3    H147389   0.354   4.324  14.694 -0.6707  1.6934 -0.8866
 8658TIP3    H247390   0.498   4.353  14.731 -0.3990 -0.6638  0.0952
 8659TIP3   OH247391   2.506   5.247   1.897  0.0236 -0.0527 -0.0771
 8659TIP3    H147392   2.515   5.271   1.989 -2.1893  1.6610 -0.2012
 8659TIP3    H247393   2.474   5.327   1.855 -3.3520 -1.9130 -1.4627
 8660TIP3   OH247394   0.419   3.736  17.270  0.3863 -0.2539  0.0584
 8660TIP3    H147395   0.384   3.705  17.353  0.2736  0.3806  0.2534
 8660TIP3    H247396   0.481   3.668  17.243 -0.2235 -0.8879  0.2146
 8661TIP3   OH247397   3.286   3.011  12.768  0.6185  0.1934  0.5449
 8661TIP3    H147398   3.287   3.000  12.863  2.0660 -1.7557  0.3706
 8661TIP3    H247399   3.377   3.032  12.746 -0.2739  3.8911 -0.1710
 8662TIP3   OH247400   0.818   6.554   2.839  0.0131 -0.1455  0.1666
 8662TIP3    H147401   0.837   6.466   2.871  1.0928  0.4735  1.3183
 8662TIP3    H247402   0.771   6.540   2.757 -0.7858 -1.7867  0.8687
 8663TIP3   OH247403   3.603   0.634  13.651  0.1750 -0.0409 -0.1593
 8663TIP3    H147404   3.612   0.655  13.744 -0.4985  0.9829 -0.3210
 8663TIP3    H247405   3.674   0.682  13.608 -0.0993  0.2483 -0.2886
 8664TIP3   OH247406   1.642   5.382  14.937  0.4250 -0.5821 -0.4412
 8664TIP3    H147407   1.600   5.303  14.971  0.1711 -0.0999  0.4024
 8664TIP3    H247408   1.733   5.356  14.923  0.4532 -0.8954  0.2916
 8665TIP3   OH247409   0.882   6.528  12.694 -0.5576  0.1061 -0.3535
 8665TIP3    H147410   0.942   6.547  12.622  0.2075  0.9436  0.4849
 8665TIP3    H247411   0.835   6.449  12.666  0.1958  0.0323 -1.4653
 8666TIP3   OH247412   4.627   2.315  10.976 -0.2839 -0.2590  0.1334
 8666TIP3    H147413   4.610   2.308  10.882  2.1923  1.0423 -0.4703
 8666TIP3    H247414   4.628   2.224  11.006 -1.0382 -0.6966 -1.0775
 8667TIP3   OH247415   5.461   1.988   5.782  0.4959 -0.2334  0.1931
 8667TIP3    H147416   5.389   2.028   5.831 -0.4774 -2.7142  0.9662
 8667TIP3    H247417   5.537   1.997   5.839 -0.0380 -0.7072  1.0087
 8668TIP3   OH247418   4.601   0.882   3.653 -0.3474  0.6133  0.7570
 8668TIP3    H147419   4.581   0.792   3.628 -1.7874  1.4455 -1.3456
 8668TIP3    H247420   4.696   0.891   3.641 -0.2328 -0.5270  0.7629
 8669TIP3   OH247421   1.980   3.927   6.647 -0.3009 -0.2245  0.0683
 8669TIP3    H147422   2.059   3.955   6.694  0.2206 -1.8508  0.2406
 8669TIP3    H247423   1.975   3.985   6.571  1.4223 -0.4468 -0.2659
 8670TIP3   OH247424   6.677   2.755  14.434  0.0964  0.4469  0.2681
 8670TIP3    H147425   6.725   2.836  14.418 -2.1745  1.6859 -0.8503
 8670TIP3    H247426   6.713   2.693  14.370 -0.7019  1.7808 -1.5780
 8671TIP3   OH247427   2.961   5.532  16.363 -0.0287  0.3572 -0.1297
 8671TIP3    H147428   2.893   5.593  16.390 -0.7934 -0.6546  0.2895
 8671TIP3    H247429   2.918   5.473  16.301  0.5471 -0.1038 -0.1070
 8672TIP3   OH247430   5.056   3.497   1.202 -0.0985 -0.3510 -0.7053
 8672TIP3    H147431   5.055   3.412   1.159 -0.1257  0.1759 -1.7775
 8672TIP3    H247432   5.132   3.493   1.261 -0.5309 -1.3619 -0.1973
 8673TIP3   OH247433   0.131   3.713   4.367 -0.3090 -0.0020  0.5383
 8673TIP3    H147434   0.084   3.633   4.392  0.3229 -0.3629  0.5916
 8673TIP3    H247435   0.108   3.776   4.436  0.5416 -0.6616  1.4584
 8674TIP3   OH247436   6.655   2.160   5.803 -0.2338  0.1055 -0.2531
 8674TIP3    H147437   6.740   2.145   5.845 -0.3787  0.6634  0.2516
 8674TIP3    H247438   6.623   2.241   5.842 -0.9532 -0.0456 -0.5145
 8675TIP3   OH247439   6.248   3.241  16.433  0.2482 -0.2236 -0.0382
 8675TIP3    H147440   6.297   3.199  16.504  1.8614  0.7143 -0.5478
 8675TIP3    H247441   6.306   3.235  16.357  0.1370  2.0633 -0.3609
 8676TIP3   OH247442   3.067   4.926  13.235  0.1736 -0.1558 -0.2479
 8676TIP3    H147443   3.068   4.866  13.160 -0.6307  1.4371 -1.6137
 8676TIP3    H247444   3.157   4.957  13.242  0.4310 -0.9276 -0.0055
 8677TIP3   OH247445   3.208   2.202   1.567  0.8356  0.0634  0.0552
 8677TIP3    H147446   3.160   2.161   1.494  1.4575 -1.9346  0.6891
 8677TIP3    H247447   3.293   2.225   1.529  0.2096  1.5321 -0.5038
 8678TIP3   OH247448   4.158   5.816   4.297 -0.2041 -0.3561  0.0074
 8678TIP3    H147449   4.214   5.893   4.287 -0.1688 -0.4761 -0.7948
 8678TIP3    H247450   4.195   5.769   4.372 -0.2444  0.4166  0.5215
 8679TIP3   OH247451   5.517   1.084  15.937  0.0032 -0.0020  0.6656
 8679TIP3    H147452   5.520   1.040  15.852 -0.2798 -1.0438  1.1790
 8679TIP3    H247453   5.435   1.132  15.937 -0.5633 -0.9515  0.7955
 8680TIP3   OH247454   0.337   2.875  17.405 -0.4767  0.3252 -0.1035
 8680TIP3    H147455   0.269   2.923  17.358 -0.7199  0.5523  0.4615
 8680TIP3    H247456   0.316   2.889  17.498 -0.9779 -1.4559  0.0967
 8681TIP3   OH247457   3.155   2.274  13.001  0.2295 -0.5185  0.1683
 8681TIP3    H147458   3.166   2.346  12.939  1.4478 -1.3582 -0.6295
 8681TIP3    H247459   3.063   2.279  13.027 -0.2630  0.0200 -1.5264
 8682TIP3   OH247460   2.488   0.210   2.983  1.3253  0.0521  0.0453
 8682TIP3    H147461   2.412   0.153   2.985  1.5480 -0.2444  0.0425
 8682TIP3    H247462   2.523   0.200   2.895  1.3830  0.1710  0.0542
 8683TIP3   OH247463   6.581   5.755   0.988  0.2922 -0.0891  0.3206
 8683TIP3    H147464   6.657   5.750   1.045  1.3850 -0.8457 -1.1627
 8683TIP3    H247465   6.616   5.757   0.899 -1.4159 -2.9589 -0.5595
 8684TIP3   OH247466   3.660   2.032   1.138  0.0218  0.5333  0.2945
 8684TIP3    H147467   3.698   2.075   1.061 -2.2328 -1.0327 -1.8431
 8684TIP3    H247468   3.627   1.948   1.105 -1.3679 -0.0516  2.8946
 8685TIP3   OH247469   4.457   3.351   0.708  0.0313 -0.1726 -0.0421
 8685TIP3    H147470   4.490   3.262   0.705 -0.4983 -0.5072  2.1068
 8685TIP3    H247471   4.429   3.363   0.799 -1.5969  1.5706 -0.7033
 8686TIP3   OH247472   2.272   6.074   1.813  0.1122  0.0365 -0.1984
 8686TIP3    H147473   2.299   6.070   1.904  0.6453  0.0159 -0.3542
 8686TIP3    H247474   2.323   6.006   1.769 -1.4676 -1.2008 -0.1893
 8687TIP3   OH247475   0.921   6.686   0.820  1.0014  0.1486 -0.0410
 8687TIP3    H147476   0.867   6.734   0.883  0.4802  1.5062 -1.4370
 8687TIP3    H247477   1.006   6.677   0.863  0.2736 -0.2406  1.3954
 8688TIP3   OH247478   2.600   3.921  15.846 -0.2510  0.6232  0.4020
 8688TIP3    H147479   2.605   3.835  15.804 -0.6767  0.2377  1.1289
 8688TIP3    H247480   2.617   3.983  15.775 -1.0163 -0.0066 -0.3538
 8689TIP3   OH247481   2.006   0.528   1.650 -0.1712  0.0579 -0.9811
 8689TIP3    H147482   1.971   0.609   1.612 -0.0505  0.3325 -0.5142
 8689TIP3    H247483   1.947   0.507   1.722 -0.0216 -0.0988 -0.9016
 8690TIP3   OH247484   3.372   2.893   5.455 -0.0032 -0.3532  0.0238
 8690TIP3    H147485   3.354   2.956   5.386 -2.3970  0.4425  1.2662
 8690TIP3    H247486   3.301   2.829   5.450 -0.0649 -0.4511  1.5103
 8691TIP3   OH247487   5.249   0.681  10.811  0.2749 -0.0080 -0.4100
 8691TIP3    H147488   5.154   0.683  10.800  0.0721 -0.5161  1.0837
 8691TIP3    H247489   5.281   0.636  10.733 -0.7623 -0.4204 -0.6107
 8692TIP3   OH247490   4.466   3.637   0.989 -0.2418 -0.2739  0.1567
 8692TIP3    H147491   4.462   3.634   0.893  0.1058 -0.4585  0.1472
 8692TIP3    H247492   4.548   3.593   1.011 -0.3986 -0.3740  0.5486
 8693TIP3   OH247493   1.102   4.577  13.819 -0.0525  0.3729 -0.2201
 8693TIP3    H147494   1.036   4.627  13.865 -0.1883 -0.2598  0.2827
 8693TIP3    H247495   1.056   4.537  13.745 -0.4324 -0.6921  0.5605
 8694TIP3   OH247496   2.260   3.505   0.082 -0.2782 -0.0571  0.6323
 8694TIP3    H147497   2.269   3.481   0.174  1.4458 -0.2949  0.4331
 8694TIP3    H247498   2.347   3.491   0.045 -1.5517 -2.7155 -1.6953
 8695TIP3   OH247499   2.901   6.226   6.518  0.0725  0.2545  0.1451
 8695TIP3    H147500   2.847   6.299   6.548 -0.6464 -0.4383  0.5444
 8695TIP3    H247501   2.984   6.238   6.565 -0.0740  0.7666  0.2805
 8696TIP3   OH247502   4.929   1.809  14.430 -0.2268  0.3895  0.2298
 8696TIP3    H147503   5.004   1.827  14.487  0.1428 -0.5123  0.0371
 8696TIP3    H247504   4.854   1.840  14.480  0.0565 -0.7180  1.3875
 8697TIP3   OH247505   5.263   2.266   6.283  0.2936 -0.1758 -0.1788
 8697TIP3    H147506   5.333   2.293   6.342  1.4016 -1.3570 -0.9206
 8697TIP3    H247507   5.249   2.343   6.227  0.6248  0.2495  0.3075
 8698TIP3   OH247508   6.290   2.038  15.701  0.4522  0.2327  0.9713
 8698TIP3    H147509   6.379   2.035  15.736  0.5755  1.2411  0.7625
 8698TIP3    H247510   6.234   2.051  15.777  0.7353  2.6217  0.8431
 8699TIP3   OH247511   5.970   1.528  15.270 -0.3010 -0.0003 -0.1899
 8699TIP3    H147512   5.924   1.612  15.262 -1.4896 -0.5933  0.1823
 8699TIP3    H247513   5.933   1.488  15.348  2.8859  0.7097  1.8958
 8700TIP3   OH247514   6.708   6.266   0.738  0.3115  0.7484 -0.1807
 8700TIP3    H147515   6.730   6.257   0.645 -0.5374  1.3091 -0.4463
 8700TIP3    H247516   6.704   6.176   0.770  2.1867  0.5864 -0.2917
 8701TIP3   OH247517   5.779   0.059  12.182  0.2689 -0.3780 -0.0126
 8701TIP3    H147518   5.820   0.086  12.264  2.2507 -0.4969 -0.9090
 8701TIP3    H247519   5.705   0.119  12.171  1.3547  1.1442  0.7062
 8702TIP3   OH247520   6.080   0.806   0.244 -0.4106  0.6113  0.1474
 8702TIP3    H147521   5.991   0.804   0.279 -0.8528 -0.3978 -0.9725
 8702TIP3    H247522   6.095   0.718   0.209  0.5732  1.1178 -0.7901
 8703TIP3   OH247523   1.773   3.392   6.401 -0.1568 -0.0868 -0.3691
 8703TIP3    H147524   1.689   3.346   6.396 -1.0432  1.5716 -1.5595
 8703TIP3    H247525   1.823   3.343   6.466 -1.3800 -2.1577 -0.9135
 8704TIP3   OH247526   1.063   6.153  10.696  0.2264  0.0177 -0.0337
 8704TIP3    H147527   1.129   6.106  10.646  1.2712 -0.1229  1.4053
 8704TIP3    H247528   0.983   6.101  10.687  0.6293 -0.4929 -0.7523
 8705TIP3   OH247529   1.142   1.317  13.574 -0.6596  0.2666  0.3041
 8705TIP3    H147530   1.072   1.318  13.508  1.6033  1.2627 -2.2950
 8705TIP3    H247531   1.153   1.225  13.596 -0.9259 -0.2141 -1.4124
 8706TIP3   OH247532   3.708   0.498  11.068  0.3202 -0.1360 -0.1243
 8706TIP3    H147533   3.653   0.501  11.147 -1.8929  1.7400 -1.5702
 8706TIP3    H247534   3.645   0.485  10.996  2.0538 -0.0882 -1.7117
 8707TIP3   OH247535   4.833   4.618  11.458 -0.3841 -0.1626 -0.0129
 8707TIP3    H147536   4.835   4.664  11.374 -2.6815  0.4108  0.1745
 8707TIP3    H247537   4.765   4.662  11.508 -0.9298 -2.1617  1.1367
 8708TIP3   OH247538   5.878   6.620  12.011  0.5236  0.8588 -0.0622
 8708TIP3    H147539   5.945   6.585  12.070 -0.1320 -0.7994 -0.2438
 8708TIP3    H247540   5.818   6.668  12.068  0.1048 -0.4027  0.5847
 8709TIP3   OH247541   0.685   3.057  15.527  0.2480 -0.4402 -0.4872
 8709TIP3    H147542   0.652   3.092  15.445  0.3828  1.1645  0.1055
 8709TIP3    H247543   0.689   2.962  15.513 -3.9032 -0.7803 -0.8776
 8710TIP3   OH247544   5.325   4.590   0.687 -0.2178 -0.0199 -0.4928
 8710TIP3    H147545   5.350   4.673   0.728  0.1956  0.2727 -1.3120
 8710TIP3    H247546   5.236   4.605   0.656 -1.5521 -1.0882  2.4946
 8711TIP3   OH247547   0.852   2.964  14.578  0.3599 -0.1706 -0.1430
 8711TIP3    H147548   0.813   3.007  14.655 -1.1837  0.1737 -1.0781
 8711TIP3    H247549   0.817   2.875  14.580 -0.3640  0.0922 -0.9051
 8712TIP3   OH247550   3.975   1.157   5.399  0.1147 -0.0617 -0.4314
 8712TIP3    H147551   4.036   1.109   5.343 -0.1200 -0.8970  0.0022
 8712TIP3    H247552   3.998   1.130   5.488 -1.6889 -1.4602 -0.3113
 8713TIP3   OH247553   1.536   1.492   2.117  0.5131 -0.4087 -0.4439
 8713TIP3    H147554   1.496   1.467   2.201 -2.1546  0.1988 -1.4354
 8713TIP3    H247555   1.552   1.586   2.126 -2.6180  0.3596 -1.5308
 8714TIP3   OH247556   2.773   2.436   2.336  0.4231 -0.8204  0.6322
 8714TIP3    H147557   2.800   2.466   2.249  0.4320 -1.9426  0.2393
 8714TIP3    H247558   2.687   2.478   2.350  1.7979  1.9669  1.4798
 8715TIP3   OH247559   1.872   2.199   0.275  0.0994 -0.0091 -0.3332
 8715TIP3    H147560   1.900   2.206   0.366 -0.9323  2.1782 -0.1284
 8715TIP3    H247561   1.812   2.124   0.274 -0.5104  0.4325  0.9695
 8716TIP3   OH247562   0.613   1.871   5.582 -0.3982  0.4810  0.0568
 8716TIP3    H147563   0.567   1.916   5.653  0.0394  0.4403  0.3665
 8716TIP3    H247564   0.649   1.941   5.529 -0.8402  0.5137 -0.2017
 8717TIP3   OH247565   2.336   0.629  11.161 -0.1027 -0.0285 -0.2903
 8717TIP3    H147566   2.333   0.565  11.231  1.4195  0.8367  0.6274
 8717TIP3    H247567   2.371   0.709  11.202  1.1951  0.3947 -2.0660
 8718TIP3   OH247568   1.150   2.956  14.769  0.3107  0.1036 -0.1931
 8718TIP3    H147569   1.205   2.891  14.726  0.1873  0.0646 -0.2912
 8718TIP3    H247570   1.089   2.905  14.821  1.1447  0.1623  0.8896
 8719TIP3   OH247571   2.442   2.342   5.502 -0.3927 -0.4966  0.5785
 8719TIP3    H147572   2.491   2.424   5.510 -0.9323  0.0300 -1.1734
 8719TIP3    H247573   2.419   2.336   5.409  0.2074 -2.9858  0.5286
 8720TIP3   OH247574   1.630   0.591  13.132  0.1479  0.3738 -0.5704
 8720TIP3    H147575   1.551   0.584  13.185  0.9194  0.9555  0.7336
 8720TIP3    H247576   1.696   0.541  13.180  0.8605  0.8603 -1.0130
 8721TIP3   OH247577   3.948   4.260  16.307 -0.1138  0.2293  0.1306
 8721TIP3    H147578   3.860   4.295  16.292 -0.8783 -2.2272 -1.9562
 8721TIP3    H247579   3.953   4.246  16.401 -1.9442  0.4988  0.3028
 8722TIP3   OH247580   4.595   1.910  16.622  0.1567  0.3287  0.2839
 8722TIP3    H147581   4.675   1.958  16.646  0.1772 -0.8585  2.8528
 8722TIP3    H247582   4.545   1.972  16.569  1.4667  2.1279  1.0634
 8723TIP3   OH247583   5.706   1.403  16.400 -0.4616 -0.1421 -0.1636
 8723TIP3    H147584   5.682   1.457  16.474 -1.3896 -1.7839  0.8002
 8723TIP3    H247585   5.800   1.391  16.408 -0.5300 -0.1707  0.6682
 8724TIP3   OH247586   4.776   2.133   4.405 -0.4572  0.0736 -0.8538
 8724TIP3    H147587   4.752   2.116   4.313 -2.4292  0.4448 -0.4633
 8724TIP3    H247588   4.707   2.089   4.455 -0.5836  1.6131  0.3852
 8725TIP3   OH247589   0.631   3.510   3.800 -0.1735  0.0609  0.7128
 8725TIP3    H147590   0.703   3.516   3.738 -0.3791  0.6220  0.5192
 8725TIP3    H247591   0.563   3.463   3.753 -0.8415  1.6562 -0.0143
 8726TIP3   OH247592   6.009   5.815   0.063  0.2675  0.2035  0.2657
 8726TIP3    H147593   6.061   5.891   0.090  1.2779 -0.1621 -0.6201
 8726TIP3    H247594   5.935   5.815   0.124  1.1539  0.8850  1.3883
 8727TIP3   OH247595   5.496   1.919  16.943 -0.0033 -0.2038  0.3900
 8727TIP3    H147596   5.401   1.913  16.955  0.2760 -1.9842  2.1277
 8727TIP3    H247597   5.507   1.937  16.849 -2.0177 -0.5819  0.0391
 8728TIP3   OH247598   6.674   1.136  16.252  0.0291 -0.0574 -0.2838
 8728TIP3    H147599   6.648   1.081  16.178  0.2061 -0.8247  0.2100
 8728TIP3    H247600   6.737   1.082  16.300 -0.9120 -0.0123  1.0461
 8729TIP3   OH247601   2.745   3.611   2.955 -0.2403 -0.2830  0.0381
 8729TIP3    H147602   2.735   3.689   2.900 -0.0507 -0.7848 -0.7216
 8729TIP3    H247603   2.718   3.640   3.043  0.0392  0.6918 -0.1833
 8730TIP3   OH247604   2.146   6.709  13.403  0.6611 -0.2231 -0.2463
 8730TIP3    H147605   2.109   6.627  13.372  0.8525 -1.2234  1.9353
 8730TIP3    H247606   2.236   6.709  13.371  0.9339 -1.3319  0.4765
 8731TIP3   OH247607   3.013   1.768   1.388 -0.2423  0.2743  0.1585
 8731TIP3    H147608   3.005   1.804   1.300  0.6592  0.7001  0.2397
 8731TIP3    H247609   3.100   1.796   1.418  1.0003 -2.7630 -0.1471
 8732TIP3   OH247610   3.949   2.637  13.305 -0.5772  0.3984 -0.6286
 8732TIP3    H147611   4.031   2.589  13.299 -1.6064 -1.4044 -1.0388
 8732TIP3    H247612   3.883   2.576  13.270 -2.0245  1.9336 -0.6835
 8733TIP3   OH247613   6.485   0.238   0.836  0.1441  0.0526 -0.8352
 8733TIP3    H147614   6.500   0.282   0.752 -0.4938 -0.3003 -1.1415
 8733TIP3    H247615   6.479   0.145   0.813  1.1420 -0.1732 -0.2416
 8734TIP3   OH247616   6.323   6.385   5.401 -0.9886  0.3291  0.5011
 8734TIP3    H147617   6.252   6.444   5.427 -0.1130  1.3306  0.6897
 8734TIP3    H247618   6.370   6.434   5.333  0.8922  0.6763  1.9839
 8735TIP3   OH247619   4.672   3.094   1.939 -0.2890  0.3144 -0.5955
 8735TIP3    H147620   4.598   3.042   1.970 -0.2572  1.4284  1.4998
 8735TIP3    H247621   4.749   3.038   1.953 -0.5392 -0.1466 -1.0485
 8736TIP3   OH247622   6.687   0.317   3.707 -0.2066  0.2413 -0.3233
 8736TIP3    H147623   6.760   0.344   3.762 -0.6891 -0.0482  0.4793
 8736TIP3    H247624   6.618   0.381   3.724  0.4041  1.5612 -2.4010
 8737TIP3   OH247625   5.852   0.364  15.908  0.0479  0.6341 -0.2558
 8737TIP3    H147626   5.757   0.361  15.896 -0.0034  0.0059  0.2633
 8737TIP3    H247627   5.888   0.346  15.822 -0.3086 -0.6021 -0.1591
 8738TIP3   OH247628   1.801   3.722  15.588 -0.6100  0.1568 -0.2092
 8738TIP3    H147629   1.879   3.705  15.641 -1.0818 -0.4291  0.3096
 8738TIP3    H247630   1.827   3.699  15.499  0.1355  0.9875 -0.2232
 8739TIP3   OH247631   6.631   4.158   3.487  0.0004  0.5278  0.0968
 8739TIP3    H147632   6.619   4.064   3.501 -0.3779  0.2963 -1.5109
 8739TIP3    H247633   6.592   4.174   3.400  0.1354  2.1531  0.3057
 8740TIP3   OH247634   0.774   4.886   5.607 -0.2540 -0.5438 -0.0295
 8740TIP3    H147635   0.806   4.926   5.687  2.4594 -0.1989 -1.1720
 8740TIP3    H247636   0.768   4.959   5.545 -2.4871 -0.7731 -0.1470
 8741TIP3   OH247637   2.715   1.554  15.879 -0.1211 -0.2422 -0.0052
 8741TIP3    H147638   2.721   1.464  15.848  1.4185  0.9336 -3.6235
 8741TIP3    H247639   2.660   1.598  15.814 -0.1242  1.6190  1.1982
 8742TIP3   OH247640   3.096   6.598  11.705  0.1769 -0.1366 -0.0190
 8742TIP3    H147641   3.182   6.621  11.669  0.9731 -0.5843  1.4886
 8742TIP3    H247642   3.104   6.618  11.799 -1.8268  1.0959 -0.0572
 8743TIP3   OH247643   0.689   0.215  16.136 -0.5104  0.5637 -0.1130
 8743TIP3    H147644   0.701   0.132  16.182  0.5639 -0.0933 -1.5137
 8743TIP3    H247645   0.665   0.277  16.205  2.0812 -0.1147  1.5593
 8744TIP3   OH247646   1.895   2.326  12.810 -0.9777 -0.4748  0.0095
 8744TIP3    H147647   1.938   2.378  12.878 -0.2845 -1.2439  0.1698
 8744TIP3    H247648   1.832   2.387  12.770 -0.4204  0.3864  0.4104
 8745TIP3   OH247649   4.641   3.126  16.743 -0.6748 -0.0470 -0.2695
 8745TIP3    H147650   4.560   3.076  16.754  0.1721 -1.4739 -0.2628
 8745TIP3    H247651   4.686   3.116  16.827  0.3487 -0.8562 -0.8963
 8746TIP3   OH247652   2.965   3.789   3.731  0.7758 -0.7785 -0.2917
 8746TIP3    H147653   2.996   3.706   3.693 -0.0362 -0.8210 -0.8998
 8746TIP3    H247654   2.882   3.766   3.772  1.0604 -0.4734  0.4712
 8747TIP3   OH247655   4.551   3.983  15.580  0.1165 -0.2100  0.1137
 8747TIP3    H147656   4.601   4.065  15.569 -0.1679 -0.0995 -0.3715
 8747TIP3    H247657   4.614   3.922  15.617  0.5441  0.0034 -0.2546
 8748TIP3   OH247658   5.636   6.261  16.402  0.1807 -0.1856 -0.2283
 8748TIP3    H147659   5.558   6.225  16.444 -2.7263  0.9193 -4.0951
 8748TIP3    H247660   5.651   6.345  16.446  0.2769 -1.1413  1.6293
 8749TIP3   OH247661   6.570   5.832  15.065  0.0178  0.2466  0.5656
 8749TIP3    H147662   6.558   5.780  14.985  0.3962  0.8993  0.0828
 8749TIP3    H247663   6.517   5.786  15.130 -2.0039  0.8279 -0.5447
 8750TIP3   OH247664   6.606   6.175   5.252  0.1237  0.5814 -0.4726
 8750TIP3    H147665   6.573   6.116   5.184  0.2363  1.2685 -1.1548
 8750TIP3    H247666   6.653   6.119   5.313 -0.3000 -0.1048 -0.7679
 8751TIP3   OH247667   2.814   6.685   2.065  0.0150  0.7448 -0.3697
 8751TIP3    H147668   2.839   6.728   1.984 -2.3119  0.4123 -1.3411
 8751TIP3    H247669   2.832   6.749   2.133 -0.5929  2.1208 -1.4586
 8752TIP3   OH247670   2.686   0.423   4.497 -0.6534  0.2799  0.0876
 8752TIP3    H147671   2.654   0.388   4.414  1.0605 -0.0290 -0.4919
 8752TIP3    H247672   2.726   0.348   4.541 -0.0481  0.7766  0.4095
 8753TIP3   OH247673   6.000   3.465   0.815  0.5202  0.3544  0.4788
 8753TIP3    H147674   6.006   3.560   0.823  0.4113  0.4513 -0.5466
 8753TIP3    H247675   5.918   3.442   0.859  0.5898  0.7153  0.8031
 8754TIP3   OH247676   4.773   2.672  17.098  0.1713 -0.3977 -0.0339
 8754TIP3    H147677   4.748   2.600  17.040  0.3401 -0.4997  0.0208
 8754TIP3    H247678   4.767   2.636  17.186 -0.7497 -0.0440  0.0548
 8755TIP3   OH247679   4.657   0.332   3.560  0.5199 -0.6730 -0.6203
 8755TIP3    H147680   4.742   0.335   3.603 -0.2463 -0.7562  0.9501
 8755TIP3    H247681   4.613   0.256   3.597 -0.0673 -0.9328 -1.7869
 8756TIP3   OH247682   0.321   2.155  16.807  0.6699  0.1601 -0.1161
 8756TIP3    H147683   0.319   2.199  16.722 -1.1464  1.4629  0.5455
 8756TIP3    H247684   0.366   2.216  16.865 -1.7741  1.2062  0.7848
 8757TIP3   OH247685   3.770   2.937  11.276 -0.0251 -0.0123 -0.2252
 8757TIP3    H147686   3.782   2.863  11.217  0.2364  1.3332 -1.9189
 8757TIP3    H247687   3.709   2.995  11.230 -0.0565  0.9385  0.9737
 8758TIP3   OH247688   2.838   3.104  15.628 -0.2868  0.0778 -0.1164
 8758TIP3    H147689   2.806   3.101  15.718 -1.7945 -0.8021 -0.6591
 8758TIP3    H247690   2.933   3.115  15.638 -0.4500  0.3428  1.5623
 8759TIP3   OH247691   4.889   6.059   1.044 -0.4416 -0.3454  0.9993
 8759TIP3    H147692   4.907   5.992   1.110 -0.0174 -0.5011  0.7342
 8759TIP3    H247693   4.800   6.088   1.062 -0.6148 -0.9545  1.1477
 8760TIP3   OH247694   5.678   0.394   0.847 -0.2119 -0.5490 -0.4401
 8760TIP3    H147695   5.737   0.465   0.871 -0.7042 -0.0618 -0.6470
 8760TIP3    H247696   5.722   0.349   0.775  0.1058 -0.4586 -0.3026
 8761TIP3   OH247697   5.462   1.747  14.401  0.5179 -0.2082 -0.3022
 8761TIP3    H147698   5.392   1.685  14.421  0.3804 -0.1901 -0.7111
 8761TIP3    H247699   5.540   1.692  14.389  0.5772 -0.2287  0.1439
 8762TIP3   OH247700   0.345   6.013  13.245  0.5040  0.2718  0.0943
 8762TIP3    H147701   0.327   6.063  13.166  2.1281  0.6607 -0.0567
 8762TIP3    H247702   0.336   5.922  13.218  0.1506  0.4190 -0.2973
 8763TIP3   OH247703   4.966   6.371   1.065  0.0486 -0.1299  0.0478
 8763TIP3    H147704   4.931   6.286   1.091  1.9086 -0.7606  0.6200
 8763TIP3    H247705   4.889   6.428   1.060 -1.0453 -1.4383  1.2615
 8764TIP3   OH247706   0.418   1.902  11.261  0.5890  0.1327 -0.1573
 8764TIP3    H147707   0.389   1.884  11.171 -0.6511  1.4989 -0.0778
 8764TIP3    H247708   0.459   1.821  11.290 -0.5757 -0.9394 -1.3538
 8765TIP3   OH247709   5.145   3.684   4.051  0.2950 -0.2819 -0.8257
 8765TIP3    H147710   5.073   3.621   4.062  0.4063 -0.5379 -1.4639
 8765TIP3    H247711   5.149   3.698   3.956  0.5673  0.3495 -0.7240
 8766TIP3   OH247712   1.234   1.754   4.367 -0.3477  0.3378 -0.7094
 8766TIP3    H147713   1.295   1.764   4.440 -1.7782 -0.3697  0.6447
 8766TIP3    H247714   1.204   1.843   4.348 -0.0273  0.5194 -0.3758
 8767TIP3   OH247715   5.315   3.465  15.003  1.2481  0.0549 -0.1257
 8767TIP3    H147716   5.350   3.551  15.027 -0.1339  0.6026 -0.0137
 8767TIP3    H247717   5.346   3.452  14.913  1.1302  0.8577 -0.2932
 8768TIP3   OH247718   4.045   5.175   2.644  0.8068 -0.1560 -0.1529
 8768TIP3    H147719   3.985   5.210   2.579  1.0287 -3.1344 -2.1954
 8768TIP3    H247720   3.990   5.125   2.704  0.9014  0.1368  0.1815
 8769TIP3   OH247721   4.282   3.216  13.067  1.2448  0.3930 -0.1600
 8769TIP3    H147722   4.210   3.252  13.014  0.6284 -0.8695 -0.1995
 8769TIP3    H247723   4.340   3.175  13.003  0.6657 -0.8520  0.1017
 8770TIP3   OH247724   3.621   5.291   3.698 -0.1391 -0.2841  0.5672
 8770TIP3    H147725   3.655   5.330   3.779  0.3955 -2.0390  1.2427
 8770TIP3    H247726   3.672   5.211   3.687 -1.8223 -1.2975 -0.2160
 8771TIP3   OH247727   1.318   4.029  14.743  0.7628 -0.1321 -0.6372
 8771TIP3    H147728   1.314   4.114  14.787  0.3876 -1.1713  1.4527
 8771TIP3    H247729   1.304   4.050  14.650 -0.2349  1.9825 -0.0852
 8772TIP3   OH247730   1.294   0.595  14.573 -0.5370  0.6119  0.5871
 8772TIP3    H147731   1.223   0.534  14.595  0.5876 -1.7691 -1.7420
 8772TIP3    H247732   1.271   0.629  14.487  0.3031  1.2074  0.5811
 8773TIP3   OH247733   1.352   4.776  16.856  1.2456 -0.4615  0.1788
 8773TIP3    H147734   1.300   4.698  16.835  0.6160 -0.2892  1.0671
 8773TIP3    H247735   1.425   4.742  16.909  1.3512 -0.5333 -0.0096
 8774TIP3   OH247736   1.193   0.667  16.507  0.2687 -0.2584 -0.6440
 8774TIP3    H147737   1.159   0.669  16.596  1.2574  0.2375 -0.2522
 8774TIP3    H247738   1.116   0.668  16.451 -0.3612  1.0498  0.2002
 8775TIP3   OH247739   6.610   4.553  12.900  0.0108 -0.1635  0.2012
 8775TIP3    H147740   6.571   4.639  12.883  1.4238  0.5277  0.2673
 8775TIP3    H247741   6.558   4.492  12.847  0.4889  1.0779 -1.8157
 8776TIP3   OH247742   2.695   1.911   5.026 -0.0610  0.2649 -0.0827
 8776TIP3    H147743   2.773   1.856   5.037  0.6066  1.4687  1.6795
 8776TIP3    H247744   2.728   1.994   4.994 -0.7772  0.3861 -0.5271
 8777TIP3   OH247745   2.088   0.747  11.578 -0.6801 -0.4668  0.1488
 8777TIP3    H147746   2.169   0.707  11.610 -0.0388  0.4603 -0.2456
 8777TIP3    H247747   2.075   0.710  11.492  0.1394  0.4268 -0.3884
 8778TIP3   OH247748   1.000   6.647   1.509 -0.2500  0.4300 -0.3431
 8778TIP3    H147749   1.068   6.602   1.558 -0.4334  0.0413 -0.4404
 8778TIP3    H247750   0.940   6.577   1.481 -1.2483  0.8771  0.6197
 8779TIP3   OH247751   3.813   1.718   3.280  0.3655 -0.2647 -0.0906
 8779TIP3    H147752   3.800   1.664   3.358  0.4274  0.6139  0.5496
 8779TIP3    H247753   3.845   1.657   3.213 -1.5995 -1.4131 -0.0393
 8780TIP3   OH247754   6.431   1.383  14.750 -0.1698 -0.0715  0.1362
 8780TIP3    H147755   6.357   1.428  14.708  1.8349  2.4798 -0.9653
 8780TIP3    H247756   6.476   1.452  14.799  1.6810 -1.4229  0.4519
 8781TIP3   OH247757   3.754   6.322  15.207 -0.7353 -0.4947 -0.3141
 8781TIP3    H147758   3.755   6.230  15.181  0.3310 -0.0585 -1.9635
 8781TIP3    H247759   3.671   6.356  15.173 -0.5275 -0.5523 -0.8971
 8782TIP3   OH247760   1.180   4.224  11.476 -0.2949 -0.1628 -0.1577
 8782TIP3    H147761   1.152   4.166  11.405 -1.9054  0.5095 -0.1220
 8782TIP3    H247762   1.217   4.300  11.433 -1.0770  0.1509 -0.2903
 8783TIP3   OH247763   2.576   3.708   1.229 -0.1918 -0.4669  0.1089
 8783TIP3    H147764   2.494   3.732   1.187 -0.2751  0.9041  1.0089
 8783TIP3    H247765   2.635   3.781   1.211  0.1527 -0.4318  1.2863
 8784TIP3   OH247766   2.492   6.034  16.572  0.2108 -0.4478  0.1780
 8784TIP3    H147767   2.461   6.111  16.524  1.9213  1.1138  1.4581
 8784TIP3    H247768   2.565   6.001  16.521 -1.7904 -2.6623 -1.5291
 8785TIP3   OH247769   4.702   0.995  14.881 -0.1755  0.0602 -0.1088
 8785TIP3    H147770   4.670   1.077  14.918 -1.1242 -0.0368 -0.6725
 8785TIP3    H247771   4.665   0.993  14.793  1.8998  0.2081 -1.0351
 8786TIP3   OH247772   2.752   6.360  11.901  0.1536  0.7491  0.5457
 8786TIP3    H147773   2.745   6.306  11.980 -1.1983  1.5442  1.0021
 8786TIP3    H247774   2.814   6.313  11.845  1.3801  0.3350  2.1939
 8787TIP3   OH247775   5.069   1.899   4.485 -0.9117  0.2970 -0.6759
 8787TIP3    H147776   5.054   1.873   4.394 -1.6699  0.7074 -0.6827
 8787TIP3    H247777   4.992   1.868   4.532 -0.7697  0.5451 -0.2735
 8788TIP3   OH247778   3.753   5.148   2.782  0.1401  0.2016 -0.0593
 8788TIP3    H147779   3.710   5.110   2.705  1.3735 -1.1222 -0.1325
 8788TIP3    H247780   3.684   5.154   2.848 -0.3624 -1.0195 -0.4576
 8789TIP3   OH247781   3.796   3.004   3.389 -0.2352 -0.4514  0.0949
 8789TIP3    H147782   3.712   2.963   3.367  0.2346 -1.3168 -0.1283
 8789TIP3    H247783   3.773   3.077   3.447 -1.1484 -0.5916 -0.0810
 8790TIP3   OH247784   6.489   6.642   5.754  0.7446  0.2884  0.2235
 8790TIP3    H147785   6.570   6.689   5.773  1.1717 -0.2578 -0.2088
 8790TIP3    H247786   6.481   6.580   5.827 -0.0852  1.3395  1.0660
 8791TIP3   OH247787   6.529   1.642  12.017 -0.2644  0.4537  0.0530
 8791TIP3    H147788   6.494   1.623  12.104  1.1150 -1.6932  0.2144
 8791TIP3    H247789   6.504   1.567  11.964 -0.1812  1.2494 -1.1485
 8792TIP3   OH247790   6.596   6.492   0.640  0.7959 -0.5729  0.0708
 8792TIP3    H147791   6.677   6.524   0.601  0.5203 -1.1986 -1.0497
 8792TIP3    H247792   6.625   6.424   0.702  1.2454  0.5749  1.1638
 8793TIP3   OH247793   3.782   1.411  13.851  0.5915 -0.5996 -0.4227
 8793TIP3    H147794   3.772   1.356  13.929  2.6383 -0.7064 -0.1600
 8793TIP3    H247795   3.755   1.354  13.778 -4.0472  0.3621  0.2392
 8794TIP3   OH247796   6.431   2.426   0.712 -0.0557  0.1626 -0.2421
 8794TIP3    H147797   6.400   2.374   0.786  1.2843  0.1572  0.3501
 8794TIP3    H247798   6.390   2.512   0.724 -2.6826 -0.8018 -1.4996
 8795TIP3   OH247799   4.695   5.368  10.747 -0.4017 -0.6607  0.0741
 8795TIP3    H147800   4.721   5.413  10.827 -0.3715  0.7404 -0.6820
 8795TIP3    H247801   4.719   5.277  10.762  1.4196 -0.1051  0.9102
 8796TIP3   OH247802   5.426   5.033   0.612 -0.4029  0.1397 -0.2072
 8796TIP3    H147803   5.491   5.034   0.541 -0.4985 -1.5416 -0.3760
 8796TIP3    H247804   5.359   4.972   0.582 -1.2774  0.6666  0.6378
 8797TIP3   OH247805   3.560   2.514  14.674  0.0962 -0.4481  0.4624
 8797TIP3    H147806   3.524   2.526  14.587  2.4876  0.6670 -0.4403
 8797TIP3    H247807   3.573   2.603  14.708 -0.7170 -0.8547  1.9603
 8798TIP3   OH247808   3.518   4.726  12.986 -0.3118 -0.7693 -0.3587
 8798TIP3    H147809   3.511   4.801  12.927  0.7004 -0.6991 -0.4058
 8798TIP3    H247810   3.588   4.750  13.047 -0.2752 -1.4944 -0.1092
 8799TIP3   OH247811   4.542   6.625   1.227 -0.3246  0.3446  0.4913
 8799TIP3    H147812   4.512   6.683   1.296 -0.4070  0.8520  0.0347
 8799TIP3    H247813   4.474   6.629   1.160  1.3239  2.6514 -1.2379
 8800TIP3   OH247814   2.757   1.116   4.603  0.0699  0.0242 -0.0768
 8800TIP3    H147815   2.680   1.103   4.660 -0.7861  0.6709 -1.0454
 8800TIP3    H247816   2.736   1.067   4.524  0.3169  0.8284 -0.6484
 8801TIP3   OH247817   0.021   2.213  16.296 -0.2283 -0.3127  0.1299
 8801TIP3    H147818  -0.004   2.295  16.253  1.5634 -0.7765 -1.9759
 8801TIP3    H247819  -0.052   2.153  16.278 -0.5515  0.1839 -0.2570
 8802TIP3   OH247820   0.355   5.465   1.749 -0.3238  0.0801  0.0495
 8802TIP3    H147821   0.433   5.435   1.702 -0.6163 -0.5759 -0.0340
 8802TIP3    H247822   0.365   5.560   1.754 -0.1348  0.1412 -1.0831
 8803TIP3   OH247823   0.624   3.771   5.453  0.0433 -0.2535 -0.0919
 8803TIP3    H147824   0.642   3.865   5.448  3.0875 -0.5208  2.4585
 8803TIP3    H247825   0.531   3.765   5.477 -0.4358  2.0238 -1.1373
 8804TIP3   OH247826   1.775   0.408   4.780 -0.0113  0.2814 -0.0720
 8804TIP3    H147827   1.726   0.445   4.854  1.3441 -0.6896  1.3639
 8804TIP3    H247828   1.867   0.415   4.806  0.6032  1.1425 -2.2787
 8805TIP3   OH247829   5.333   2.618  17.456  0.0666  0.3273 -0.2925
 8805TIP3    H147830   5.256   2.606  17.512  1.2515 -2.3695  0.8976
 8805TIP3    H247831   5.408   2.602  17.513  1.3669 -1.4639 -2.3570
 8806TIP3   OH247832   1.001   0.039  15.519  0.1325  0.9709  0.0516
 8806TIP3    H147833   1.086   0.010  15.551 -0.4692  1.0702  1.8278
 8806TIP3    H247834   0.938   0.003  15.581 -0.9289  2.8662  0.1700
 8807TIP3   OH247835   4.211   1.059   4.788 -0.0975  0.1041 -0.3667
 8807TIP3    H147836   4.296   1.044   4.831  1.8369  2.1560 -3.1246
 8807TIP3    H247837   4.216   1.007   4.707 -1.1266  0.8787 -0.9535
 8808TIP3   OH247838   2.221   6.356   4.679 -0.2175  0.9056 -0.3709
 8808TIP3    H147839   2.247   6.265   4.671 -1.0911  0.7190 -1.3327
 8808TIP3    H247840   2.288   6.396   4.733  0.6330 -0.1239 -0.6417
 8809TIP3   OH247841   2.590   6.562   6.075 -0.2916  0.2953  0.3606
 8809TIP3    H147842   2.618   6.505   6.146 -0.8122  1.2246  1.3297
 8809TIP3    H247843   2.644   6.641   6.085 -0.4113  0.4601 -0.2464
 8810TIP3   OH247844   1.695   0.923   1.905  0.2480  0.1322 -1.2196
 8810TIP3    H147845   1.774   0.929   1.958 -0.0233  0.5215 -0.8458
 8810TIP3    H247846   1.726   0.902   1.818  0.7159 -0.3576 -0.9405
 8811TIP3   OH247847   4.320   1.887   0.897 -0.1032  0.0735 -0.0004
 8811TIP3    H147848   4.394   1.929   0.941 -1.5002  1.6341  1.0054
 8811TIP3    H247849   4.313   1.801   0.938  1.3425 -0.2640 -0.3845
 8812TIP3   OH247850   0.900   5.906  17.041  0.0570  0.6851 -0.7183
 8812TIP3    H147851   0.828   5.849  17.017  0.8325 -0.3601 -0.6200
 8812TIP3    H247852   0.977   5.866  17.001  0.8478  0.8312  0.6088
 8813TIP3   OH247853   0.253   0.188   5.452 -0.0859 -0.0110  0.2280
 8813TIP3    H147854   0.172   0.181   5.401 -0.0501 -1.1097  0.2892
 8813TIP3    H247855   0.239   0.263   5.509 -0.7073  0.3535 -0.3887
 8814TIP3   OH247856   0.434   2.421  13.282 -0.8070  0.2980  0.6483
 8814TIP3    H147857   0.370   2.404  13.351 -1.0676  0.2265  0.3926
 8814TIP3    H247858   0.496   2.348  13.289 -1.4905 -0.3625  0.0536
 8815TIP3   OH247859   6.211   0.050   4.564 -0.7691 -0.0525 -0.2994
 8815TIP3    H147860   6.233   0.060   4.657  0.8397 -0.1506 -0.6432
 8815TIP3    H247861   6.133   0.104   4.552  0.2846  1.7842  0.6483
 8816TIP3   OH247862   5.117   5.329   1.009  0.3934  0.0761 -0.7590
 8816TIP3    H147863   5.105   5.411   1.057  0.4453  0.8809 -2.0834
 8816TIP3    H247864   5.168   5.354   0.932  2.3522 -1.5977 -0.0830
 8817TIP3   OH247865   2.900   6.291  14.909  0.2070  0.1920  0.4787
 8817TIP3    H147866   2.872   6.208  14.947 -4.2877  0.3222 -1.9542
 8817TIP3    H247867   2.864   6.357  14.968  0.1443  0.3891  0.2208
 8818TIP3   OH247868   1.873   0.604  16.464 -0.3065  0.4085  0.3078
 8818TIP3    H147869   1.875   0.604  16.559 -0.6924  0.7605  0.3157
 8818TIP3    H247870   1.929   0.530  16.439 -2.0979 -1.1841  0.8297
 8819TIP3   OH247871   0.235   5.816   1.792 -0.8841  1.0588 -0.2985
 8819TIP3    H147872   0.260   5.864   1.714  1.6583 -0.6671 -0.6836
 8819TIP3    H247873   0.152   5.775   1.770 -0.4269  0.9574 -1.9550
 8820TIP3   OH247874   3.636   0.768  11.814  0.1171  0.3693  0.3777
 8820TIP3    H147875   3.612   0.676  11.822 -0.7993  0.5528 -0.0964
 8820TIP3    H247876   3.658   0.795  11.903  1.3885 -0.5567  0.3652
 8821TIP3   OH247877   4.972   4.537  16.002  0.2240  0.1908  0.6048
 8821TIP3    H147878   4.931   4.469  15.949 -0.5208 -0.1026  1.5220
 8821TIP3    H247879   4.933   4.619  15.970  0.9076  0.1749 -0.3043
 8822TIP3   OH247880   4.517   0.037  14.852  0.1677 -0.2002 -0.2506
 8822TIP3    H147881   4.479  -0.017  14.782  0.6719 -0.2469 -0.4935
 8822TIP3    H247882   4.529  -0.023  14.925 -3.2155  0.4536  1.0062
 8823TIP3   OH247883   2.255   5.655  11.562  0.3524  0.1636  0.4184
 8823TIP3    H147884   2.209   5.608  11.492  0.0459 -1.2626  1.5445
 8823TIP3    H247885   2.187   5.702  11.610 -0.0139 -1.9433  2.0817
 8824TIP3   OH247886   5.068   2.072  14.322 -0.1193  0.1630 -0.2384
 8824TIP3    H147887   5.095   2.015  14.394  0.1043  0.3957 -0.1363
 8824TIP3    H247888   4.996   2.123  14.358 -1.5728 -1.3191 -0.8821
 8825TIP3   OH247889   6.627   2.208  13.891 -0.7632 -0.0234  0.3544
 8825TIP3    H147890   6.549   2.214  13.835 -0.7178  1.7288  0.4158
 8825TIP3    H247891   6.609   2.268  13.963 -0.0837 -0.9470  1.3128
 8826TIP3   OH247892   5.684   2.572  14.516  0.1218 -0.2448 -0.2513
 8826TIP3    H147893   5.630   2.549  14.591 -0.5238  1.7084 -0.0432
 8826TIP3    H247894   5.651   2.658  14.489  0.0272 -1.0429 -3.0456
 8827TIP3   OH247895   4.881   1.897  13.778 -0.6269  0.5084 -0.0848
 8827TIP3    H147896   4.976   1.883  13.788 -0.4236  0.8681 -1.3927
 8827TIP3    H247897   4.847   1.812  13.752 -0.6564  0.4100  0.2642
 8828TIP3   OH247898   3.136   4.810  11.488 -0.6996  0.5554 -0.4653
 8828TIP3    H147899   3.140   4.903  11.508 -2.5476  0.1833  2.2333
 8828TIP3    H247900   3.208   4.772  11.538  0.1769  0.5085 -1.7210
 8829TIP3   OH247901   6.633   2.133  12.912  0.1017 -0.3575 -0.2624
 8829TIP3    H147902   6.539   2.152  12.908  0.1570 -0.3086 -1.6660
 8829TIP3    H247903   6.651   2.126  13.006 -1.1199  0.5146  0.0744
 8830TIP3   OH247904   5.643   3.895   4.011 -0.0951 -0.2781  0.3144
 8830TIP3    H147905   5.619   3.861   3.925  0.6595 -1.1213  0.4228
 8830TIP3    H247906   5.560   3.921   4.051 -0.4692 -0.0524 -0.5924
 8831TIP3   OH247907   1.346   3.327  13.441 -0.9464 -0.2445 -0.7364
 8831TIP3    H147908   1.284   3.374  13.385 -0.8823 -1.1914 -1.6505
 8831TIP3    H247909   1.334   3.235  13.417 -2.8053 -1.0406  2.6993
 8832TIP3   OH247910   4.798   1.919   6.741 -0.2151 -0.2897 -0.1987
 8832TIP3    H147911   4.798   1.877   6.655 -0.5613  0.6071 -0.6413
 8832TIP3    H247912   4.738   1.865   6.793  1.0274 -1.6404 -0.0940
 8833TIP3   OH247913   1.649   3.568  12.368 -0.2070 -0.3954  0.3396
 8833TIP3    H147914   1.566   3.551  12.412 -0.0521 -0.1646  0.7260
 8833TIP3    H247915   1.715   3.568  12.438  0.0015  0.2684  0.1581
 8834TIP3   OH247916   4.804   5.838  11.709 -0.3411 -0.1885 -0.1977
 8834TIP3    H147917   4.753   5.872  11.636 -0.1340 -0.4975 -0.4860
 8834TIP3    H247918   4.744   5.782  11.757 -0.8108  0.8851  0.5153
 8835TIP3   OH247919   4.918   1.567  15.922  0.2805  0.8574  0.1074
 8835TIP3    H147920   4.838   1.524  15.952  0.3339 -0.0795 -1.0188
 8835TIP3    H247921   4.986   1.537  15.983  0.0395  0.4967  0.2015
 8836TIP3   OH247922   4.516   5.576   3.751 -0.4429 -0.2983  0.2413
 8836TIP3    H147923   4.490   5.575   3.659  0.7717  4.2118 -0.3542
 8836TIP3    H247924   4.596   5.523   3.753 -0.8838 -1.0863 -1.0896
 8837TIP3   OH247925   1.843   3.862   3.307  0.0415  0.0078  0.2152
 8837TIP3    H147926   1.792   3.787   3.274  0.9338 -1.2677  1.6133
 8837TIP3    H247927   1.784   3.936   3.298 -2.2001 -1.4156  1.9082
 8838TIP3   OH247928   2.584   6.399   2.877 -0.3672  0.0874 -0.1823
 8838TIP3    H147929   2.617   6.309   2.878 -1.6849 -0.4242 -0.8379
 8838TIP3    H247930   2.533   6.407   2.957 -1.5467 -0.2737 -0.8755
 8839TIP3   OH247931   2.869   0.545   3.693 -0.3785  0.4234  0.0939
 8839TIP3    H147932   2.819   0.487   3.635 -2.6024  0.5793  1.7287
 8839TIP3    H247933   2.945   0.494   3.719 -0.5642 -0.4950 -1.0717
 8840TIP3   OH247934   4.670   3.308   5.342  0.1516  0.5884 -0.0495
 8840TIP3    H147935   4.705   3.322   5.255  2.0937  0.2862  0.6362
 8840TIP3    H247936   4.664   3.396   5.380  1.1501  0.5792  0.1619
 8841TIP3   OH247937   2.251   3.076  12.758 -0.3246 -0.1553 -0.3386
 8841TIP3    H147938   2.167   3.121  12.752 -0.8082 -0.8180  1.0253
 8841TIP3    H247939   2.316   3.146  12.755 -0.8400  0.3110 -2.3232
 8842TIP3   OH247940   3.819   1.299  16.348 -0.5163  0.5096  0.1410
 8842TIP3    H147941   3.728   1.318  16.373 -0.5741  0.8392 -0.2929
 8842TIP3    H247942   3.826   1.204  16.352 -1.2932  0.3728 -1.1614
 8843TIP3   OH247943   4.473   4.096   0.385 -0.1306  0.5597  0.1654
 8843TIP3    H147944   4.530   4.043   0.329 -2.0993 -2.6700  0.9136
 8843TIP3    H247945   4.524   4.110   0.464  0.1647 -1.1845  0.3363
 8844TIP3   OH247946   6.484   0.278  11.258  0.1562  0.5065 -0.1880
 8844TIP3    H147947   6.506   0.193  11.295 -0.5060  0.4105 -0.0082
 8844TIP3    H247948   6.467   0.260  11.165 -1.2274  0.2198  0.1062
 8845TIP3   OH247949   3.652   4.097  12.511 -0.4297  0.3940  0.2519
 8845TIP3    H147950   3.666   4.020  12.457 -0.1484  0.0845  0.7585
 8845TIP3    H247951   3.636   4.168  12.449 -0.5344 -0.0424 -0.2169
 8846TIP3   OH247952   6.107   3.994  14.045 -0.2358 -0.2518  0.1073
 8846TIP3    H147953   6.058   4.056  14.099 -0.0397 -0.1380  0.1587
 8846TIP3    H247954   6.071   4.004  13.957  1.4736  1.8172 -0.4710
 8847TIP3   OH247955   2.161   5.367  12.071  0.2067 -0.1550 -0.4433
 8847TIP3    H147956   2.152   5.292  12.013  0.9911  1.0216 -2.1843
 8847TIP3    H247957   2.255   5.384  12.075  0.0033  1.1439 -0.6478
 8848TIP3   OH247958   0.587   4.048   1.347  0.0034 -0.0633 -0.3953
 8848TIP3    H147959   0.531   4.083   1.416  0.0130 -1.5707  0.3961
 8848TIP3    H247960   0.665   4.017   1.393 -0.2324 -1.6061 -0.9793
 8849TIP3   OH247961   3.676   4.303   0.180  0.1710 -0.0664  0.1687
 8849TIP3    H147962   3.603   4.282   0.238 -0.6373  0.3102 -0.6919
 8849TIP3    H247963   3.713   4.217   0.158 -0.8859 -0.3687 -0.4962
 8850TIP3   OH247964   2.468   2.522  12.968  0.0136 -0.3107 -0.1397
 8850TIP3    H147965   2.555   2.512  12.929  0.2629  0.0747  0.2998
 8850TIP3    H247966   2.448   2.615  12.956 -0.2851 -0.3739 -0.1290
 8851TIP3   OH247967   2.959   0.967   2.905 -0.2379 -0.1916  0.5222
 8851TIP3    H147968   2.931   1.002   2.821 -1.5301  0.4672  1.1950
 8851TIP3    H247969   2.994   0.881   2.884 -5.8159 -2.7701 -0.2334
 8852TIP3   OH247970   0.467   3.821  13.572 -0.0340  0.1557  0.2191
 8852TIP3    H147971   0.372   3.810  13.565  0.2760 -2.2213 -2.2008
 8852TIP3    H247972   0.495   3.750  13.629  0.3406  0.5578  0.5393
 8853TIP3   OH247973   5.036   0.091   3.452 -0.1569 -0.0931  0.0740
 8853TIP3    H147974   5.006   0.172   3.411 -0.5888 -0.1212  0.3238
 8853TIP3    H247975   5.102   0.119   3.516  0.7828 -0.0842 -0.8856
 8854TIP3   OH247976   6.579   5.022   4.570  0.2588  0.2265  0.2354
 8854TIP3    H147977   6.665   5.047   4.604  0.6558 -0.6394 -0.0851
 8854TIP3    H247978   6.557   4.942   4.619 -0.2053  0.2530  0.0736
 8855TIP3   OH247979   4.278   0.924   0.676 -0.5408  0.1668  0.1077
 8855TIP3    H147980   4.322   1.002   0.712  0.3066 -0.5133  0.5986
 8855TIP3    H247981   4.349   0.871   0.641 -0.9192 -1.0939  1.1619
 8856TIP3   OH247982   0.348   4.731  16.165 -0.4211 -0.0324 -0.3189
 8856TIP3    H147983   0.396   4.814  16.166 -1.6378  0.6774  0.0002
 8856TIP3    H247984   0.264   4.752  16.126 -1.0935 -0.9299  0.5931
 8857TIP3   OH247985   4.676   1.744   0.769  0.3087  0.1231 -0.2998
 8857TIP3    H147986   4.739   1.684   0.811 -3.3864 -2.5677  2.0993
 8857TIP3    H247987   4.658   1.810   0.836 -1.7077 -1.0891  0.4480
 8858TIP3   OH247988   0.027   2.471   6.472 -0.3294 -0.0394 -0.0418
 8858TIP3    H147989   0.005   2.406   6.540 -0.9184 -2.1010 -2.0751
 8858TIP3    H247990   0.001   2.429   6.390  0.9663  2.0859 -1.6310
 8859TIP3   OH247991   2.349   5.334   1.474  0.2333  0.7019 -0.7228
 8859TIP3    H147992   2.387   5.266   1.530 -1.0244  0.5324 -0.0266
 8859TIP3    H247993   2.342   5.410   1.531  0.9071  1.1803 -1.2731
 8860TIP3   OH247994   1.364   1.568  17.170  0.1711 -0.5421 -0.4724
 8860TIP3    H147995   1.319   1.500  17.120  0.5805 -1.1159 -0.0747
 8860TIP3    H247996   1.302   1.593  17.238  0.1251 -0.7070 -0.4548
 8861TIP3   OH247997   0.895   1.604  13.598  0.3491 -0.3524  0.0433
 8861TIP3    H147998   0.909   1.513  13.622 -0.2561 -0.2737  0.7614
 8861TIP3    H247999   0.917   1.653  13.678 -1.0584 -0.0199  0.2615
 8862TIP3   OH248000   5.166   5.995  16.091  0.1095  0.5008  0.8277
 8862TIP3    H148001   5.224   6.041  16.152 -0.1130 -0.2172  1.6158
 8862TIP3    H248002   5.150   5.911  16.134  2.0645 -1.1587 -1.4287
 8863TIP3   OH248003   2.413   1.092  12.458  0.3260  0.1649  0.0392
 8863TIP3    H148004   2.336   1.047  12.493 -0.9396  0.9716 -1.5579
 8863TIP3    H248005   2.463   1.024  12.414  0.0726 -0.2310  0.3630
 8864TIP3   OH248006   1.264   5.073  16.227  0.6597 -0.1859 -0.0546
 8864TIP3    H148007   1.232   5.104  16.311  2.2708 -1.5921  1.1601
 8864TIP3    H248008   1.358   5.059  16.241  1.4831  1.7574 -2.8021
 8865TIP3   OH248009   6.382   2.757  14.328 -0.1515 -0.4034  0.4693
 8865TIP3    H148010   6.374   2.718  14.415  0.2003 -0.5435  0.4385
 8865TIP3    H248011   6.449   2.705  14.284  0.9775  0.7560  0.7377
 8866TIP3   OH248012   0.881   0.282   6.312 -0.0799 -0.7973  0.0682
 8866TIP3    H148013   0.795   0.239   6.303 -0.0164 -0.9185  0.0381
 8866TIP3    H248014   0.944   0.211   6.298  0.0485 -0.3554 -1.8269
 8867TIP3   OH248015   3.395   3.125  14.931  0.3440 -0.0065 -0.2655
 8867TIP3    H148016   3.393   3.085  14.845  0.8562  1.6880 -1.0988
 8867TIP3    H248017   3.483   3.161  14.940  1.0538 -1.9980  1.8896
 8868TIP3   OH248018   5.605   4.408  15.602  0.2155  0.4464  0.1038
 8868TIP3    H148019   5.597   4.437  15.693  1.2741  0.6819  0.1270
 8868TIP3    H248020   5.687   4.360  15.599 -0.2156 -0.2754 -0.5488
 8869TIP3   OH248021   6.560   6.314  12.220  0.0230 -0.8069 -1.0917
 8869TIP3    H148022   6.467   6.331  12.236  0.1267 -1.3839  0.2057
 8869TIP3    H248023   6.606   6.372  12.281  0.4685 -1.8904 -0.3720
 8870TIP3   OH248024   3.617   2.936   5.123  0.5190 -0.0847  0.0914
 8870TIP3    H148025   3.566   3.016   5.134  0.3984 -0.2067  0.4224
 8870TIP3    H248026   3.628   2.902   5.211  0.7106 -0.3476 -0.0322
 8871TIP3   OH248027   2.214   6.399   0.724  0.1821  0.6403 -0.0348
 8871TIP3    H148028   2.244   6.488   0.742 -1.2142  0.6434  2.8264
 8871TIP3    H248029   2.121   6.400   0.746  0.2385 -1.6348  0.5761
 8872TIP3   OH248030   2.044   5.939   2.775 -0.5150  0.7259  0.2427
 8872TIP3    H148031   1.949   5.928   2.770 -0.4846  0.7881 -0.6877
 8872TIP3    H248032   2.055   6.027   2.811 -0.8046  0.5461  0.7836
 8873TIP3   OH248033   2.711   1.709  11.342 -1.3276 -0.0006  0.7134
 8873TIP3    H148034   2.773   1.748  11.280 -0.5122 -0.5949  1.1309
 8873TIP3    H248035   2.726   1.615  11.334 -2.9690 -0.2349  0.0242
 8874TIP3   OH248036   6.178   2.685   2.254  0.1906  0.2620 -0.1760
 8874TIP3    H148037   6.255   2.701   2.308 -0.6715 -0.7374  1.4332
 8874TIP3    H248038   6.198   2.605   2.206  0.9493  1.1400 -1.3906
 8875TIP3   OH248039   2.221   5.316  12.849 -0.4213 -0.6203 -0.0164
 8875TIP3    H148040   2.166   5.287  12.922  0.1629 -2.3126 -0.1902
 8875TIP3    H248041   2.303   5.342  12.890 -0.6112 -0.1038  0.0486
 8876TIP3   OH248042   0.292   3.783  16.402 -0.4491 -0.2497  1.0386
 8876TIP3    H148043   0.236   3.820  16.335 -0.7692  1.2036  2.0605
 8876TIP3    H248044   0.321   3.700  16.366  0.6819  1.1680 -1.5818
 8877TIP3   OH248045   1.586   2.312  15.327 -0.1967 -0.1421  0.0052
 8877TIP3    H148046   1.678   2.287  15.333 -0.6746 -1.8330  1.1294
 8877TIP3    H248047   1.584   2.404  15.353  1.0257 -0.4926  1.4834
 8878TIP3   OH248048   4.579   1.982   4.505  0.0557  0.0133 -0.5172
 8878TIP3    H148049   4.501   1.989   4.560  0.5898 -0.1672  0.2791
 8878TIP3    H248050   4.550   1.932   4.428 -0.7026  0.2794 -0.4172
 8879TIP3   OH248051   5.471   6.472   3.677 -0.2314  0.3625  0.0040
 8879TIP3    H148052   5.401   6.514   3.627 -0.3885 -0.5968 -0.6113
 8879TIP3    H248053   5.542   6.462   3.614  0.8098  2.0627  0.8196
 8880TIP3   OH248054   1.078   2.932   6.633 -0.3634  0.0210 -0.1533
 8880TIP3    H148055   1.123   2.985   6.568  1.7393 -1.4401  0.0068
 8880TIP3    H248056   1.010   2.886   6.584  1.1703 -1.0419 -1.3785
 8881TIP3   OH248057   5.904   3.972   2.411  0.4080 -0.1003 -0.0947
 8881TIP3    H148058   5.882   4.011   2.496 -2.7011 -0.6996 -0.5000
 8881TIP3    H248059   5.942   4.044   2.361 -2.2839  1.7227  0.2233
 8882TIP3   OH248060   5.028   5.307  15.809 -0.0159  0.2841 -0.0613
 8882TIP3    H148061   4.975   5.286  15.732  1.6138 -0.2993 -1.0602
 8882TIP3    H248062   5.034   5.224  15.857 -0.6167  0.5326  0.4656
 8883TIP3   OH248063   4.913   2.378  16.231  0.4084 -0.4301 -0.4014
 8883TIP3    H148064   4.880   2.295  16.266  1.0326  0.2243  1.8608
 8883TIP3    H248065   5.008   2.367  16.232  0.4516 -0.2733 -1.6773
 8884TIP3   OH248066   3.549   6.520  14.198  0.0952 -0.2403  0.2197
 8884TIP3    H148067   3.620   6.553  14.143  0.5475 -0.2003  0.8089
 8884TIP3    H248068   3.531   6.592  14.259 -0.8300 -0.0458 -0.2725
 8885TIP3   OH248069   1.638   4.793  12.406 -0.3853  0.0548 -0.1421
 8885TIP3    H148070   1.658   4.723  12.344  3.1235  0.9105 -0.2024
 8885TIP3    H248071   1.581   4.853  12.357  1.9203  0.4984 -2.5465
 8886TIP3   OH248072   1.559   2.977   5.715  0.7394 -0.3563 -0.5205
 8886TIP3    H148073   1.559   3.046   5.648  2.0334  1.3543  1.1233
 8886TIP3    H248074   1.515   3.017   5.790  0.9641 -1.5645  0.2759
 8887TIP3   OH248075   2.717   5.418  11.313  0.3187 -0.4446  0.1234
 8887TIP3    H148076   2.694   5.493  11.368  0.7088 -0.2193 -0.0173
 8887TIP3    H248077   2.734   5.456  11.227  1.3315 -0.5756  0.2478
 8888TIP3   OH248078   4.279   3.565  13.905 -0.8896 -0.5089 -0.3969
 8888TIP3    H148079   4.235   3.650  13.896 -0.3029 -0.2112 -0.5093
 8888TIP3    H248080   4.255   3.535  13.993  1.1272  1.0951  0.8025
 8889TIP3   OH248081   0.898   4.202  11.430 -0.3284  0.4014 -0.2698
 8889TIP3    H148082   0.852   4.283  11.451 -0.5389  0.3760 -0.6331
 8889TIP3    H248083   0.985   4.213  11.468 -1.3044 -0.4527  2.4551
 8890TIP3   OH248084   0.570   3.831   3.379 -0.2697 -0.1929 -0.5424
 8890TIP3    H148085   0.523   3.823   3.462  0.0227 -0.8106 -0.4231
 8890TIP3    H248086   0.508   3.800   3.313 -1.8061  3.5541 -1.0747
 8891TIP3   OH248087   4.034   2.372   5.833  0.4717  0.0359  0.3972
 8891TIP3    H148088   4.062   2.430   5.904  0.0608 -1.3140  1.7133
 8891TIP3    H248089   4.070   2.412   5.753  0.5054  1.8703  1.2877
 8892TIP3   OH248090   0.709   5.385   3.408 -0.1627  0.2260  0.0253
 8892TIP3    H148091   0.638   5.445   3.431  0.5057  0.5883  1.2777
 8892TIP3    H248092   0.726   5.401   3.316 -1.4182  0.4271 -0.1892
 8893TIP3   OH248093   4.419   1.549  15.279  0.3231 -0.7255  0.0782
 8893TIP3    H148094   4.355   1.620  15.273 -0.3752 -1.4153 -1.1238
 8893TIP3    H248095   4.495   1.588  15.322 -0.4500  0.4482  0.4231
 8894TIP3   OH248096   6.649   6.246   6.411  0.1986 -0.0462 -0.3713
 8894TIP3    H148097   6.668   6.316   6.473 -0.0637  0.1962 -0.5620
 8894TIP3    H248098   6.665   6.166   6.460  0.3241  0.1464 -0.0942
 8895TIP3   OH248099   1.121   6.481   3.161 -0.3807 -0.7957  0.4428
 8895TIP3    H148100   1.100   6.490   3.068  0.7645 -0.1864  0.2269
 8895TIP3    H248101   1.062   6.412   3.192 -0.4219 -1.3827 -0.8595
 8896TIP3   OH248102   3.108   3.488   0.393 -0.2065  0.3824  0.4634
 8896TIP3    H148103   3.085   3.566   0.342  1.7915  0.4114 -0.4712
 8896TIP3    H248104   3.123   3.420   0.327 -0.3521 -0.3763  1.1915
 8897TIP3   OH248105   0.181   0.976   2.497  0.3078  0.0687  0.1564
 8897TIP3    H148106   0.200   1.012   2.584 -2.0523 -0.3300  0.9057
 8897TIP3    H248107   0.127   0.899   2.514  2.0884 -1.6786 -1.5892
 8898TIP3   OH248108   0.155   0.963  15.929 -0.3443 -0.3884  0.2858
 8898TIP3    H148109   0.140   0.991  15.838 -0.3570 -0.8184  0.1546
 8898TIP3    H248110   0.227   1.018  15.959  0.3929 -0.9849 -0.3386
 8899TIP3   OH248111   1.849   1.030   0.499  0.0964  0.1364  0.2365
 8899TIP3    H148112   1.924   1.074   0.460 -0.7051 -0.0029 -1.5717
 8899TIP3    H248113   1.887   0.966   0.560  1.6387 -1.6380 -2.3735
 8900TIP3   OH248114   1.183   3.402  15.662 -0.1096 -0.3275  0.1412
 8900TIP3    H148115   1.252   3.434  15.720 -0.4719 -0.7306  0.8040
 8900TIP3    H248116   1.120   3.360  15.720 -2.9311  3.3434  0.0967
 8901TIP3   OH248117   4.738   5.949  15.148 -0.1653 -0.5562  0.2800
 8901TIP3    H148118   4.691   5.981  15.070  0.6457  1.4760  0.5685
 8901TIP3    H248119   4.745   6.025  15.205  1.7694 -1.2734  1.0995
 8902TIP3   OH248120   0.002   6.709   5.734  0.0786 -0.3660  0.1322
 8902TIP3    H148121   0.030   6.671   5.650  0.3218  1.1749 -0.5272
 8902TIP3    H248122   0.020   6.802   5.725 -0.2115 -0.1154  1.7958
 8903TIP3   OH248123   6.584   4.480   2.640 -0.0593  0.4206 -0.2649
 8903TIP3    H148124   6.500   4.516   2.669 -0.3288 -1.1895  1.1048
 8903TIP3    H248125   6.561   4.405   2.586  0.4391 -0.8397  1.1943
 8904TIP3   OH248126   2.582   0.725   3.329  0.3969 -0.0022  0.4002
 8904TIP3    H148127   2.549   0.694   3.413 -0.1435  0.3428  0.3247
 8904TIP3    H248128   2.518   0.791   3.302  0.6217 -0.0415 -0.2334
 8905TIP3   OH248129   3.505   0.404   1.498 -0.0579 -0.2304 -0.3889
 8905TIP3    H148130   3.492   0.318   1.538  0.5079 -0.7497 -1.2724
 8905TIP3    H248131   3.448   0.463   1.547  0.3418 -0.9018  0.9307
 8906TIP3   OH248132   0.889   1.092   4.485  0.5720 -0.4372 -0.2673
 8906TIP3    H148133   0.833   1.143   4.427 -1.1865 -3.6716 -1.6913
 8906TIP3    H248134   0.976   1.131   4.475 -0.6809  2.4745 -0.8267
 8907TIP3   OH248135   0.978   3.146  17.196  0.0508 -0.3386 -0.2882
 8907TIP3    H148136   0.961   3.184  17.282 -0.9445 -1.8964  0.2357
 8907TIP3    H248137   0.897   3.100  17.173  0.3084  0.0249 -2.0568
 8908TIP3   OH248138   2.694   2.719   5.234 -0.2671 -0.0341 -0.4514
 8908TIP3    H148139   2.667   2.773   5.160 -0.6171 -1.3146 -1.2891
 8908TIP3    H248140   2.635   2.643   5.231 -0.4667  0.0108  1.3072
 8909TIP3   OH248141   0.256   5.647   5.369 -0.7094 -0.3068 -0.0383
 8909TIP3    H148142   0.305   5.671   5.291 -1.7361  0.0319 -0.5994
 8909TIP3    H248143   0.262   5.551   5.373 -0.7916 -0.3403 -0.6320
 8910TIP3   OH248144   4.178   5.550   3.279  0.1117  0.4952 -0.2175
 8910TIP3    H148145   4.177   5.483   3.211  1.8404 -0.1883  0.3815
 8910TIP3    H248146   4.156   5.631   3.233  0.9998  0.0028 -1.5665
 8911TIP3   OH248147   6.476   2.905   2.064  0.3172 -0.0156 -0.5500
 8911TIP3    H148148   6.388   2.868   2.054 -0.0451  0.9786 -1.1125
 8911TIP3    H248149   6.525   2.836   2.109 -0.5961 -0.8038 -0.7162
 8912TIP3   OH248150   0.017   3.812  15.789 -0.3538 -0.3240 -0.0628
 8912TIP3    H148151   0.020   3.901  15.755 -1.5345  0.3232  1.4445
 8912TIP3    H248152  -0.047   3.768  15.733  0.0778 -0.1916 -0.6786
 8913TIP3   OH248153   6.449   2.507   3.328  0.5891  0.2246  0.1584
 8913TIP3    H148154   6.425   2.427   3.374  3.5985 -0.5128  0.6484
 8913TIP3    H248155   6.365   2.546   3.302 -1.0077 -2.3247  1.1269
 8914TIP3   OH248156   6.151   0.588  14.662 -0.0669 -0.4211  0.1753
 8914TIP3    H148157   6.064   0.626  14.668 -0.1020 -0.2445 -1.2441
 8914TIP3    H248158   6.149   0.514  14.724 -1.0365 -0.0995  0.5466
 8915TIP3   OH248159   4.328   1.816  16.725 -0.1967 -0.1842  0.4915
 8915TIP3    H148160   4.382   1.771  16.659 -3.0121 -0.8321 -1.5579
 8915TIP3    H248161   4.285   1.745  16.773 -2.2117  0.2357 -0.6018
 8916TIP3   OH248162   1.880   4.126   5.254 -0.2750  0.1814 -0.2360
 8916TIP3    H148163   1.959   4.176   5.277 -0.1501 -0.5233  0.9744
 8916TIP3    H248164   1.845   4.098   5.338 -1.2451 -0.3988 -0.8198
 8917TIP3   OH248165   5.616   3.626  14.479 -0.2733  0.2597  0.3743
 8917TIP3    H148166   5.631   3.714  14.444 -0.2321  0.2946  0.4787
 8917TIP3    H248167   5.656   3.628  14.566  1.2352 -0.3813 -0.2689
 8918TIP3   OH248168   1.186   2.370  11.813  0.5269 -0.7079  0.2527
 8918TIP3    H148169   1.096   2.380  11.783  0.3379 -0.6625  0.8292
 8918TIP3    H248170   1.237   2.424  11.752  0.0927 -0.2499  0.2827
 8919TIP3   OH248171   4.596   1.868   4.795  0.6872 -0.2367  0.4385
 8919TIP3    H148172   4.552   1.944   4.834 -6.5138 -3.0882 -0.5801
 8919TIP3    H248173   4.628   1.899   4.711 -0.6325  2.0006  0.6745
 8920TIP3   OH248174   5.544   1.812  13.988 -0.3867  0.2945 -0.1088
 8920TIP3    H148175   5.598   1.735  14.005  1.0460  0.7289 -2.1555
 8920TIP3    H248176   5.460   1.792  14.027 -0.0741 -2.3287 -0.5633
 8921TIP3   OH248177   3.703   1.984   0.560 -0.3857 -0.3357 -0.4375
 8921TIP3    H148178   3.739   2.056   0.613  1.0587 -1.1182 -0.3129
 8921TIP3    H248179   3.649   2.028   0.494  0.4531  0.8786 -0.3524
 8922TIP3   OH248180   0.923   5.374   3.622 -0.0365  0.0313 -0.6911
 8922TIP3    H148181   0.838   5.386   3.579 -0.1523  0.6333 -0.3096
 8922TIP3    H248182   0.901   5.363   3.714  0.2893  0.0271 -0.6148
 8923TIP3   OH248183   4.212   0.460   6.712 -0.5531 -0.1244 -0.3108
 8923TIP3    H148184   4.152   0.492   6.644  0.4149 -2.2605 -2.3472
 8923TIP3    H248185   4.295   0.503   6.692 -0.9156  1.4960  1.4295
 8924TIP3   OH248186   5.990   6.037   1.923  0.1070  0.4534  0.2042
 8924TIP3    H148187   5.975   6.130   1.906 -1.2472  0.4196  1.1206
 8924TIP3    H248188   6.077   6.034   1.962 -0.4077  1.5106  1.4889
 8925TIP3   OH248189   2.054   2.310  15.540 -0.5485 -0.0009 -0.0960
 8925TIP3    H148190   1.967   2.341  15.564 -0.5467  0.6860 -0.9177
 8925TIP3    H248191   2.111   2.386  15.550  0.3979 -0.9431  2.4430
 8926TIP3   OH248192   0.222   2.901   6.222 -0.3119 -1.2726 -0.2101
 8926TIP3    H148193   0.233   2.906   6.317  0.6506 -1.0259 -0.3275
 8926TIP3    H248194   0.246   2.988   6.190 -0.8522 -1.2838 -0.6620
 8927TIP3   OH248195   2.318   1.898   6.147  0.0215 -0.0897  0.0692
 8927TIP3    H148196   2.391   1.921   6.205 -1.4501  1.2124  1.5015
 8927TIP3    H248197   2.246   1.955   6.175 -1.5003 -1.1769 -1.4252
 8928TIP3   OH248198   0.427   1.130  11.928  0.0809  0.2736 -0.6060
 8928TIP3    H148199   0.401   1.217  11.960  3.1591  1.2567 -0.4524
 8928TIP3    H248200   0.470   1.089  12.003 -0.8157 -1.1917 -0.8605
 8929TIP3   OH248201   2.727   0.825   5.287  0.8249 -0.3887 -0.1668
 8929TIP3    H148202   2.650   0.820   5.344  0.5306  1.6786 -0.3102
 8929TIP3    H248203   2.717   0.750   5.228 -0.3774 -0.9129  0.6515
 8930TIP3   OH248204   6.644   3.279   1.024  0.1349 -0.4540  0.6713
 8930TIP3    H148205   6.637   3.194   1.067  1.5953 -1.7327 -1.4319
 8930TIP3    H248206   6.602   3.266   0.939 -0.0261  1.0792  0.5015
 8931TIP3   OH248207   5.492   0.336   1.040 -0.0853  0.4337 -0.1075
 8931TIP3    H148208   5.545   0.374   0.970  0.6429 -1.6943 -0.7861
 8931TIP3    H248209   5.423   0.287   0.994  1.1576 -2.0815  0.5157
 8932TIP3   OH248210   1.029   5.998   4.085 -0.1233  0.5076 -0.7523
 8932TIP3    H148211   0.975   6.023   4.160 -0.6057 -0.6048 -0.7084
 8932TIP3    H248212   1.001   5.909   4.063 -0.7944  1.1979 -2.9650
 8933TIP3   OH248213   2.585   0.519   2.541 -0.1382  0.2157  0.2100
 8933TIP3    H148214   2.529   0.590   2.508  0.0864  0.2920 -0.0083
 8933TIP3    H248215   2.570   0.518   2.635 -0.0726  0.6156  0.2255
 8934TIP3   OH248216   4.462   0.491  13.695 -0.1034 -0.2696 -0.0021
 8934TIP3    H148217   4.440   0.527  13.781  0.6760  0.3511 -0.0508
 8934TIP3    H248218   4.378   0.462  13.659 -0.4976 -0.1354  0.7854
 8935TIP3   OH248219   3.506   5.240   3.208  0.3537  0.4376 -0.0442
 8935TIP3    H148220   3.586   5.279   3.243  0.7005  0.8482 -1.2718
 8935TIP3    H248221   3.437   5.268   3.268  1.0746  0.2958  0.8746
 8936TIP3   OH248222   4.840   1.695  12.025  0.6310 -0.6188  0.5348
 8936TIP3    H148223   4.896   1.671  11.951  1.0033 -0.9270  0.9143
 8936TIP3    H248224   4.761   1.642  12.012 -0.0972  0.6732 -0.6462
 8937TIP3   OH248225   0.493   6.305   1.828 -0.4711  0.2152 -0.4062
 8937TIP3    H148226   0.409   6.309   1.782 -0.3960  0.5052 -0.5244
 8937TIP3    H248227   0.498   6.388   1.875 -0.1470  0.2942 -0.5827
 8938TIP3   OH248228   4.612   0.978  13.371  0.0717 -0.0018 -0.0503
 8938TIP3    H148229   4.659   0.950  13.293  1.3935 -0.5909  0.9225
 8938TIP3    H248230   4.592   1.070  13.355  0.9480  0.0795 -0.7849
 8939TIP3   OH248231   3.601   0.669   0.325  0.7250 -0.1727 -0.2699
 8939TIP3    H148232   3.597   0.758   0.289 -1.1808 -0.2470 -0.2938
 8939TIP3    H248233   3.571   0.613   0.254  0.4299 -0.6806  0.2548
 8940TIP3   OH248234   4.597   1.390  14.798 -0.0856  0.2292  0.2572
 8940TIP3    H148235   4.547   1.381  14.717 -0.7373  0.9892  0.5528
 8940TIP3    H248236   4.534   1.428  14.860  0.8760  1.2482  0.6345
 8941TIP3   OH248237   5.701   2.633   6.591 -0.4742 -0.6324  0.0774
 8941TIP3    H148238   5.771   2.658   6.531 -1.7319  0.4059 -1.0119
 8941TIP3    H248239   5.741   2.640   6.678  0.3559  1.5485 -0.4120
 8942TIP3   OH248240   6.572   1.718   6.551  0.1946  0.5113  0.2330
 8942TIP3    H148241   6.667   1.715   6.559  0.1065  1.0562  1.6487
 8942TIP3    H248242   6.546   1.801   6.591 -0.7137  1.5870 -2.3290
 8943TIP3   OH248243   2.305   2.892  16.137  0.1154 -1.0758 -0.3917
 8943TIP3    H148244   2.337   2.829  16.201  0.3655  0.5185  1.1657
 8943TIP3    H248245   2.384   2.928  16.097  0.2186  0.4717  1.0555
 8944TIP3   OH248246   2.399   5.334   0.668 -0.3250 -0.2329 -0.3152
 8944TIP3    H148247   2.473   5.357   0.725  1.3342 -2.6632 -1.3451
 8944TIP3    H248248   2.367   5.251   0.703 -1.5090 -0.0424 -0.9042
 8945TIP3   OH248249   3.287   1.408   3.739 -1.0720 -0.2731 -0.9259
 8945TIP3    H148250   3.259   1.469   3.806 -0.5167  0.0961 -1.0235
 8945TIP3    H248251   3.214   1.405   3.677 -0.2420  2.0723 -2.1424
 8946TIP3   OH248252   2.942   1.212  15.303  0.0718 -0.1529  0.2487
 8946TIP3    H148253   2.928   1.117  15.300 -0.3095 -0.0692 -1.1280
 8946TIP3    H248254   3.005   1.229  15.233  0.4499  0.5781  0.7515
 8947TIP3   OH248255   4.257   3.094   2.767  0.0279 -0.8182 -0.0818
 8947TIP3    H148256   4.249   3.157   2.838 -0.9456 -1.7739  0.6760
 8947TIP3    H248257   4.313   3.138   2.703 -0.8863  0.9427  0.2718
 8948TIP3   OH248258   4.908   1.020   6.168 -0.3546 -0.8289 -0.0179
 8948TIP3    H148259   4.957   1.100   6.154  1.0149 -1.2937  1.6420
 8948TIP3    H248260   4.817   1.048   6.177 -0.1850  0.2698 -1.4467
 8949TIP3   OH248261   4.696   4.166   5.512 -0.6054  0.9147  0.1784
 8949TIP3    H148262   4.718   4.219   5.435 -2.6238  1.6463  0.0400
 8949TIP3    H248263   4.610   4.130   5.492 -1.1654  1.0967  2.0867
 8950TIP3   OH248264   0.598   0.889   4.818  0.9188  0.4615 -0.1784
 8950TIP3    H148265   0.685   0.862   4.845  1.7152  2.9855 -0.0192
 8950TIP3    H248266   0.584   0.974   4.860 -1.0317  0.7930 -1.3491
 8951TIP3   OH248267   5.734   6.204  14.707 -0.0367 -0.2878 -0.3011
 8951TIP3    H148268   5.824   6.235  14.699  0.1710 -0.5681  0.8077
 8951TIP3    H248269   5.681   6.275  14.669  0.5012  0.9647  1.1763
 8952TIP3   OH248270   1.956   1.089  14.326  0.6080 -0.0713  0.5411
 8952TIP3    H148271   1.938   1.031  14.253 -2.0481  1.0337  0.1951
 8952TIP3    H248272   2.010   1.159  14.289  0.4474 -0.2465 -0.0240
 8953TIP3   OH248273   5.801   3.149   1.715  0.6478  0.2962  0.0763
 8953TIP3    H148274   5.839   3.071   1.757 -1.2713 -0.8888 -0.2483
 8953TIP3    H248275   5.793   3.212   1.786 -0.3346 -0.8285  1.0220
 8954TIP3   OH248276   6.521   5.087   5.163 -0.2170  0.0533  0.3243
 8954TIP3    H148277   6.600   5.101   5.110 -0.2685  1.3884  0.5810
 8954TIP3    H248278   6.449   5.115   5.107 -0.5792 -1.5103 -0.0482
 8955TIP3   OH248279   1.081   2.432   1.903  0.1535 -0.1212 -0.0063
 8955TIP3    H148280   1.141   2.360   1.922 -1.6910 -1.4661  1.0714
 8955TIP3    H248281   0.994   2.395   1.917 -0.9331  1.8883 -1.0173
 8956TIP3   OH248282   3.238   4.303   0.621 -0.5613  0.1974  0.1733
 8956TIP3    H148283   3.220   4.372   0.685  1.7119  1.0372  0.0128
 8956TIP3    H248284   3.237   4.348   0.537 -0.3860 -0.2380 -0.0657
 8957TIP3   OH248285   0.742   1.686  15.696 -0.1215  0.2760  0.7032
 8957TIP3    H148286   0.835   1.681  15.673 -0.3823 -1.8970 -0.0959
 8957TIP3    H248287   0.724   1.779  15.703  1.9593  0.7628  0.1699
 8958TIP3   OH248288   4.233   3.812   0.878  0.0131 -0.3832  0.0888
 8958TIP3    H148289   4.292   3.846   0.810 -1.3399 -0.5325 -1.1976
 8958TIP3    H248290   4.147   3.845   0.854 -0.8917 -2.4235  0.3793
 8959TIP3   OH248291   6.518   1.001   3.655  0.6971 -0.0479  0.6398
 8959TIP3    H148292   6.525   0.913   3.619  2.2181 -0.0376  0.8262
 8959TIP3    H248293   6.535   0.989   3.749 -1.7423  0.1216  1.1819
 8960TIP3   OH248294   4.304   3.880   1.690  0.2728 -0.8578 -0.0893
 8960TIP3    H148295   4.254   3.945   1.640  0.1298 -0.4373  0.5936
 8960TIP3    H248296   4.246   3.804   1.694 -0.1047 -0.5573  0.2437
 8961TIP3   OH248297   0.254   3.369   1.135 -0.5534 -0.1539  0.3850
 8961TIP3    H148298   0.256   3.330   1.223 -2.1459 -0.2218  0.4085
 8961TIP3    H248299   0.176   3.332   1.094 -0.0260  0.1524 -0.9487
 8962TIP3   OH248300   0.236   1.599  13.879  0.0052  0.4242  0.0015
 8962TIP3    H148301   0.156   1.566  13.920  0.0184  1.1721  0.6440
 8962TIP3    H248302   0.224   1.694  13.876  0.4228  0.4516 -0.8526
 8963TIP3   OH248303   3.955   3.118  14.009 -0.1115  0.1159 -0.5309
 8963TIP3    H148304   3.892   3.085  13.946  0.6140  0.8294 -1.6653
 8963TIP3    H248305   3.974   3.043  14.066 -2.9093  0.2055  0.6812
 8964TIP3   OH248306   1.520   3.595   3.022  0.1290 -0.0986  0.4280
 8964TIP3    H148307   1.448   3.581   2.959  0.0845 -0.9680  0.6641
 8964TIP3    H248308   1.594   3.548   2.984  0.4442  0.3966  0.4250
 8965TIP3   OH248309   6.037   0.318  12.841 -0.0866  0.1629 -0.0195
 8965TIP3    H148310   6.080   0.259  12.904  2.5795  0.3457 -1.5069
 8965TIP3    H248311   5.949   0.284  12.832  0.2909 -1.4730  1.7883
 8966TIP3   OH248312   6.460   0.805  16.870  0.3922  0.2487 -0.4231
 8966TIP3    H148313   6.414   0.722  16.863 -0.9588  0.8807  0.4250
 8966TIP3    H248314   6.510   0.813  16.788 -1.1148 -0.4307 -1.4508
 8967TIP3   OH248315   1.116   6.224   1.665 -0.4851 -0.2756  0.2079
 8967TIP3    H148316   1.189   6.240   1.725 -0.6817 -1.1849  0.7222
 8967TIP3    H248317   1.045   6.278   1.699 -0.7060 -1.0615  1.0436
 8968TIP3   OH248318   0.337   5.175   2.747 -0.0532  0.3193  0.1720
 8968TIP3    H148319   0.360   5.213   2.831 -0.6221 -0.6407  0.7722
 8968TIP3    H248320   0.375   5.087   2.748 -1.0930 -0.1512 -0.0572
 8969TIP3   OH248321   4.610   1.432   1.843 -0.7342  0.3753 -0.1591
 8969TIP3    H148322   4.619   1.363   1.908  0.3693  0.5792 -0.0718
 8969TIP3    H248323   4.663   1.504   1.877 -0.4098  0.6061 -1.1035
 8970TIP3   OH248324   5.647   2.625  13.355  0.7884 -0.1292 -0.3848
 8970TIP3    H148325   5.593   2.688  13.401 -0.5696 -0.9775 -0.7789
 8970TIP3    H248326   5.725   2.674  13.330 -0.4352  1.5328 -1.0982
 8971TIP3   OH248327   0.172   3.852   3.468 -0.0659  0.3494  0.0653
 8971TIP3    H148328   0.179   3.940   3.430 -1.3260  1.4118  2.1192
 8971TIP3    H248329   0.081   3.827   3.453 -0.3914  0.4931  1.6785
 8972TIP3   OH248330   0.567   3.740  13.999  0.0932  0.4224 -0.1418
 8972TIP3    H148331   0.624   3.817  13.991  0.9404  0.0082  1.4551
 8972TIP3    H248332   0.623   3.673  14.037 -1.6921  0.3091  2.5429
 8973TIP3   OH248333   1.641   4.032  16.698  0.3927  0.5145 -0.3856
 8973TIP3    H148334   1.601   4.112  16.732  1.5516  0.9025  0.0970
 8973TIP3    H248335   1.698   4.001  16.769  0.2493 -0.5293 -0.7119
 8974TIP3   OH248336   3.371   2.381  14.298  0.2165  0.2570  0.1039
 8974TIP3    H148337   3.411   2.466  14.278 -0.7828  1.1546  1.7123
 8974TIP3    H248338   3.286   2.384  14.255 -0.4191  0.6955  1.3421
 8975TIP3   OH248339   3.837   5.150   0.190  0.3450  0.5647 -0.4425
 8975TIP3    H148340   3.768   5.161   0.256 -0.2274  2.7749 -1.3058
 8975TIP3    H248341   3.807   5.203   0.116  2.3475  0.4870 -1.3574
 8976TIP3   OH248342   6.299   4.876   3.050  0.0558 -0.1831 -0.0570
 8976TIP3    H148343   6.266   4.813   2.985 -2.2774  1.2673 -0.3984
 8976TIP3    H248344   6.275   4.838   3.134 -2.7801  0.7986 -0.2870
 8977TIP3   OH248345   1.574   4.764   3.655  0.3520  0.1357  0.0385
 8977TIP3    H148346   1.513   4.764   3.582 -0.7671  1.8764  0.8972
 8977TIP3    H248347   1.656   4.798   3.618  0.4013 -0.8555 -0.8051
 8978TIP3   OH248348   1.179   6.140   1.140 -0.0284 -0.3901  0.3714
 8978TIP3    H148349   1.091   6.158   1.171 -0.4935  1.2083 -1.6432
 8978TIP3    H248350   1.175   6.155   1.045  2.3201 -0.6293  0.1650
 8979TIP3   OH248351   4.403   2.219   5.864  0.0476 -0.1490 -0.2214
 8979TIP3    H148352   4.319   2.184   5.894  0.5618 -0.4415  0.9545
 8979TIP3    H248353   4.382   2.306   5.829 -0.7657 -0.2898 -0.1007
 8980TIP3   OH248354   2.538   5.347  12.704  0.1874  0.3479  0.0852
 8980TIP3    H148355   2.459   5.328  12.653 -0.6758  2.2748  0.6461
 8980TIP3    H248356   2.602   5.376  12.639 -0.5860  1.8022 -0.0706
 8981TIP3   OH248357   5.357   3.507  14.702  0.1036  0.8973 -0.2070
 8981TIP3    H148358   5.451   3.503  14.683 -0.2365 -1.1939 -1.7447
 8981TIP3    H248359   5.324   3.577  14.645  0.5207  0.7317 -0.6534
 8982TIP3   OH248360   1.724   0.746   5.264 -0.1612  0.4253 -0.4302
 8982TIP3    H148361   1.678   0.662   5.256 -1.8436  1.3960 -1.3403
 8982TIP3    H248362   1.703   0.776   5.352  0.3729 -0.0381 -0.1339
 8983TIP3   OH248363   1.060   4.065   3.020 -0.4231  0.2070  0.1891
 8983TIP3    H148364   1.140   4.110   3.046 -0.3931  0.7861 -0.8353
 8983TIP3    H248365   1.057   4.076   2.925 -1.4481 -0.2652  0.1586
 8984TIP3   OH248366   6.189   2.868   4.186 -0.2485  0.5262  0.1700
 8984TIP3    H148367   6.131   2.920   4.130 -0.6495 -0.5393 -0.4209
 8984TIP3    H248368   6.278   2.895   4.160 -0.4483  0.7143 -0.3292
 8985TIP3   OH248369   2.575   0.167  13.081  0.7085 -0.0285 -0.4752
 8985TIP3    H148370   2.580   0.255  13.119  0.9085 -0.3101  0.1699
 8985TIP3    H248371   2.640   0.116  13.130 -1.0705 -1.1511  0.8738
 8986TIP3   OH248372   3.312   3.680   2.995  0.3032 -0.2186 -0.3328
 8986TIP3    H148373   3.346   3.665   3.084  0.6033  0.5349 -0.3205
 8986TIP3    H248374   3.228   3.723   3.009  1.2772  1.8254 -0.4250
 8987TIP3   OH248375   2.786   6.698  11.863  0.2117 -0.1097  0.3460
 8987TIP3    H148376   2.861   6.743  11.824 -1.3819  0.3867 -2.3515
 8987TIP3    H248377   2.777   6.739  11.950  1.4979  1.6190 -0.2787
 8988TIP3   OH248378   4.439   5.253  13.618 -0.4492  0.0350 -0.1938
 8988TIP3    H148379   4.467   5.162  13.629 -0.2861  0.3044  2.1264
 8988TIP3    H248380   4.520   5.302  13.604 -0.0105  0.2803  2.5616
 8989TIP3   OH248381   0.062   5.647   1.494 -0.5657 -0.3831 -0.8124
 8989TIP3    H148382   0.051   5.554   1.474 -1.2484 -0.3581 -0.5613
 8989TIP3    H248383   0.157   5.660   1.493 -0.4959 -0.8914 -1.6998
 8990TIP3   OH248384   4.266   2.456   1.307  0.3571  0.3752 -0.0442
 8990TIP3    H148385   4.235   2.366   1.300 -0.3901  0.3837  2.3172
 8990TIP3    H248386   4.333   2.453   1.376 -0.3679  1.7785  0.7566
 8991TIP3   OH248387   6.516   2.473  14.254 -0.4901 -0.1093 -0.1398
 8991TIP3    H148388   6.587   2.413  14.231  0.4492  1.1483 -0.6526
 8991TIP3    H248389   6.476   2.434  14.332  0.3852 -1.1476 -0.1870
 8992TIP3   OH248390   4.540   5.288  15.326  0.5605 -0.3949  0.1189
 8992TIP3    H148391   4.579   5.348  15.389  1.8375 -1.0886  0.0338
 8992TIP3    H248392   4.526   5.340  15.248 -1.4332  0.5823  1.0602
 8993TIP3   OH248393   1.411   5.578  13.418 -0.2624  0.2656  0.2086
 8993TIP3    H148394   1.337   5.527  13.451  0.1524 -1.3086 -1.1453
 8993TIP3    H248395   1.372   5.636  13.352 -0.4461  0.2044  0.2624
 8994TIP3   OH248396   0.146   0.320  12.328 -0.7126 -0.2870  0.4721
 8994TIP3    H148397   0.072   0.340  12.271  0.1100 -0.4746 -0.6909
 8994TIP3    H248398   0.147   0.391  12.392 -1.7483 -0.1578  0.3524
 8995TIP3   OH248399   3.046   5.984  17.487  0.3379 -0.0204  0.3453
 8995TIP3    H148400   3.018   6.070  17.517 -0.2332  0.3402 -1.0957
 8995TIP3    H248401   2.984   5.962  17.417  0.8112 -1.3576  0.3063
 8996TIP3   OH248402   1.585   1.648  11.436 -0.4897 -0.0574 -0.3395
 8996TIP3    H148403   1.654   1.707  11.405 -0.1162  0.2848  1.0534
 8996TIP3    H248404   1.553   1.605  11.357  0.1786  1.0035 -1.2226
 8997TIP3   OH248405   1.903   4.368   3.533 -0.2668 -0.4642 -0.6250
 8997TIP3    H148406   1.946   4.335   3.454  1.3263 -0.5661  0.2337
 8997TIP3    H248407   1.975   4.400   3.588 -1.1412 -1.9349  1.5044
 8998TIP3   OH248408   5.498   5.549   2.350  0.0387  0.2231  0.1851
 8998TIP3    H148409   5.402   5.551   2.346  0.0857  1.9231 -1.9075
 8998TIP3    H248410   5.519   5.585   2.437 -1.1945 -0.1796  0.6706
 8999TIP3   OH248411   1.863   1.743  15.545 -0.2443  0.2894 -0.3981
 8999TIP3    H148412   1.937   1.741  15.605  0.1651 -2.1312 -0.8789
 8999TIP3    H248413   1.800   1.681  15.583 -1.7785  1.7878 -0.3533
 9000TIP3   OH248414   3.161   4.938  11.120 -0.3300 -0.2818  0.2387
 9000TIP3    H148415   3.130   4.936  11.029  0.2266 -0.7546  0.0491
 9000TIP3    H248416   3.103   5.000  11.164  0.8709  1.8188 -0.9784
 9001TIP3   OH248417   5.881   2.035   3.782 -0.1544 -0.0826  0.1526
 9001TIP3    H148418   5.879   2.062   3.874 -1.0229  1.9183 -0.3809
 9001TIP3    H248419   5.866   1.941   3.784 -0.1058 -0.0895  2.0625
 9002TIP3   OH248420   2.347   1.937   3.527 -0.1193 -0.3625  0.2933
 9002TIP3    H148421   2.256   1.927   3.554 -0.3240  1.1448  0.2148
 9002TIP3    H248422   2.363   1.861   3.470 -0.5312 -2.0428  2.2864
 9003TIP3   OH248423   6.150   2.095   5.669  0.5313 -0.2187 -0.4119
 9003TIP3    H148424   6.146   2.000   5.675 -3.2799 -0.2157 -0.1271
 9003TIP3    H248425   6.129   2.115   5.578  1.2822  0.3645 -0.4674
 9004TIP3   OH248426   5.650   0.285   6.295  0.1348  0.1236 -0.1764
 9004TIP3    H148427   5.701   0.363   6.316 -0.1120  0.6270 -1.3792
 9004TIP3    H248428   5.586   0.278   6.365  0.4818  0.7085  0.2092
 9005TIP3   OH248429   1.329   3.742  10.792  0.3068 -0.0626 -0.8176
 9005TIP3    H148430   1.399   3.680  10.814  1.2663  1.0289 -0.6680
 9005TIP3    H248431   1.249   3.701  10.823  1.2271  0.0151  1.9173
 9006TIP3   OH248432   3.908   6.414   6.084 -0.2057 -0.5283 -0.1757
 9006TIP3    H148433   3.912   6.458   6.168 -0.3182 -0.0173 -0.4361
 9006TIP3    H248434   3.819   6.429   6.052  0.0511 -0.1201 -0.7061
 9007TIP3   OH248435   3.921   2.245  16.204 -0.1830 -0.7374 -0.4061
 9007TIP3    H148436   3.940   2.243  16.110  2.1093 -1.2339  0.0127
 9007TIP3    H248437   3.907   2.154  16.227 -0.6115 -0.6286 -0.2343
 9008TIP3   OH248438   0.133   2.938   5.692 -0.5539 -0.3087 -0.2090
 9008TIP3    H148439   0.166   2.861   5.646 -0.0560 -1.3413  1.7645
 9008TIP3    H248440   0.212   2.986   5.718 -0.7895 -0.0681  0.0715
 9009TIP3   OH248441   2.563   2.879  13.188 -0.3947  0.0128 -0.6247
 9009TIP3    H148442   2.580   2.815  13.258  2.4254 -0.1993 -1.3906
 9009TIP3    H248443   2.541   2.960  13.235 -2.1142 -0.9639  0.3818
 9010TIP3   OH248444   2.856   3.606  11.331  0.9102 -0.4558  0.3850
 9010TIP3    H148445   2.912   3.650  11.266 -0.6627  0.4997 -0.3792
 9010TIP3    H248446   2.821   3.530  11.285  0.6018 -0.3513  0.4460
 9011TIP3   OH248447   1.429   5.088  13.722  0.3351  0.3075 -0.1012
 9011TIP3    H148448   1.396   5.177  13.727  0.6267  0.3931  0.2901
 9011TIP3    H248449   1.351   5.033  13.727  0.3236  0.4591  2.2636
 9012TIP3   OH248450   6.005   1.124  13.647 -0.2340  0.7166  0.0265
 9012TIP3    H148451   5.962   1.197  13.604  0.7130  1.5386  0.4240
 9012TIP3    H248452   6.097   1.151  13.653  0.3381 -0.9381 -0.7319
 9013TIP3   OH248453   5.177   3.546  13.437  0.1029 -0.3445 -0.8231
 9013TIP3    H148454   5.113   3.504  13.494 -1.9853  1.1160 -1.9439
 9013TIP3    H248455   5.255   3.557  13.492  0.2183 -4.0423 -0.0083
 9014TIP3   OH248456   1.444   5.103   1.797 -0.3750  0.2393  0.1410
 9014TIP3    H148457   1.528   5.064   1.772 -0.7836 -0.7330  0.2447
 9014TIP3    H248458   1.467   5.185   1.840  0.5170 -0.0073  0.1466
 9015TIP3   OH248459   3.494   0.949  14.074 -0.0991 -0.6667 -0.3016
 9015TIP3    H148460   3.443   0.984  14.001  0.1495 -0.7090 -0.4999
 9015TIP3    H248461   3.429   0.912  14.133 -0.4256  0.7316  0.2536
 9016TIP3   OH248462   1.711   4.725   4.376  0.4123 -0.6150  0.4069
 9016TIP3    H148463   1.675   4.713   4.288  2.7507  4.7436 -1.7680
 9016TIP3    H248464   1.786   4.665   4.380  1.4732  0.3780 -2.2394
 9017TIP3   OH248465   6.411   0.670  11.988  0.6525 -0.3719  0.7988
 9017TIP3    H148466   6.472   0.615  11.939 -0.0901 -0.5665  0.0781
 9017TIP3    H248467   6.362   0.718  11.921  1.5878  1.5486  1.3909
 9018TIP3   OH248468   2.964   5.330  14.450 -0.0568  0.3397 -0.5059
 9018TIP3    H148469   2.973   5.353  14.357  1.6589 -2.4991 -1.1463
 9018TIP3    H248470   3.041   5.369  14.492  0.5407 -0.5072 -0.7890
 9019TIP3   OH248471   4.759   6.336   3.666 -0.2535  0.7910 -0.7887
 9019TIP3    H148472   4.839   6.335   3.614 -0.4992  1.8757 -1.2086
 9019TIP3    H248473   4.741   6.243   3.684  2.0025  0.5919  0.7569
 9020TIP3   OH248474   0.292   2.360  12.729  0.7828  0.3711  0.5409
 9020TIP3    H148475   0.232   2.340  12.802  0.5293  0.0997  0.2601
 9020TIP3    H248476   0.299   2.278  12.681  1.1588  0.4817  0.4067
 9021TIP3   OH248477   2.140   3.739   0.366  0.4494  0.4193 -0.4115
 9021TIP3    H148478   2.150   3.773   0.455  2.2942  2.5242 -1.3344
 9021TIP3    H248479   2.140   3.644   0.377 -1.1480  0.6121  1.9575
 9022TIP3   OH248480   1.878   2.256  11.634 -0.0366  0.2670  0.1055
 9022TIP3    H148481   1.896   2.348  11.654 -0.6066  0.6908 -1.1482
 9022TIP3    H248482   1.951   2.229  11.578 -0.9018  0.6288 -1.2646
 9023TIP3   OH248483   0.868   5.892  14.462  0.8231  0.2216  0.0210
 9023TIP3    H148484   0.822   5.858  14.539  2.1792 -0.3975  0.5856
 9023TIP3    H248485   0.807   5.877  14.390 -0.0790 -0.0762  0.8149
 9024TIP3   OH248486   3.804   4.931  13.445 -0.0234 -0.4013  0.0411
 9024TIP3    H148487   3.827   4.839  13.456  2.6128  0.1739  0.0878
 9024TIP3    H248488   3.710   4.934  13.459  0.0157 -2.8749  1.4129
 9025TIP3   OH248489   2.525   0.256   0.015  0.1881 -0.4481  0.0272
 9025TIP3    H148490   2.469   0.245   0.092  2.5641 -0.6399  1.8528
 9025TIP3    H248491   2.541   0.351   0.010  0.3889 -0.4822  0.0248
 9026TIP3   OH248492   3.554   1.559   5.054 -0.1178 -0.4185  0.0200
 9026TIP3    H148493   3.523   1.506   5.127 -1.1787  0.4438  0.2284
 9026TIP3    H248494   3.582   1.496   4.988 -0.7617 -1.2300  0.5109
 9027TIP3   OH248495   2.380   0.770  10.907 -0.0558  0.0088  0.8406
 9027TIP3    H148496   2.350   0.740  10.993 -1.2797  3.8009  1.9481
 9027TIP3    H248497   2.369   0.865  10.910  1.3637  0.4650 -2.9981
 9028TIP3   OH248498   6.126   2.102   4.691  0.3823 -0.0234  0.2354
 9028TIP3    H148499   6.150   2.190   4.663  0.2538  0.2244  0.8742
 9028TIP3    H248500   6.082   2.115   4.775  0.3297 -0.6957  0.3193
 9029TIP3   OH248501   3.595   2.769   6.108  0.1323  0.3411  0.2094
 9029TIP3    H148502   3.643   2.842   6.149  0.8483 -0.1676  0.2902
 9029TIP3    H248503   3.637   2.691   6.143 -1.0983 -0.1363  0.6886
 9030TIP3   OH248504   5.989   1.391  17.262  0.2915  0.3879 -0.3291
 9030TIP3    H148505   6.072   1.433  17.239  0.3098  1.1186  0.9307
 9030TIP3    H248506   5.942   1.382  17.179 -0.3626  4.3917 -0.6061
 9031TIP3   OH248507   3.099   6.373   4.485  0.1427  0.2490 -0.3499
 9031TIP3    H148508   3.080   6.463   4.513  0.1405  0.4596 -0.9954
 9031TIP3    H248509   3.111   6.324   4.566 -0.3027  0.7366  0.0194
 9032TIP3   OH248510   3.383   3.285   3.225  0.4179 -0.1264 -0.2271
 9032TIP3    H148511   3.363   3.247   3.311  0.1593  1.0175  0.2355
 9032TIP3    H248512   3.335   3.230   3.163 -0.9670  0.1695  0.5363
 9033TIP3   OH248513   0.611   4.263   0.730  0.3168  0.3201  0.0668
 9033TIP3    H148514   0.538   4.210   0.697 -2.5789  2.3381  2.6802
 9033TIP3    H248515   0.625   4.232   0.819  1.0893  1.5134  0.3833
 9034TIP3   OH248516   0.579   2.652  16.154  0.5022  0.0520  0.0944
 9034TIP3    H148517   0.655   2.711  16.154 -0.5664  1.5060  0.0206
 9034TIP3    H248518   0.542   2.662  16.242 -0.7189  0.9426 -0.4819
 9035TIP3   OH248519   2.902   1.519   6.488  0.1275  0.1824 -0.1888
 9035TIP3    H148520   2.825   1.473   6.453  0.0326  0.2928 -0.1259
 9035TIP3    H248521   2.866   1.598   6.529  0.3170  0.4436 -0.5226
 9036TIP3   OH248522   2.740   4.003   4.589 -0.2112  0.3979 -0.0029
 9036TIP3    H148523   2.792   3.972   4.663 -1.6205 -0.0829  0.8118
 9036TIP3    H248524   2.653   4.018   4.625 -0.8986  0.2793 -1.5438
 9037TIP3   OH248525   2.324   3.281   5.421 -1.2982 -0.0426  0.0859
 9037TIP3    H148526   2.415   3.311   5.424 -0.8425 -0.7623 -3.2473
 9037TIP3    H248527   2.330   3.186   5.423 -1.8702 -0.1228 -1.0654
 9038TIP3   OH248528   6.669   4.582   1.296  0.3402 -0.6556 -0.1821
 9038TIP3    H148529   6.581   4.546   1.296 -0.2591  0.7604 -0.2530
 9038TIP3    H248530   6.687   4.602   1.388  1.4198 -2.7998  0.1463
 9039TIP3   OH248531   3.102   6.717   0.357 -0.3901  0.4473  0.2549
 9039TIP3    H148532   3.075   6.686   0.443 -0.3265 -1.0818 -0.2310
 9039TIP3    H248533   3.021   6.721   0.306 -0.4109  1.2120  0.3480
 9040TIP3   OH248534   0.355   2.163  15.849  0.1468 -0.4801  0.7386
 9040TIP3    H148535   0.383   2.173  15.758  0.7618  0.1860  0.9939
 9040TIP3    H248536   0.412   2.222  15.899  0.5600 -1.6335  1.6922
 9041TIP3   OH248537   5.488   1.362  13.049  0.8094 -0.0494  0.2433
 9041TIP3    H148538   5.546   1.331  13.119 -0.4489 -0.5097  1.1203
 9041TIP3    H248539   5.545   1.371  12.973  1.8929 -1.2380  0.8728
 9042TIP3   OH248540   5.538   2.685  13.092  0.0133 -0.1146  0.3349
 9042TIP3    H148541   5.557   2.610  13.148  1.9314 -1.1999 -1.5993
 9042TIP3    H248542   5.492   2.648  13.017 -2.2737  1.2649  0.9547
 9043TIP3   OH248543   6.377   5.696  14.287  0.0077  0.5009  0.4963
 9043TIP3    H148544   6.464   5.672  14.319  0.0829  0.4895  0.2826
 9043TIP3    H248545   6.334   5.613  14.270  0.7799  0.4809 -1.6459
 9044TIP3   OH248546   4.027   5.609   1.847  0.3593 -0.1797  0.7819
 9044TIP3    H148547   4.099   5.595   1.908  0.9066 -2.7220 -0.3217
 9044TIP3    H248548   4.015   5.525   1.803  0.8427  1.7152 -3.5020
 9045TIP3   OH248549   2.113   2.511   1.798 -0.1244 -1.1064 -0.4495
 9045TIP3    H148550   2.200   2.489   1.831  0.0821 -0.7661 -0.7464
 9045TIP3    H248551   2.070   2.427   1.784  0.2316 -1.2821 -0.4929
 9046TIP3   OH248552   4.958   0.631  14.134  0.6771  0.1097  0.5450
 9046TIP3    H148553   4.891   0.596  14.193  1.3692  0.0055  1.2867
 9046TIP3    H248554   5.019   0.677  14.191  1.5732 -0.3149 -0.0462
 9047TIP3   OH248555   1.931   5.648   4.987  0.2516 -0.0713  0.1277
 9047TIP3    H148556   1.998   5.582   4.967  1.3041  0.0804  2.7788
 9047TIP3    H248557   1.980   5.724   5.017 -1.0647  0.0239  2.2189
 9048TIP3   OH248558   4.944   1.733  15.512 -0.5139  0.2227  0.8235
 9048TIP3    H148559   4.912   1.810  15.560  0.8664  1.7163 -0.5645
 9048TIP3    H248560   4.979   1.675  15.580 -0.4840  1.3480  1.7902
 9049TIP3   OH248561   0.897   2.374  11.698  0.9262  0.4060  0.1652
 9049TIP3    H148562   0.916   2.395  11.607  0.4428 -1.3725 -0.3853
 9049TIP3    H248563   0.823   2.314  11.694  0.2698  1.0488  1.8038
 9050TIP3   OH248564   4.761   2.034   5.467 -0.5090  0.7884  0.7798
 9050TIP3    H148565   4.842   2.016   5.419 -0.6951  2.4518 -0.2220
 9050TIP3    H248566   4.769   1.983   5.547 -0.0174 -1.7907 -0.8034
 9051TIP3   OH248567   6.025   6.730   2.055 -0.7327 -0.1874 -0.4527
 9051TIP3    H148568   5.953   6.684   2.098 -0.5848 -2.0986 -2.0913
 9051TIP3    H248569   6.096   6.727   2.119 -2.1545  2.1664  1.3969
 9052TIP3   OH248570   0.171   4.388  15.728 -0.1824 -0.5665 -0.6363
 9052TIP3    H148571   0.207   4.441  15.657 -1.4892 -0.1558 -1.0149
 9052TIP3    H248572   0.211   4.301  15.716  2.2776  0.3643  0.2143
 9053TIP3   OH248573   5.451   5.884   5.861 -0.3746  0.2244  0.3334
 9053TIP3    H148574   5.490   5.866   5.946  2.3948 -2.4158 -1.2785
 9053TIP3    H248575   5.495   5.964   5.831  2.6616 -1.5893 -0.5793
 9054TIP3   OH248576   6.330   5.304   5.307 -0.9795  0.3502 -0.4166
 9054TIP3    H148577   6.388   5.242   5.262  1.9349  1.7542  1.1261
 9054TIP3    H248578   6.385   5.342   5.376 -4.5069 -0.0820  2.9748
 9055TIP3   OH248579   1.778   3.153   6.642  0.8891  0.4457  0.1208
 9055TIP3    H148580   1.791   3.060   6.663  0.3954  0.5745  1.0672
 9055TIP3    H248581   1.863   3.182   6.610  0.7031 -0.6507 -1.4799
 9056TIP3   OH248582   6.242   5.779   3.178 -0.0589 -0.4454 -0.1183
 9056TIP3    H148583   6.155   5.744   3.159 -0.3337 -0.0514  0.3824
 9056TIP3    H248584   6.234   5.873   3.163 -0.2465 -0.1318  1.7167
 9057TIP3   OH248585   3.592   2.941   1.257  0.4957  0.6703  0.6135
 9057TIP3    H148586   3.503   2.944   1.292 -0.8364 -0.1910 -2.3147
 9057TIP3    H248587   3.635   2.871   1.305 -0.8206  0.2801  1.2677
 9058TIP3   OH248588   3.344   4.297   2.656  0.0478 -0.3878 -0.6198
 9058TIP3    H148589   3.374   4.359   2.590  0.5153 -0.5748 -0.5921
 9058TIP3    H248590   3.424   4.271   2.702 -0.1683 -0.8553 -0.4981
 9059TIP3   OH248591   0.802   0.821  16.151 -0.2065 -0.5572 -0.0530
 9059TIP3    H148592   0.825   0.767  16.075 -1.1975  0.2215 -0.9276
 9059TIP3    H248593   0.745   0.765  16.204 -0.6861 -0.6099 -0.6171
 9060TIP3   OH248594   1.997   0.172   4.082 -0.2331 -0.0616 -0.3278
 9060TIP3    H148595   1.930   0.235   4.054 -0.1083  0.3280  0.2296
 9060TIP3    H248596   2.013   0.118   4.004 -0.3644  0.5732 -0.8071
 9061TIP3   OH248597   0.167   2.728   4.767  0.2547  0.5855 -0.2733
 9061TIP3    H148598   0.253   2.693   4.744  0.1573  0.5699 -0.6150
 9061TIP3    H248599   0.106   2.677   4.714  0.0710  0.9151 -0.3794
 9062TIP3   OH248600   5.432   0.703   2.890  0.3804 -0.9663 -0.1185
 9062TIP3    H148601   5.443   0.678   2.799  0.5520 -1.5761  0.0682
 9062TIP3    H248602   5.476   0.788   2.897  0.5004 -0.9910 -0.5639
 9063TIP3   OH248603   4.892   3.149  13.531 -0.2913  0.2022 -0.1691
 9063TIP3    H148604   4.797   3.140  13.539 -0.1502  0.0878  1.7778
 9063TIP3    H248605   4.911   3.120  13.442 -2.0338 -0.1075 -0.4813
 9064TIP3   OH248606   6.556   3.848  16.650 -0.3852 -0.6186  0.3088
 9064TIP3    H148607   6.472   3.822  16.689  0.8015 -3.7492  1.0321
 9064TIP3    H248608   6.610   3.873  16.725 -1.0121  2.9392 -0.2610
 9065TIP3   OH248609   2.393   2.063   4.129  0.2446  0.1906 -0.3434
 9065TIP3    H148610   2.393   2.154   4.160  1.2865  0.3692 -0.8151
 9065TIP3    H248611   2.343   2.015   4.195 -2.3268  1.4637 -1.2343
 9066TIP3   OH248612   3.996   5.844  13.843 -0.1319  0.4441 -0.2741
 9066TIP3    H148613   4.081   5.808  13.864 -0.7247 -0.3325  0.8871
 9066TIP3    H248614   3.934   5.793  13.895 -1.2474  1.4216 -0.5823
 9067TIP3   OH248615   3.394   5.133  11.682  0.7774 -0.6439 -0.7864
 9067TIP3    H148616   3.390   5.203  11.618 -2.2996  0.9803  0.9356
 9067TIP3    H248617   3.338   5.064  11.646 -0.0079 -0.2076 -0.4425
 9068TIP3   OH248618   4.527   5.270   6.422  0.3142 -0.3202 -0.7532
 9068TIP3    H148619   4.541   5.176   6.428  1.1355 -0.2336 -1.1128
 9068TIP3    H248620   4.521   5.300   6.513 -0.3460 -0.7677 -0.6467
 9069TIP3   OH248621   3.681   0.882  13.312  0.0608 -0.4458 -0.2133
 9069TIP3    H148622   3.667   0.874  13.218 -0.5263 -0.0969 -0.1609
 9069TIP3    H248623   3.733   0.805  13.336  0.9192 -0.1062 -0.9592
 9070TIP3   OH248624   6.511   2.567  11.376 -0.3045 -0.4322 -0.3857
 9070TIP3    H148625   6.470   2.553  11.291  1.2029 -1.4643 -0.9944
 9070TIP3    H248626   6.604   2.549  11.361  0.4092  1.7763  0.9284
 9071TIP3   OH248627   6.057   5.741  16.640  0.9822  0.0671 -1.1380
 9071TIP3    H148628   6.134   5.703  16.598  2.6106 -0.1322  1.7800
 9071TIP3    H248629   6.062   5.712  16.731 -2.3514  0.4171 -0.7172
 9072TIP3   OH248630   5.955   0.413  11.965  0.6612 -0.1849 -0.3286
 9072TIP3    H148631   5.953   0.474  11.891  1.0856  0.1564 -0.0629
 9072TIP3    H248632   5.868   0.421  12.005  1.2412  1.4666  0.6752
 9073TIP3   OH248633   5.654   0.339  10.679  0.2777 -0.4317 -0.1843
 9073TIP3    H148634   5.732   0.336  10.735  1.8900 -1.1857 -2.3418
 9073TIP3    H248635   5.582   0.361  10.739  2.5303  3.6867  1.4404
 9074TIP3   OH248636   1.016   1.543   2.858  0.3705  0.3638 -0.3827
 9074TIP3    H148637   0.948   1.506   2.802 -0.1310 -1.9685  1.6010
 9074TIP3    H248638   1.012   1.491   2.939  2.3740  2.2567  1.0557
 9075TIP3   OH248639   5.220   2.936   5.269  0.4445 -0.2498  0.5833
 9075TIP3    H148640   5.259   2.907   5.187 -1.8677  0.5286 -0.8798
 9075TIP3    H248641   5.291   2.981   5.315  1.5069  0.3512 -1.5322
 9076TIP3   OH248642   3.288   6.361  14.593  0.2095 -0.0981 -0.2139
 9076TIP3    H148643   3.348   6.364  14.519  0.0097  1.4642 -0.3383
 9076TIP3    H248644   3.222   6.428  14.574 -0.7327 -0.7429  0.6306
 9077TIP3   OH248645   5.430   3.535   1.228  0.1688  0.0478 -0.7000
 9077TIP3    H148646   5.419   3.450   1.185 -1.0751 -0.5846  0.7910
 9077TIP3    H248647   5.521   3.560   1.207  0.9346 -2.1439 -0.3051
 9078TIP3   OH248648   2.101   2.477  12.946 -0.3829 -0.2048 -0.2944
 9078TIP3    H148649   2.091   2.538  13.019 -0.8464  1.6435 -1.8322
 9078TIP3    H248650   2.178   2.425  12.970 -0.0846  0.8256  1.1796
 9079TIP3   OH248651   5.480   1.315   0.027  0.1504 -0.0069  0.3751
 9079TIP3    H148652   5.396   1.359   0.035 -0.4767 -1.3321  1.2436
 9079TIP3    H248653   5.504   1.326  -0.065 -0.7472  0.7544  0.2208
 9080TIP3   OH248654   0.573   2.946  14.141 -0.0742  0.5420 -0.0497
 9080TIP3    H148655   0.597   2.989  14.224  0.7377  1.0648 -0.5474
 9080TIP3    H248656   0.517   3.010  14.097  0.9652  1.0153 -0.6990
 9081TIP3   OH248657   0.777   2.097  17.466  0.1954 -0.3105 -0.0044
 9081TIP3    H148658   0.771   2.019  17.522 -1.1513  0.4711  1.0007
 9081TIP3    H248659   0.851   2.146  17.501 -0.3239 -0.0758  0.7918
 9082TIP3   OH248660   4.458   6.221   2.525 -0.1040  0.0811 -0.1213
 9082TIP3    H148661   4.382   6.279   2.534 -1.6895 -1.6316 -1.6754
 9082TIP3    H248662   4.460   6.172   2.607 -0.8013  0.0148 -0.1365
 9083TIP3   OH248663   0.680   1.381  11.081 -0.0607 -0.1884 -0.2694
 9083TIP3    H148664   0.759   1.415  11.123 -0.1743  0.6010 -0.6909
 9083TIP3    H248665   0.624   1.354  11.154  0.7786 -1.2054  0.0296
 9084TIP3   OH248666   4.032   1.716   6.127 -0.3227 -0.1480 -0.0747
 9084TIP3    H148667   3.975   1.766   6.185 -0.0697  0.1614 -0.0903
 9084TIP3    H248668   4.035   1.628   6.165 -1.1379 -0.2791 -0.2993
 9085TIP3   OH248669   3.125   4.496  16.299  0.3725 -0.7143  0.2417
 9085TIP3    H148670   3.124   4.490  16.203  1.8998 -0.9628  0.2137
 9085TIP3    H248671   3.036   4.472  16.326  0.1008 -1.2717 -1.0747
 9086TIP3   OH248672   4.899   0.732   1.999  0.3284  0.0707  0.0521
 9086TIP3    H148673   4.832   0.707   1.936 -1.8389  0.1256  2.1694
 9086TIP3    H248674   4.878   0.823   2.022  5.5162  2.9344 -4.3772
 9087TIP3   OH248675   0.674   3.260  12.848  0.5762 -0.3545 -0.2254
 9087TIP3    H148676   0.668   3.324  12.777 -1.3984 -0.1676  0.0525
 9087TIP3    H248677   0.705   3.311  12.923 -0.5755  0.2164 -0.1125
 9088TIP3   OH248678   0.845   2.738  14.150  0.0813  0.0904 -0.1328
 9088TIP3    H148679   0.863   2.818  14.100 -0.2565 -0.6042 -1.4058
 9088TIP3    H248680   0.843   2.669  14.084  1.4005 -1.1499  1.0571
 9089TIP3   OH248681   5.133   6.320  11.353 -0.0630 -0.3850  0.4146
 9089TIP3    H148682   5.191   6.397  11.356 -0.4935  0.0151 -1.0749
 9089TIP3    H248683   5.167   6.267  11.282 -0.5280 -0.9795  0.6291
 9090TIP3   OH248684   5.450   1.404   2.228 -0.3052 -0.0216  0.9434
 9090TIP3    H148685   5.449   1.495   2.258 -0.0611  0.6492 -0.8916
 9090TIP3    H248686   5.361   1.388   2.197  0.1715  0.3663 -0.7344
 9091TIP3   OH248687   2.091   5.279  12.321 -0.4468  0.2513  0.4771
 9091TIP3    H148688   2.091   5.304  12.228 -1.8408  1.2340  0.7125
 9091TIP3    H248689   2.100   5.184  12.320  4.1125  0.4544 -0.4876
 9092TIP3   OH248690   0.219   4.167  13.462  0.8466  0.0854 -0.5615
 9092TIP3    H148691   0.252   4.137  13.378 -0.0326 -0.6960 -0.6433
 9092TIP3    H248692   0.124   4.166  13.452  0.7233 -0.4319  0.5816
 9093TIP3   OH248693   3.438   3.383  15.799  0.3363 -0.4765  0.3621
 9093TIP3    H148694   3.413   3.318  15.734  2.2250 -0.9002  0.0094
 9093TIP3    H248695   3.420   3.467  15.757 -1.0423 -0.7324  0.3876
 9094TIP3   OH248696   3.502   4.225   3.655  0.3392 -0.0996 -0.3520
 9094TIP3    H148697   3.502   4.246   3.749 -1.2416  1.8500 -0.7180
 9094TIP3    H248698   3.539   4.303   3.613 -1.2736  0.0834 -1.5021
 9095TIP3   OH248699   0.900   5.076   2.403 -0.3880 -0.2271  0.1531
 9095TIP3    H148700   0.844   5.109   2.332 -1.5076 -2.1321  0.0737
 9095TIP3    H248701   0.924   4.988   2.375 -0.1666 -0.7031  1.7557
 9096TIP3   OH248702   2.832   2.075   3.705 -0.5007 -0.0723 -0.1108
 9096TIP3    H148703   2.800   2.162   3.682 -1.2296 -0.1450  0.5695
 9096TIP3    H248704   2.812   2.021   3.629 -0.1178  0.3339 -0.5066
 9097TIP3   OH248705   5.106   0.167   4.827 -0.3143  0.1154  0.5557
 9097TIP3    H148706   5.188   0.191   4.786 -1.4755 -0.1157 -2.0798
 9097TIP3    H248707   5.125   0.169   4.921  2.5559  0.4271  0.0583
 9098TIP3   OH248708   3.920   3.167  13.707  0.4484 -0.2190 -0.1150
 9098TIP3    H148709   3.934   3.198  13.617 -1.4134  0.2085 -0.2927
 9098TIP3    H248710   3.874   3.238  13.750 -0.6101 -1.2674  0.5510
 9099TIP3   OH248711   4.433   3.795   4.245 -0.1983  0.2452 -0.2647
 9099TIP3    H148712   4.464   3.879   4.211 -1.2509  0.3216 -1.0753
 9099TIP3    H248713   4.486   3.780   4.323  3.3269 -0.6038 -2.5734
 9100TIP3   OH248714   1.357   1.028   3.539 -0.4129  0.1735 -0.5743
 9100TIP3    H148715   1.308   1.093   3.589 -1.3345 -1.0617  0.2202
 9100TIP3    H248716   1.447   1.035   3.570 -0.7872  0.0885  0.5806
 9101TIP3   OH248717   0.832   6.662  11.666 -0.7211  0.8657  0.2357
 9101TIP3    H148718   0.875   6.736  11.708  0.1766  0.7183 -0.3967
 9101TIP3    H248719   0.740   6.669  11.693 -0.3003  1.1464  1.6624
 9102TIP3   OH248720   0.371   5.654  12.371 -0.0938 -0.1135 -0.5143
 9102TIP3    H148721   0.364   5.668  12.465  1.4716  0.0919 -0.3977
 9102TIP3    H248722   0.407   5.565  12.363  1.3958  0.4812 -0.8222
 9103TIP3   OH248723   4.414   0.388   3.424 -0.3200 -0.2321 -0.0913
 9103TIP3    H148724   4.507   0.372   3.435 -0.2109  1.3789  1.9508
 9103TIP3    H248725   4.371   0.308   3.453  0.3947 -0.5125  0.1951
 9104TIP3   OH248726   4.978   5.280  12.121 -0.5910 -0.0810  0.4289
 9104TIP3    H148727   4.969   5.264  12.215 -2.1733 -2.9057 -0.0913
 9104TIP3    H248728   4.968   5.194  12.081 -0.3349  1.0831 -2.3701
 9105TIP3   OH248729   4.190   6.262  14.351 -0.1412 -0.1853 -0.6112
 9105TIP3    H148730   4.154   6.206  14.281 -1.3574 -0.6008  0.3142
 9105TIP3    H248731   4.160   6.221  14.432  0.4303  0.8423  0.1406
 9106TIP3   OH248732   6.703   1.302   5.359  0.2505 -0.3335 -0.8252
 9106TIP3    H148733   6.735   1.223   5.401  0.3694 -0.6877 -1.5612
 9106TIP3    H248734   6.633   1.333   5.416 -0.9140 -1.8736 -1.3308
 9107TIP3   OH248735   5.801   4.017   4.894  0.5302 -0.2392  0.3005
 9107TIP3    H148736   5.746   4.043   4.968  1.1046  1.2848  0.2377
 9107TIP3    H248737   5.849   4.097   4.870  0.0079 -0.5366 -2.0323
 9108TIP3   OH248738   2.315   5.125   2.475  0.0734  0.3448 -0.2477
 9108TIP3    H148739   2.399   5.084   2.454  0.0965  0.0073  0.4843
 9108TIP3    H248740   2.252   5.053   2.475 -0.8065  0.9176 -3.5434
 9109TIP3   OH248741   6.711   5.056   1.814 -0.2331 -0.6564  0.2536
 9109TIP3    H148742   6.718   4.982   1.875 -0.6934  0.1737  1.3467
 9109TIP3    H248743   6.666   5.124   1.864 -2.1084 -0.4947 -1.5169
 9110TIP3   OH248744   6.155   1.049   5.838  0.2992  0.2794  0.1750
 9110TIP3    H148745   6.159   1.097   5.755  3.1900  2.5865  1.4716
 9110TIP3    H248746   6.129   0.960   5.813 -0.8918  1.3553 -2.9023
 9111TIP3   OH248747   0.635   0.033  13.152  0.1692  0.5514  0.3232
 9111TIP3    H148748   0.605  -0.006  13.235 -0.0868  0.8219  0.3611
 9111TIP3    H248749   0.691   0.105  13.179  3.2579 -1.6441  0.2795
 9112TIP3   OH248750   2.102   0.374   0.304 -0.3131  0.2069 -0.3895
 9112TIP3    H148751   2.130   0.465   0.293  1.7178 -0.3331 -0.0947
 9112TIP3    H248752   2.055   0.374   0.387  1.7813  0.6013  0.8772
 9113TIP3   OH248753   5.575   4.576   3.238 -0.2884  0.5011 -0.2156
 9113TIP3    H148754   5.535   4.653   3.198 -0.8987  0.7126  0.7813
 9113TIP3    H248755   5.651   4.610   3.286  0.6214  0.2098 -1.3899
 9114TIP3   OH248756   1.305   3.219  16.595 -0.3767 -0.7717  0.0088
 9114TIP3    H148757   1.349   3.191  16.515 -1.1163  0.3976 -0.8308
 9114TIP3    H248758   1.373   3.218  16.662  0.5792 -0.4357 -0.9425
 9115TIP3   OH248759   4.810   0.838   4.592 -0.4262 -0.3904 -0.3109
 9115TIP3    H148760   4.730   0.884   4.618  0.7076  2.4099 -1.3470
 9115TIP3    H248761   4.784   0.785   4.517 -1.2412  1.1133 -1.1564
 9116TIP3   OH248762   4.489   3.520   1.692  0.1787 -0.0870 -1.3750
 9116TIP3    H148763   4.493   3.612   1.665  0.6990  1.1304  2.3156
 9116TIP3    H248764   4.414   3.515   1.750  2.0811 -1.0576  1.1964
 9117TIP3   OH248765   1.821   2.627  14.633  0.5279 -0.2894  0.0903
 9117TIP3    H148766   1.837   2.676  14.714 -1.5014  0.8267 -0.1110
 9117TIP3    H248767   1.870   2.674  14.566  0.2136  0.2662  0.2497
 9118TIP3   OH248768   1.537   1.068   3.768 -0.0855 -0.6840  0.3195
 9118TIP3    H148769   1.532   1.131   3.839  1.4778 -0.6524  0.4173
 9118TIP3    H248770   1.630   1.051   3.756 -0.2659 -0.4029 -1.9819
 9119TIP3   OH248771   2.628   1.570   2.622  0.0055  0.1723  0.7567
 9119TIP3    H148772   2.684   1.575   2.700  0.1422 -1.7945  0.8558
 9119TIP3    H248773   2.651   1.485   2.583 -0.0229  1.1453 -1.4719
 9120TIP3   OH248774   1.310   1.383  12.372  0.0671 -0.4285  0.1552
 9120TIP3    H148775   1.291   1.432  12.293  1.4163 -1.4007 -0.8140
 9120TIP3    H248776   1.230   1.332  12.388  0.3247 -1.4084 -1.5009
 9121TIP3   OH248777   1.578   5.327  11.084 -0.3166 -0.2437  0.4595
 9121TIP3    H148778   1.503   5.360  11.034 -1.1553 -1.3822  0.9404
 9121TIP3    H248779   1.639   5.295  11.018 -2.5418 -4.2360  0.0833
 9122TIP3   OH248780   5.607   2.881   5.582 -0.1015 -0.1344 -0.0725
 9122TIP3    H148781   5.649   2.938   5.647 -1.8289 -1.1286  2.0444
 9122TIP3    H248782   5.597   2.797   5.627 -0.5107 -1.1778 -2.0017
 9123TIP3   OH248783   3.079   2.051  14.942  0.3839  0.2435 -0.4731
 9123TIP3    H148784   3.038   2.050  15.028  1.6444  0.9450  0.1559
 9123TIP3    H248785   3.170   2.076  14.958  1.2791 -1.9229 -1.7533
 9124TIP3   OH248786   4.046   4.498   1.989  0.0927  1.0562  0.7900
 9124TIP3    H148787   4.016   4.410   1.967  2.6328 -0.2618  2.1240
 9124TIP3    H248788   3.971   4.555   1.969 -1.7166 -1.3879  0.1096
 9125TIP3   OH248789   4.686   4.530  11.947 -0.2502 -0.5761  0.2616
 9125TIP3    H148790   4.612   4.540  12.007 -1.6061  3.0445 -1.7322
 9125TIP3    H248791   4.743   4.603  11.967  0.7531 -1.0078 -0.9058
 9126TIP3   OH248792   6.666   2.621  16.229  0.2232  0.1125 -0.1730
 9126TIP3    H148793   6.596   2.672  16.268  0.1528 -0.2985  0.2513
 9126TIP3    H248794   6.622   2.545  16.190  0.3013  0.4699 -0.9870
 9127TIP3   OH248795   6.402   3.414   3.157 -0.1824 -0.4710  0.5875
 9127TIP3    H148796   6.329   3.466   3.192  0.8498  2.0774 -0.7245
 9127TIP3    H248797   6.415   3.450   3.069  2.1909 -1.3487  0.5286
 9128TIP3   OH248798   2.418   0.729   2.390 -0.3840 -0.1606 -0.4368
 9128TIP3    H148799   2.386   0.640   2.377 -1.0307  0.2352 -1.7265
 9128TIP3    H248800   2.370   0.761   2.466  1.9294 -1.8290  1.9323
 9129TIP3   OH248801   6.496   2.937   0.650  0.4627  0.9277  0.2327
 9129TIP3    H148802   6.431   2.999   0.682  1.6060  0.6781  3.3556
 9129TIP3    H248803   6.567   2.942   0.714  3.3858  0.8607 -2.7335
 9130TIP3   OH248804   4.417   6.034  16.487 -0.4940  0.5300  0.3129
 9130TIP3    H148805   4.493   6.087  16.512  0.2836  0.6184 -1.9968
 9130TIP3    H248806   4.380   6.005  16.570  1.7308  0.9644  1.5444
 9131TIP3   OH248807   3.370   5.755  11.541  0.0604  1.0083  0.5747
 9131TIP3    H148808   3.416   5.705  11.473 -4.1992 -2.8443  0.0299
 9131TIP3    H248809   3.412   5.729  11.623  0.3928 -0.5290 -0.0474
 9132TIP3   OH248810   3.703   4.397  16.262  0.1563 -0.3547 -0.0262
 9132TIP3    H148811   3.628   4.372  16.315 -0.9715  1.1602 -0.8092
 9132TIP3    H248812   3.731   4.481  16.298 -0.6727  0.7330 -1.7816
 9133TIP3   OH248813   1.859   0.269  15.384 -0.0091 -0.5589  0.2192
 9133TIP3    H148814   1.816   0.227  15.310  1.1146 -1.3344 -0.0300
 9133TIP3    H248815   1.815   0.233  15.461  1.3767 -2.8418  0.0432
 9134TIP3   OH248816   0.560   6.116  12.464 -0.2205 -0.1996 -0.4150
 9134TIP3    H148817   0.579   6.164  12.384 -0.9802 -0.0174 -0.4923
 9134TIP3    H248818   0.613   6.037  12.458 -0.1650 -0.1175 -1.0264
 9135TIP3   OH248819   0.988   3.191  12.856 -0.1433 -0.8136  0.0562
 9135TIP3    H148820   1.047   3.216  12.784  0.5812 -2.2753  0.1079
 9135TIP3    H248821   0.921   3.137  12.815  0.9860 -2.7150  0.6346
 9136TIP3   OH248822   2.082   1.444  17.021 -0.2003 -0.0371  0.4775
 9136TIP3    H148823   2.047   1.521  17.066 -0.3811 -0.1640  0.5516
 9136TIP3    H248824   2.177   1.457  17.024 -0.1990 -0.1729  1.1245
 9137TIP3   OH248825   6.201   5.462  10.825 -0.5509 -0.2364 -0.1619
 9137TIP3    H148826   6.183   5.555  10.840  0.1222 -0.4084  2.0997
 9137TIP3    H248827   6.265   5.461  10.754 -0.2410  1.0563  0.0784
 9138TIP3   OH248828   0.633   0.667  17.380  0.2168  0.1539 -0.1725
 9138TIP3    H148829   0.551   0.683  17.332  1.4402  3.2894 -1.5496
 9138TIP3    H248830   0.605   0.637  17.466 -2.3296  0.0172 -0.9499
 9139TIP3   OH248831   4.656   3.723   6.440  0.0180 -0.3114 -0.0616
 9139TIP3    H148832   4.596   3.786   6.479 -0.3433 -1.0437  0.5984
 9139TIP3    H248833   4.678   3.663   6.512  2.2051  0.4011 -0.0508
 9140TIP3   OH248834   2.238   5.224   4.341 -0.2346  0.4417  0.0988
 9140TIP3    H148835   2.305   5.290   4.327  1.4681 -0.8953  1.4180
 9140TIP3    H248836   2.200   5.246   4.426 -0.2814  0.2352  0.1328
 9141TIP3   OH248837   2.051   0.120   1.950 -0.0658  0.3867 -0.5022
 9141TIP3    H148838   2.055   0.027   1.927 -2.0642  0.1637 -0.1165
 9141TIP3    H248839   2.125   0.134   2.010 -1.0058 -1.4764  1.1837
 9142TIP3   OH248840   4.291   2.619   2.468  0.7582  0.0661  0.3178
 9142TIP3    H148841   4.293   2.525   2.484  4.1840  0.1108  0.7827
 9142TIP3    H248842   4.340   2.657   2.541  0.5315  2.0957 -0.5164
 9143TIP3   OH248843   5.490   1.807  12.592 -0.0547  0.1417 -0.3307
 9143TIP3    H148844   5.490   1.859  12.672  1.2467 -0.4586  0.0824
 9143TIP3    H248845   5.546   1.732  12.612 -0.0128 -0.2088 -1.6791
 9144TIP3   OH248846   6.012   3.090   5.162  0.3165  0.5917  0.1288
 9144TIP3    H148847   5.988   3.115   5.251  1.6351  0.9899  0.3901
 9144TIP3    H248848   5.943   3.029   5.135 -0.2069  0.6196  1.3355
 9145TIP3   OH248849   4.026   4.859  15.841 -0.2701 -0.6584  0.2348
 9145TIP3    H148850   4.017   4.794  15.772  1.0125 -0.9645  0.3321
 9145TIP3    H248851   4.103   4.910  15.816 -0.6013  0.1075  0.7386
 9146TIP3   OH248852   3.366   6.184   2.486  0.2727  0.6809 -0.1323
 9146TIP3    H148853   3.458   6.176   2.462 -0.0537 -0.8267 -1.0419
 9146TIP3    H248854   3.319   6.187   2.402 -0.4537  2.9911  0.2789
 9147TIP3   OH248855   2.534   2.676  11.731  0.5228  0.1028  0.0544
 9147TIP3    H148856   2.511   2.686  11.823 -0.3736  1.7497 -0.3059
 9147TIP3    H248857   2.586   2.754  11.710  0.0646  0.1503 -0.9969
 9148TIP3   OH248858   3.915   2.739  13.859 -0.1184  0.1165 -0.1732
 9148TIP3    H148859   3.926   2.653  13.818 -0.1802 -0.3380  0.7366
 9148TIP3    H248860   4.003   2.775  13.863  0.6508 -1.7136  3.2347
 9149TIP3   OH248861   5.243   6.115   4.832  0.3409  0.3254  0.1033
 9149TIP3    H148862   5.161   6.162   4.818 -1.1562 -1.9161  0.6704
 9149TIP3    H248863   5.266   6.135   4.923  0.0599  0.4539  0.1501
 9150TIP3   OH248864   2.536   2.816   3.681 -0.3070  0.8475 -0.5509
 9150TIP3    H148865   2.501   2.901   3.707 -1.6661  0.2935 -0.4640
 9150TIP3    H248866   2.465   2.775   3.632 -0.1886 -0.7797  0.5515
 9151TIP3   OH248867   1.618   3.234   1.637 -0.3053 -0.3489 -0.3715
 9151TIP3    H148868   1.548   3.208   1.698 -0.6357  0.7187 -0.2827
 9151TIP3    H248869   1.663   3.305   1.682 -0.8332  0.7600 -1.5699
 9152TIP3   OH248870   6.614   2.908  12.758  0.5689  0.1868  0.1061
 9152TIP3    H148871   6.593   2.832  12.704  1.9867 -0.0920 -0.0838
 9152TIP3    H248872   6.597   2.983  12.701  1.6666 -0.0926 -0.6165
 9153TIP3   OH248873   2.593   3.120   0.398 -0.6583 -0.1987  0.2226
 9153TIP3    H148874   2.602   3.187   0.331 -0.8675  0.1280  0.5132
 9153TIP3    H248875   2.548   3.165   0.470  0.1089 -0.3750  0.8208
 9154TIP3   OH248876   3.450   1.831   0.344  0.1515 -0.6036  0.0141
 9154TIP3    H148877   3.436   1.859   0.254 -0.1091 -2.0694 -0.4226
 9154TIP3    H248878   3.388   1.883   0.395  1.2096  1.2019 -0.4451
 9155TIP3   OH248879   4.619   3.419  13.751  0.0590 -0.2322  0.7914
 9155TIP3    H148880   4.703   3.416  13.705 -0.1362  1.6000  0.2338
 9155TIP3    H248881   4.640   3.395  13.841  1.2204  0.3429  0.6939
 9156TIP3   OH248882   2.003   1.065  14.986  0.5446  0.5843 -0.1641
 9156TIP3    H148883   1.955   0.988  15.018 -0.8587  1.1763 -0.7341
 9156TIP3    H248884   1.995   1.129  15.057  0.6167  0.6276 -0.1962
 9157TIP3   OH248885   2.497   2.819   2.914 -0.1704  0.7575  0.3408
 9157TIP3    H148886   2.589   2.829   2.893  0.1756  1.4058  1.9788
 9157TIP3    H248887   2.477   2.728   2.893  1.7239 -0.3705  2.9106
 9158TIP3   OH248888   1.040   4.604  15.712  0.7503 -0.8009  0.1019
 9158TIP3    H148889   0.955   4.639  15.685 -0.3714 -0.5826  3.4033
 9158TIP3    H248890   1.046   4.518  15.671  0.2145  0.2612 -2.3285
 9159TIP3   OH248891   2.496   5.617  14.118 -0.3680 -0.3323  1.0204
 9159TIP3    H148892   2.484   5.643  14.210 -4.3550  0.4955  0.4712
 9159TIP3    H248893   2.449   5.534  14.111  1.0138 -1.0630 -0.0717
 9160TIP3   OH248894   5.187   3.664  12.846  0.7551 -0.4498  0.1114
 9160TIP3    H148895   5.196   3.742  12.901  0.2041 -0.6814  0.5359
 9160TIP3    H248896   5.145   3.696  12.766 -0.7100 -0.5190  0.8154
 9161TIP3   OH248897   3.996   2.071  16.520  0.5195  0.4755  0.0391
 9161TIP3    H148898   4.089   2.051  16.508  0.1075 -1.6973  0.0811
 9161TIP3    H248899   3.951   1.993  16.489 -1.3980  2.0750 -1.4257
 9162TIP3   OH248900   4.639   4.643  12.266  0.2335 -0.2687 -0.0470
 9162TIP3    H148901   4.597   4.644  12.352  0.7156 -1.3687  0.2154
 9162TIP3    H248902   4.570   4.612  12.207  0.1540 -0.3584  0.0907
 9163TIP3   OH248903   3.350   4.518   4.822 -0.0863  0.1347 -0.5104
 9163TIP3    H148904   3.421   4.556   4.875 -0.8276  1.4290 -0.4114
 9163TIP3    H248905   3.396   4.469   4.753  0.9382  1.7467 -1.0282
 9164TIP3   OH248906   5.092   2.393   4.622 -0.2644 -0.0533 -0.0325
 9164TIP3    H148907   5.181   2.377   4.654 -1.1486 -1.2311  2.0462
 9164TIP3    H248908   5.063   2.308   4.588 -0.7030  0.2457 -0.4203
 9165TIP3   OH248909   3.768   5.478  14.510 -1.2557 -0.1778  0.2596
 9165TIP3    H148910   3.687   5.501  14.465 -0.6065 -1.0345 -1.4699
 9165TIP3    H248911   3.798   5.399  14.465  0.7293  0.3307  0.5952
 9166TIP3   OH248912   1.053   5.101  13.919 -0.1402 -0.0026  0.1094
 9166TIP3    H148913   1.041   5.026  13.861  0.5003  0.3906 -0.5483
 9166TIP3    H248914   1.024   5.176  13.866 -2.0334  0.1107  1.1958
 9167TIP3   OH248915   1.179   5.839   0.020  0.4877 -0.3718  0.4988
 9167TIP3    H148916   1.265   5.865  -0.011  0.0078  0.9842  0.2108
 9167TIP3    H248917   1.140   5.790  -0.052  0.9290 -0.7861  0.5417
 9168TIP3   OH248918   1.346   0.409  11.735  0.0214 -0.3468 -0.1046
 9168TIP3    H148919   1.415   0.455  11.783 -0.3614  0.9034 -0.7173
 9168TIP3    H248920   1.286   0.478  11.706 -0.7133 -1.2587 -0.8359
 9169TIP3   OH248921   1.432   0.414   0.254 -0.6029  0.4859 -0.6007
 9169TIP3    H148922   1.340   0.428   0.273 -0.3306 -0.6546  2.0801
 9169TIP3    H248923   1.433   0.359   0.175 -2.2835 -0.4933  0.0200
 9170TIP3   OH248924   0.392   1.228   3.901  0.0695  0.0221  0.0230
 9170TIP3    H148925   0.297   1.225   3.909  0.0898  1.9002  1.4976
 9170TIP3    H248926   0.408   1.259   3.811 -0.8850  4.0116  1.0576
 9171TIP3   OH248927   4.533   4.985   6.399 -0.1711 -0.2395  0.3237
 9171TIP3    H148928   4.576   4.901   6.385 -1.2112 -0.6314 -0.6987
 9171TIP3    H248929   4.444   4.962   6.424 -0.6456  0.5474 -0.5941
 9172TIP3   OH248930   3.888   3.270  15.938  0.7133  0.2119 -0.4373
 9172TIP3    H148931   3.838   3.231  15.866 -0.5500  2.1448 -0.7011
 9172TIP3    H248932   3.922   3.352  15.900  0.0477  1.2547  1.1171
 9173TIP3   OH248933   1.274   4.141  12.549  0.6857 -0.1847 -0.2101
 9173TIP3    H148934   1.189   4.151  12.507  2.0331 -0.0326 -3.1542
 9173TIP3    H248935   1.336   4.134  12.476  3.0478 -1.7975  1.7958
 9174TIP3   OH248936   1.476   3.153  15.364  0.0344  0.5033 -0.2246
 9174TIP3    H148937   1.505   3.092  15.431  1.3914  1.7543  0.4006
 9174TIP3    H248938   1.382   3.164  15.379  0.5393  1.8815  2.4929
 9175TIP3   OH248939   3.749   1.276  14.692  0.3970 -0.5180  0.3473
 9175TIP3    H148940   3.655   1.279  14.711  0.6062  1.4868  1.3306
 9175TIP3    H248941   3.759   1.327  14.612  0.7636  0.3604  0.9368
 9176TIP3   OH248942   4.860   2.564   4.605  0.4886 -0.1567 -0.8611
 9176TIP3    H148943   4.913   2.492   4.572  2.0538  0.7399 -0.4163
 9176TIP3    H248944   4.810   2.594   4.530 -0.8147 -2.1897 -0.8674
 9177TIP3   OH248945   4.811   6.293   0.094 -0.1485  0.1362 -0.1853
 9177TIP3    H148946   4.841   6.279   0.184  1.7294  1.0878 -0.6174
 9177TIP3    H248947   4.724   6.253   0.092 -0.3091  0.2016  2.0876
 9178TIP3   OH248948   2.598   5.543  17.056 -0.1752  0.0802 -0.0665
 9178TIP3    H148949   2.670   5.501  17.103  0.2993 -1.4233 -2.0193
 9178TIP3    H248950   2.543   5.579  17.125  0.8279 -1.4411  1.6245
 9179TIP3   OH248951   3.023   3.363   0.153 -0.0612 -0.4065  0.5099
 9179TIP3    H148952   3.067   3.296   0.100 -1.3203 -1.2978  0.5398
 9179TIP3    H248953   2.933   3.364   0.120 -1.0250 -1.3229  2.8973
 9180TIP3   OH248954   4.421   6.691   5.631  0.4734  0.7510 -0.1553
 9180TIP3    H148955   4.388   6.659   5.715  3.2665  1.0072  1.1606
 9180TIP3    H248956   4.398   6.622   5.568 -2.3408  0.9032  0.5791
 9181TIP3   OH248957   0.506   2.991  14.511 -0.3750 -1.1614 -0.3122
 9181TIP3    H148958   0.444   3.022  14.577 -0.4848  0.3434 -1.0642
 9181TIP3    H248959   0.458   2.925  14.461 -0.7083 -1.3934  0.3038
 9182TIP3   OH248960   3.996   5.851  15.079 -0.4582  0.1282 -0.0087
 9182TIP3    H148961   3.967   5.777  15.132 -0.3128 -0.4948 -0.7847
 9182TIP3    H248962   4.081   5.875  15.117  0.9339 -2.0258 -1.5597
 9183TIP3   OH248963   1.029   4.927  14.599  0.2808 -0.0424 -0.1401
 9183TIP3    H148964   1.062   4.858  14.542  0.1716 -1.2641  1.2083
 9183TIP3    H248965   0.961   4.885  14.652  1.4001  0.5958  1.9367
 9184TIP3   OH248966   0.677   4.366   4.035  0.1920  0.4074  0.6041
 9184TIP3    H148967   0.706   4.278   4.012 -1.9587 -0.3029  0.3281
 9184TIP3    H248968   0.634   4.398   3.955 -2.9399 -0.0952  1.9445
 9185TIP3   OH248969   1.829   4.510   0.326  0.5852 -0.0943 -0.1471
 9185TIP3    H148970   1.742   4.481   0.350  0.0238  1.0428 -0.7413
 9185TIP3    H248971   1.875   4.521   0.410 -0.0637 -0.0322  0.2038
 9186TIP3   OH248972   0.932   3.836   2.461  0.1622 -0.6058 -0.5111
 9186TIP3    H148973   0.859   3.874   2.509  1.4507 -1.3507  2.3233
 9186TIP3    H248974   1.000   3.904   2.461  0.4099 -0.8479 -0.6809
 9187TIP3   OH248975   4.524   4.675  11.734 -0.8641 -0.3725 -0.1378
 9187TIP3    H148976   4.496   4.613  11.666 -2.1691 -0.8907  0.8402
 9187TIP3    H248977   4.591   4.628  11.783  0.6813  0.2981 -1.5208
 9188TIP3   OH248978   2.853   4.360  12.499 -0.0256  0.1857 -0.5609
 9188TIP3    H148979   2.780   4.419  12.519  0.3295 -0.1957  2.2069
 9188TIP3    H248980   2.871   4.376  12.406 -2.2629  1.7853 -0.8162
 9189TIP3   OH248981   5.062   2.288   0.761  0.0552 -0.1350  0.4298
 9189TIP3    H148982   4.986   2.270   0.817  0.5125 -0.0851  1.0760
 9189TIP3    H248983   5.134   2.240   0.803  0.7619  1.2294  0.8249
 9190TIP3   OH248984   3.648   3.144  14.901 -0.0404 -0.5330  0.3731
 9190TIP3    H148985   3.708   3.080  14.864 -0.6787 -0.8601 -0.1275
 9190TIP3    H248986   3.702   3.197  14.959  1.2260  0.5750 -1.6896
 9191TIP3   OH248987   1.401   0.447   0.641  0.5922 -0.2251 -0.1101
 9191TIP3    H148988   1.465   0.394   0.594  0.7987 -0.3799  0.3425
 9191TIP3    H248989   1.366   0.388   0.708 -0.0097 -0.1371 -0.3337
 9192TIP3   OH248990   3.281   3.760   0.565 -0.5453  0.7849 -0.4888
 9192TIP3    H148991   3.199   3.712   0.580 -0.6691  0.9909 -0.4980
 9192TIP3    H248992   3.252   3.849   0.544 -0.4136  0.3901 -2.5655
 9193TIP3   OH248993   5.017   3.002   0.728  0.3032 -0.2091  0.4159
 9193TIP3    H148994   4.972   3.008   0.644  1.8138  1.0358 -0.3805
 9193TIP3    H248995   4.964   2.943   0.780 -1.7443  0.5179 -0.7349
 9194TIP3   OH248996   0.236   1.447  14.335  0.3137 -0.0029  0.0308
 9194TIP3    H148997   0.187   1.417  14.411 -2.1280 -2.5575 -2.3131
 9194TIP3    H248998   0.297   1.375  14.316  3.1051  1.8814  1.1733
 9195TIP3   OH248999   3.525   4.124  17.182 -0.0423  0.0481  0.1362
 9195TIP3    H149000   3.484   4.141  17.097 -0.5134 -0.0892  0.3335
 9195TIP3    H249001   3.491   4.193  17.239 -1.1398 -0.8910  0.6686
 9196TIP3   OH249002   6.188   1.194   3.109 -0.4694  0.4928 -0.0401
 9196TIP3    H149003   6.118   1.197   3.044 -0.4507  2.7221 -0.0220
 9196TIP3    H249004   6.171   1.113   3.158 -2.7168  0.6966 -0.3810
 9197TIP3   OH249005   5.781   6.291  11.650 -0.0734  0.2928 -0.1224
 9197TIP3    H149006   5.733   6.218  11.611  2.8394 -1.4519 -0.7060
 9197TIP3    H249007   5.760   6.366  11.593 -0.7312 -0.7813 -1.3498
 9198TIP3   OH249008   0.577   0.127  17.266  0.3979 -0.6833  0.1642
 9198TIP3    H149009   0.504   0.113  17.206  0.2525  1.3214 -0.2146
 9198TIP3    H249010   0.647   0.070  17.234 -0.6900 -1.9366 -0.0208
 9199TIP3   OH249011   4.466   6.268   1.904  0.3687 -0.5550  0.5154
 9199TIP3    H149012   4.417   6.349   1.888  0.2309 -0.5296  1.0694
 9199TIP3    H249013   4.426   6.205   1.844  0.2679 -0.2970  0.3065
 9200TIP3   OH249014   4.998   1.260   5.181  0.3791 -0.2784 -0.0369
 9200TIP3    H149015   5.051   1.286   5.106 -0.3142  0.3164 -0.3225
 9200TIP3    H249016   5.038   1.304   5.256 -0.3823  1.1149 -0.4187
 9201TIP3   OH249017   5.458   0.596   6.184  0.0020 -0.1468  0.5551
 9201TIP3    H149018   5.548   0.584   6.214  0.8325  0.0715 -1.7126
 9201TIP3    H249019   5.417   0.649   6.252  2.0225  1.0731  0.9020
 9202TIP3   OH249020   0.834   0.873   0.012 -0.6772 -0.0434  0.5243
 9202TIP3    H149021   0.859   0.804   0.073 -2.6956  0.0603  1.5415
 9202TIP3    H249022   0.782   0.828  -0.055  0.6351  0.0211 -0.5948
 9203TIP3   OH249023   0.006   4.167   2.622 -0.0530  0.3068  0.6954
 9203TIP3    H149024  -0.035   4.128   2.699 -1.7009  0.5753 -0.0197
 9203TIP3    H249025  -0.067   4.198   2.568  1.0817  0.7321 -0.6627
 9204TIP3   OH249026   2.087   5.261   2.918  0.2097 -0.1573 -0.1681
 9204TIP3    H149027   2.017   5.302   2.867 -0.8846 -1.7327  0.0147
 9204TIP3    H249028   2.137   5.210   2.854  1.9120  1.7688 -0.4978
 9205TIP3   OH249029   4.805   5.866  12.907  0.3327 -0.4036 -0.2243
 9205TIP3    H149030   4.753   5.819  12.843 -0.0783  0.9539 -0.9195
 9205TIP3    H249031   4.761   5.849  12.991  0.5496 -1.7239 -0.3643
 9206TIP3   OH249032   5.902   4.891  16.979  0.0083 -0.1859 -0.6420
 9206TIP3    H149033   5.985   4.853  17.008  0.0316 -0.4756 -1.0683
 9206TIP3    H249034   5.899   4.978  17.017  0.8820  0.1338 -1.2805
 9207TIP3   OH249035   6.015   1.719   2.681  0.1264  0.1564 -0.2827
 9207TIP3    H149036   6.091   1.700   2.736  0.5590  0.9182 -0.6093
 9207TIP3    H249037   5.942   1.729   2.743 -0.4719 -3.7382 -0.1041
 9208TIP3   OH249038   5.544   4.013   3.713 -0.0541 -0.2375 -0.3032
 9208TIP3    H149039   5.561   3.925   3.748 -1.3645 -1.5093 -2.5965
 9208TIP3    H249040   5.583   4.012   3.626 -2.8985  0.2125 -1.7158
 9209TIP3   OH249041   5.573   0.329   6.780  0.1363 -0.2760  0.2442
 9209TIP3    H149042   5.651   0.362   6.826  0.9824 -0.8590 -0.7395
 9209TIP3    H249043   5.583   0.233   6.784 -1.0470 -0.3889  0.9557
 9210TIP3   OH249044   1.080   1.819  14.434  0.5037 -0.6902  0.5328
 9210TIP3    H149045   1.120   1.889  14.382 -1.0255 -0.2328 -0.0629
 9210TIP3    H249046   1.154   1.764  14.459  1.3621 -0.7459 -1.8293
 9211TIP3   OH249047   6.602   2.502   3.100 -0.0868  0.2890  0.3706
 9211TIP3    H149048   6.579   2.517   3.192 -0.0060 -0.6398  0.5588
 9211TIP3    H249049   6.525   2.530   3.051 -0.6017 -0.3291  0.8084
 9212TIP3   OH249050   0.331   1.887  15.844 -0.5423 -0.2914 -0.5187
 9212TIP3    H149051   0.292   1.871  15.929  1.7210 -0.8815  0.4936
 9212TIP3    H249052   0.360   1.978  15.847 -1.4283  0.0175 -1.0953
 9213TIP3   OH249053   6.398   0.874  14.791  0.2842 -0.0149  0.6203
 9213TIP3    H149054   6.312   0.872  14.748 -0.4762 -0.8619  2.1112
 9213TIP3    H249055   6.440   0.952  14.754 -1.0176  0.2889 -0.3296
 9214TIP3   OH249056   5.820   4.797   5.963  0.4959 -0.0574  0.0940
 9214TIP3    H149057   5.872   4.775   6.040  1.8285  2.1028 -0.1024
 9214TIP3    H249058   5.736   4.755   5.978  1.5642 -1.8807  1.4622
 9215TIP3   OH249059   0.047   2.498  13.140 -0.1084 -0.2825 -0.6163
 9215TIP3    H149060   0.096   2.551  13.201 -0.0845 -0.6362 -0.3240
 9215TIP3    H249061  -0.023   2.555  13.108 -0.9724 -0.5090  0.8025
 9216TIP3   OH249062   0.949   1.817  16.364 -0.9019  0.5077  0.2362
 9216TIP3    H149063   1.022   1.874  16.391 -0.6365  0.2213  0.1333
 9216TIP3    H249064   0.946   1.750  16.432 -0.7863  0.2679  0.0026
 9217TIP3   OH249065   5.160   4.676  11.904  0.5869  0.6887 -0.3323
 9217TIP3    H149066   5.139   4.587  11.875 -0.4016  0.0513  2.0935
 9217TIP3    H249067   5.252   4.688  11.882  0.9422 -1.2347 -0.0234
 9218TIP3   OH249068   0.598   0.809  12.171 -0.1610  0.1663 -0.0097
 9218TIP3    H149069   0.553   0.893  12.180  0.2710  0.5924 -1.4902
 9218TIP3    H249070   0.548   0.763  12.104  0.6582 -0.0008 -0.5201
 9219TIP3   OH249071   0.360   4.941  15.161 -0.0369  0.1969  0.2517
 9219TIP3    H149072   0.307   4.980  15.092 -0.2407  0.8369  0.7604
 9219TIP3    H249073   0.427   4.892  15.115 -1.0735 -0.6426 -0.4027
 9220TIP3   OH249074   3.673   0.563  12.535 -0.5638 -0.0190 -0.8809
 9220TIP3    H149075   3.653   0.617  12.612  2.0155 -0.1762 -0.0043
 9220TIP3    H249076   3.615   0.487  12.544 -0.9244  0.3714  0.4437
 9221TIP3   OH249077   3.621   4.449   3.536  0.3214 -0.1991 -0.4382
 9221TIP3    H149078   3.637   4.407   3.452 -0.2223  0.0409 -0.6655
 9221TIP3    H249079   3.547   4.508   3.520  1.2797  1.0899 -0.2003
 9222TIP3   OH249080   4.256   2.832   3.267 -0.1875  0.2090  0.0531
 9222TIP3    H149081   4.199   2.874   3.332  0.2294  2.5834 -1.0073
 9222TIP3    H249082   4.206   2.837   3.186  0.4825 -0.0790 -0.3788
 9223TIP3   OH249083   5.125   1.956  17.146  0.1186  0.2750 -0.2537
 9223TIP3    H149084   5.208   1.946  17.194 -0.6370  0.5846  1.1559
 9223TIP3    H249085   5.068   1.889  17.182 -0.7672  1.1302 -0.0246
 9224TIP3   OH249086   5.575   2.080   2.076  0.0296 -0.0277  0.3333
 9224TIP3    H149087   5.505   2.026   2.041 -1.3684  1.7237  0.2762
 9224TIP3    H249088   5.639   2.086   2.005 -1.2917  0.9177 -0.8434
 9225TIP3   OH249089   4.105   1.791   2.389  0.1050 -0.8384 -0.3586
 9225TIP3    H149090   4.029   1.812   2.335 -1.3345 -1.0073  1.4908
 9225TIP3    H249091   4.180   1.822   2.339 -1.1327 -1.0863 -2.4614
 9226TIP3   OH249092   6.383   5.246  16.362  0.1576  0.2529 -0.2130
 9226TIP3    H149093   6.468   5.228  16.323 -0.3051 -2.2350 -0.1954
 9226TIP3    H249094   6.404   5.283  16.448  1.1523  3.0378 -1.5333
 9227TIP3   OH249095   5.091   3.439  16.308 -0.0898 -0.0258  0.5757
 9227TIP3    H149096   5.093   3.345  16.291  2.1768  0.1081 -0.2309
 9227TIP3    H249097   5.075   3.447  16.402  1.0447 -1.2792  0.8982
 9228TIP3   OH249098   5.958   3.599  14.972 -0.3866 -0.1907  0.2829
 9228TIP3    H149099   5.973   3.661  15.043 -1.9219 -0.4551  0.8657
 9228TIP3    H249100   5.866   3.573  14.981 -0.2835 -1.1376 -1.0765
 9229TIP3   OH249101   3.552   5.533  14.353 -0.5743 -0.0646  0.6523
 9229TIP3    H149102   3.492   5.580  14.411 -1.2195 -1.1608  0.8910
 9229TIP3    H249103   3.564   5.592  14.279 -0.6107  0.8888  1.3735
 9230TIP3   OH249104   3.646   2.491   5.921 -0.1414 -0.2608  0.7126
 9230TIP3    H149105   3.597   2.507   6.002 -0.3161 -2.3538  1.0770
 9230TIP3    H249106   3.579   2.460   5.860  0.4341 -1.5776  0.7200
 9231TIP3   OH249107   5.229   3.562  11.282  0.3975  0.1537  0.2739
 9231TIP3    H149108   5.260   3.472  11.289 -1.7237 -0.8104 -1.4962
 9231TIP3    H249109   5.261   3.605  11.362  0.1133 -2.5805  1.9825
 9232TIP3   OH249110   5.652   5.542  14.851 -0.2698 -0.2437 -0.0342
 9232TIP3    H149111   5.678   5.620  14.900  0.0074  0.2952 -1.0330
 9232TIP3    H249112   5.727   5.522  14.795 -0.2574 -1.3507  0.3470
 9233TIP3   OH249113   6.532   0.501  14.375 -0.6748  0.1400  0.2701
 9233TIP3    H149114   6.624   0.489  14.398 -0.4150  0.5276 -0.5482
 9233TIP3    H249115   6.531   0.506  14.280 -1.8685 -2.7767  0.0143
 9234TIP3   OH249116   4.184   5.028   1.147  0.1541  0.8816  0.4045
 9234TIP3    H149117   4.120   4.971   1.104  0.1870 -0.3924  1.9365
 9234TIP3    H249118   4.244   5.054   1.077  1.2391 -2.4973 -0.0803
 9235TIP3   OH249119   3.425   3.170  14.088  0.4384 -0.5177  0.1395
 9235TIP3    H149120   3.368   3.245  14.107 -0.6989 -0.9042 -1.5045
 9235TIP3    H249121   3.401   3.144  13.999 -0.4296 -3.8535  1.2049
 9236TIP3   OH249122   2.016   2.442   3.922 -0.1406  0.0210  0.2296
 9236TIP3    H149123   1.996   2.533   3.899 -2.0187 -0.0178  1.5323
 9236TIP3    H249124   1.934   2.395   3.910  1.0024 -1.7424 -1.2612
 9237TIP3   OH249125   0.743   0.586  10.948 -0.5212  0.1904  0.2524
 9237TIP3    H149126   0.818   0.535  10.916 -2.6573 -1.8818 -1.8787
 9237TIP3    H249127   0.712   0.537  11.025 -0.3144  0.4353  0.4908
 9238TIP3   OH249128   0.074   2.855  16.179  0.5142  0.0905 -0.0684
 9238TIP3    H149129   0.022   2.775  16.187  1.0627 -0.1734  1.1596
 9238TIP3    H249130   0.155   2.826  16.137  0.6931 -0.0059  0.3328
 9239TIP3   OH249131   2.697   6.571  16.349 -0.1515  0.6042  0.7018
 9239TIP3    H149132   2.655   6.573  16.264  0.2515  2.1412  0.5124
 9239TIP3    H249133   2.762   6.501  16.342  0.2286  1.0524 -0.4299
 9240TIP3   OH249134   6.312   5.564  15.615  0.9391 -0.5527 -0.2882
 9240TIP3    H149135   6.276   5.503  15.679 -3.3743  2.3728  0.4974
 9240TIP3    H249136   6.316   5.515  15.534 -1.3661 -2.2277  0.5157
 9241TIP3   OH249137   6.280   0.307   3.778  0.0215  0.0154 -0.5754
 9241TIP3    H149138   6.275   0.225   3.827  1.2775  0.7671  0.8852
 9241TIP3    H249139   6.217   0.365   3.822  1.1252  0.6801  0.1845
 9242TIP3   OH249140   5.386   4.852   0.850 -0.8299  0.2621  0.2111
 9242TIP3    H149141   5.444   4.899   0.790 -0.4968  0.1263  0.4271
 9242TIP3    H249142   5.407   4.887   0.936 -1.6821  0.8432  0.1944
 9243TIP3   OH249143   1.740   2.359  14.831  0.2597  0.0694 -0.1624
 9243TIP3    H149144   1.754   2.453  14.819 -1.1667  0.1485 -1.5780
 9243TIP3    H249145   1.683   2.353  14.907 -0.3950  0.4236 -0.6197
 9244TIP3   OH249146   1.295   4.941  13.021  1.0317 -0.3215 -0.2270
 9244TIP3    H149147   1.368   4.923  13.079  1.1724 -0.0824 -0.3293
 9244TIP3    H249148   1.253   5.019  13.057 -0.3200 -1.5038  0.9228
 9245TIP3   OH249149   5.926   2.572  14.381  0.2348 -0.2308 -0.9530
 9245TIP3    H149150   5.886   2.585  14.295 -1.1748 -1.3577 -0.5164
 9245TIP3    H249151   5.852   2.567  14.441  1.2293  1.7783  0.5488
 9246TIP3   OH249152   3.599   5.546   1.745 -0.5211 -0.3484 -0.2656
 9246TIP3    H149153   3.540   5.565   1.818 -0.9690 -0.5958 -0.5636
 9246TIP3    H249154   3.676   5.601   1.762 -0.8808  0.0574  0.0639
 9247TIP3   OH249155   4.570   0.188   1.759 -0.2845  0.3597 -0.3145
 9247TIP3    H149156   4.555   0.100   1.724  1.1050  0.3188 -0.8923
 9247TIP3    H249157   4.531   0.186   1.846 -1.5287 -0.3676 -0.8702
 9248TIP3   OH249158   3.699   6.071  11.642 -0.4255  0.3732  0.1172
 9248TIP3    H149159   3.635   6.061  11.713 -0.6068 -0.5698 -0.1698
 9248TIP3    H249160   3.783   6.052  11.683 -0.7851 -3.4541 -0.5254
 9249TIP3   OH249161   6.063   2.177   0.728 -0.4273 -1.2562 -0.5341
 9249TIP3    H149162   6.155   2.184   0.753 -0.6865 -0.2343  0.1800
 9249TIP3    H249163   6.018   2.153   0.809 -0.8876 -0.9663 -0.6991
 9250TIP3   OH249164   0.232   1.514  12.810  0.0625  0.3165 -0.7842
 9250TIP3    H149165   0.268   1.451  12.748  0.8521 -0.0921  0.0542
 9250TIP3    H249166   0.302   1.527  12.874 -0.7197  0.7149  0.0200
 9251TIP3   OH249167   3.728   4.277  11.098  0.0031 -0.3227  0.1736
 9251TIP3    H149168   3.737   4.214  11.025  0.6893 -1.2493  1.0252
 9251TIP3    H249169   3.649   4.327  11.077 -0.6678 -1.5906 -0.4508
 9252TIP3   OH249170   3.540   4.342  12.089  0.4422  0.0221  0.1726
 9252TIP3    H149171   3.459   4.291  12.084  0.9087 -0.7544  0.3662
 9252TIP3    H249172   3.544   4.388  12.005 -1.0064  1.3467  0.7743
 9253TIP3   OH249173   2.860   6.238   3.602 -0.4852 -0.1599 -0.4817
 9253TIP3    H149174   2.877   6.331   3.589 -1.9928  0.0857 -0.8828
 9253TIP3    H249175   2.834   6.232   3.694  0.3174 -0.3045 -0.2611
 9254TIP3   OH249176   0.820   0.629   2.573 -0.1825  0.6121 -0.1169
 9254TIP3    H149177   0.844   0.553   2.626 -2.6837 -0.7697 -0.7958
 9254TIP3    H249178   0.903   0.670   2.550  1.1837 -1.2092  1.2913
 9255TIP3   OH249179   2.581   2.331   0.194 -0.0671 -0.0502  0.0338
 9255TIP3    H149180   2.493   2.366   0.191  0.6665  1.8019 -0.8775
 9255TIP3    H249181   2.624   2.380   0.265  0.2266 -1.0131  0.5491
 9256TIP3   OH249182   2.867   1.765  13.443 -0.0324 -0.0542 -0.1268
 9256TIP3    H149183   2.813   1.841  13.421 -1.3428 -0.6097  1.0220
 9256TIP3    H249184   2.945   1.802  13.484 -1.1988  0.6920  1.5548
 9257TIP3   OH249185   1.883   4.650  15.984 -0.1309 -0.5672 -0.3908
 9257TIP3    H149186   1.932   4.732  15.997 -1.0919  0.2777 -1.7668
 9257TIP3    H249187   1.948   4.587  15.954  0.5384 -0.1664  0.1969
 9258TIP3   OH249188   2.080   2.600  13.197 -0.5026 -0.2307  0.5853
 9258TIP3    H149189   2.173   2.623  13.200 -0.1970 -1.3392  0.0268
 9258TIP3    H249190   2.050   2.612  13.287  0.6061 -1.5338  1.1616
 9259TIP3   OH249191   5.522   1.408  15.217  0.2809  0.2967 -0.0999
 9259TIP3    H149192   5.585   1.425  15.147  0.1344 -0.4637 -0.4249
 9259TIP3    H249193   5.438   1.398  15.172 -0.0518  1.1334  0.3157
 9260TIP3   OH249194   6.664   6.396  17.187  0.1958  0.3560  0.1030
 9260TIP3    H149195   6.640   6.339  17.260  0.0069  0.3783  0.0583
 9260TIP3    H249196   6.696   6.476  17.229  1.2194 -0.0868  0.1748
 9261TIP3   OH249197   3.107   1.844  15.389 -0.2119 -0.0366  0.0213
 9261TIP3    H149198   3.101   1.803  15.302  0.7456 -0.4525  0.1438
 9261TIP3    H249199   3.034   1.805  15.438  0.3476 -1.2186 -0.0358
 9262TIP3   OH249200   1.610   6.179   2.641 -0.1788  0.3860  0.4107
 9262TIP3    H149201   1.660   6.098   2.640 -1.8432 -0.7489  2.3146
 9262TIP3    H249202   1.611   6.210   2.551  0.4318 -1.7938 -0.3676
 9263TIP3   OH249203   5.858   3.283  16.923 -0.4479  1.1027  0.9339
 9263TIP3    H149204   5.861   3.270  17.018 -1.0732  1.4756  1.0037
 9263TIP3    H249205   5.776   3.243  16.896  0.2433  0.0044  0.3863
 9264TIP3   OH249206   4.227   0.628  15.087  0.4093 -0.1435 -0.4267
 9264TIP3    H149207   4.292   0.623  15.016  1.0008 -0.9302  0.1545
 9264TIP3    H249208   4.270   0.679  15.155  0.2424 -0.2787 -0.2200
 9265TIP3   OH249209   0.977   2.897   3.688  0.2334  0.3989  0.0396
 9265TIP3    H149210   0.964   2.817   3.738 -1.3709 -0.0946 -1.0927
 9265TIP3    H249211   0.964   2.968   3.751  0.8905 -0.2008  0.8695
 9266TIP3   OH249212   5.145   2.911   3.767  0.3978 -0.0053  0.5209
 9266TIP3    H149213   5.172   2.987   3.820  1.4937 -0.5256  0.7430
 9266TIP3    H249214   5.073   2.944   3.713  1.0795  1.3009  0.3585
 9267TIP3   OH249215   4.708   2.692  16.582 -0.3135 -0.3344  0.3780
 9267TIP3    H149216   4.633   2.728  16.629  0.1777 -0.5839  1.3768
 9267TIP3    H249217   4.748   2.769  16.541 -0.4770 -0.0401  0.7608
 9268TIP3   OH249218   0.201   1.510  13.509  0.6178 -0.3870 -0.7021
 9268TIP3    H149219   0.198   1.605  13.512  1.9680 -0.3250 -0.4283
 9268TIP3    H249220   0.277   1.487  13.562 -0.1135 -1.6665 -0.1739
 9269TIP3   OH249221   1.034   6.542  12.984 -0.1203  0.2679 -0.7316
 9269TIP3    H149222   1.095   6.513  13.051 -0.6549  0.3719 -0.1850
 9269TIP3    H249223   1.086   6.547  12.904  0.0160 -2.0763 -0.8508
 9270TIP3   OH249224   5.636   6.038   0.782  0.0436  0.2477 -0.6574
 9270TIP3    H149225   5.609   6.110   0.838  0.7477  1.6564 -2.0533
 9270TIP3    H249226   5.602   6.061   0.696  0.0158 -1.2568 -1.0717
 9271TIP3   OH249227   2.328   1.395  10.878 -0.5362  0.2513  0.3965
 9271TIP3    H149228   2.244   1.375  10.919 -1.9547  1.9430 -1.4799
 9271TIP3    H249229   2.322   1.357  10.790  0.5396  0.6483  0.1361
 9272TIP3   OH249230   3.013   5.912   0.270  0.2795 -0.1178 -0.1694
 9272TIP3    H149231   2.975   5.855   0.203 -0.0380  0.1495 -0.2220
 9272TIP3    H249232   2.992   6.001   0.241 -0.6098 -0.0142  0.7076
 9273TIP3   OH249233   1.975   2.484  15.935  0.0670 -0.3033  0.2027
 9273TIP3    H149234   1.889   2.497  15.895 -0.4168 -2.3564  0.5079
 9273TIP3    H249235   2.036   2.528  15.875 -1.2184  1.7839  0.3364
 9274TIP3   OH249236   4.037   1.665   0.624 -0.5563  0.0966  0.1793
 9274TIP3    H149237   3.993   1.717   0.556 -1.4108 -1.8854 -0.9026
 9274TIP3    H249238   4.040   1.722   0.700 -2.1631  1.4420 -0.6870
 9275TIP3   OH249239   5.890   5.520   0.574 -0.1005 -0.8177  0.0163
 9275TIP3    H149240   5.922   5.607   0.596  0.1483 -1.2046  1.2283
 9275TIP3    H249241   5.798   5.521   0.598 -0.5087 -0.4054 -1.4452
 9276TIP3   OH249242   6.372   2.684   0.318 -0.3353  0.2837 -0.1952
 9276TIP3    H149243   6.440   2.627   0.355  0.8649  2.2986  0.9509
 9276TIP3    H249244   6.404   2.707   0.231  0.9595  1.8710  0.6433
 9277TIP3   OH249245   5.253   1.455  12.239  0.4173  0.4551  0.0530
 9277TIP3    H149246   5.295   1.389  12.184 -1.2976 -1.1793  0.5762
 9277TIP3    H249247   5.322   1.487  12.297  1.8664  0.9805 -1.8695
 9278TIP3   OH249248   1.578   0.780  11.212 -0.1013 -0.1377 -0.2193
 9278TIP3    H149249   1.499   0.833  11.221  0.1512  0.0074  1.5654
 9278TIP3    H249250   1.606   0.763  11.302 -0.6949 -4.0888 -0.6081
 9279TIP3   OH249251   0.776   6.333  14.764 -0.4151 -0.0360  0.1453
 9279TIP3    H149252   0.754   6.248  14.724  0.0298 -0.8339  1.5248
 9279TIP3    H249253   0.693   6.377  14.775 -1.0398 -1.5661  2.1426
 9280TIP3   OH249254   1.930   6.448   1.794  0.5181 -0.3814  0.4852
 9280TIP3    H149255   2.008   6.392   1.792  1.4277  0.7902  1.1051
 9280TIP3    H249256   1.916   6.473   1.703  0.4866 -1.0972  0.2880
 9281TIP3   OH249257   0.128   5.711   4.893 -0.1014 -0.3849 -0.4087
 9281TIP3    H149258   0.204   5.685   4.841  0.6137 -0.5753  0.7086
 9281TIP3    H249259   0.056   5.716   4.829  0.9999  0.6059 -1.6390
 9282TIP3   OH249260   0.418   1.898  16.640  0.5969 -0.2085 -0.5204
 9282TIP3    H149261   0.432   1.987  16.672  1.2514  0.4110 -2.3685
 9282TIP3    H249262   0.434   1.842  16.716  0.0666  1.2306  0.7116
 9283TIP3   OH249263   3.533   1.826  12.727  0.0661  0.3055 -0.6184
 9283TIP3    H149264   3.619   1.788  12.711 -0.7984 -1.7150 -0.7345
 9283TIP3    H249265   3.530   1.904  12.671  2.1098  0.8989  0.0374
 9284TIP3   OH249266   2.789   2.106  11.754 -0.4804  0.2724 -0.0636
 9284TIP3    H149267   2.850   2.054  11.701  0.4176  0.2800  0.9375
 9284TIP3    H249268   2.712   2.050  11.762  0.8271 -1.4087  1.8019
 9285TIP3   OH249269   6.335   4.348   2.010 -0.2358  0.4934  0.8776
 9285TIP3    H149270   6.262   4.402   2.041 -1.0827  1.8474 -2.8734
 9285TIP3    H249271   6.402   4.411   1.982 -0.7763 -0.2424 -2.5663
 9286TIP3   OH249272   3.148   6.228   5.027 -0.2593 -0.0296  0.4284
 9286TIP3    H149273   3.231   6.258   5.062 -0.4711  0.6629  0.3519
 9286TIP3    H249274   3.083   6.255   5.092 -0.4615 -0.2822  0.3343
 9287TIP3   OH249275   3.024   0.104   3.702  0.3134 -0.2035 -0.0468
 9287TIP3    H149276   3.006   0.019   3.662  0.7620 -0.4175  0.1947
 9287TIP3    H249277   2.963   0.109   3.776  0.5171 -0.4706  0.1435
 9288TIP3   OH249278   6.727   2.376  13.551 -0.2942  0.2632 -0.4811
 9288TIP3    H149279   6.641   2.340  13.532 -0.1025 -0.6122  0.1936
 9288TIP3    H249280   6.728   2.387  13.646  0.3829  0.1081 -0.4628
 9289TIP3   OH249281   6.176   3.855   2.381 -0.0146  0.8900  0.6159
 9289TIP3    H149282   6.093   3.895   2.353 -0.4389 -0.5048 -0.2239
 9289TIP3    H249283   6.199   3.797   2.309  0.5623 -0.3957  1.8073
 9290TIP3   OH249284   0.889   5.496  16.618 -0.1161  0.1169  0.8321
 9290TIP3    H149285   0.816   5.458  16.569 -1.1308  1.8918  0.8883
 9290TIP3    H249286   0.961   5.434  16.607 -0.7138 -0.1968 -1.7589
 9291TIP3   OH249287   5.021   6.017  15.532  0.2557 -0.0485 -0.1772
 9291TIP3    H149288   5.099   5.974  15.498 -0.3259 -1.4788  0.1975
 9291TIP3    H249289   5.050   6.057  15.614  0.7893  0.2084 -0.4834
 9292TIP3   OH249290   4.273   1.599  11.805 -0.3362 -0.1681 -0.2836
 9292TIP3    H149291   4.202   1.536  11.796  1.6085 -2.8331  1.3637
 9292TIP3    H249292   4.336   1.573  11.737  1.1320 -1.0142  1.3339
 9293TIP3   OH249293   5.028   0.170   3.084  0.3519  0.4100 -0.2037
 9293TIP3    H149294   4.985   0.228   3.021 -0.2404 -0.9857 -1.1285
 9293TIP3    H249295   5.121   0.192   3.079  0.1216  1.3660 -0.4209
 9294TIP3   OH249296   6.599   0.103   1.612 -0.4585 -0.2456 -0.3153
 9294TIP3    H149297   6.551   0.026   1.642 -1.4170  0.8144  0.9897
 9294TIP3    H249298   6.541   0.145   1.549  0.7897 -1.4747 -2.3715
 9295TIP3   OH249299   4.835   5.461   0.622  0.4831  0.1289  0.3584
 9295TIP3    H149300   4.793   5.461   0.708 -1.9103  0.7612 -0.7128
 9295TIP3    H249301   4.909   5.521   0.631  0.1064  0.3967  1.9030
 9296TIP3   OH249302   3.219   4.188  16.713  0.3131 -0.5467 -0.7867
 9296TIP3    H149303   3.226   4.162  16.621 -0.7590 -1.3348 -0.6726
 9296TIP3    H249304   3.124   4.197  16.727  0.5243  0.7370 -0.0671
 9297TIP3   OH249305   2.871   5.125   1.354  0.2166 -0.1542 -0.3287
 9297TIP3    H149306   2.866   5.200   1.414  2.6871  0.7617 -1.1578
 9297TIP3    H249307   2.891   5.051   1.411 -0.2312  0.1699  0.2694
 9298TIP3   OH249308   5.663   5.399  12.408  0.1539 -0.2187  0.4839
 9298TIP3    H149309   5.732   5.438  12.461 -0.8458  0.8349  1.0744
 9298TIP3    H249310   5.662   5.306  12.434  0.4152  0.0514  1.5286
 9299TIP3   OH249311   6.554   0.011   2.897  0.1305 -0.8130  0.0632
 9299TIP3    H149312   6.576  -0.076   2.929  0.1996 -0.7057  0.3190
 9299TIP3    H249313   6.637   0.048   2.869  0.3965 -0.1871  1.5839
 9300TIP3   OH249314   3.115   2.203   5.636  0.6183  0.3605 -0.0201
 9300TIP3    H149315   3.130   2.221   5.543  0.2329 -0.8960 -0.3489
 9300TIP3    H249316   3.114   2.108   5.642  0.2005  0.4222  1.2024
 9301TIP3   OH249317   2.038   6.538  11.888 -0.0839  0.1151 -0.0351
 9301TIP3    H149318   2.059   6.619  11.934  0.4496  0.5946 -1.0976
 9301TIP3    H249319   1.947   6.549  11.861  0.4343  1.0707 -1.5385
 9302TIP3   OH249320   2.586   5.039   4.125 -0.1837  0.0372  0.3082
 9302TIP3    H149321   2.531   5.080   4.059  1.2929  0.8675 -0.4635
 9302TIP3    H249322   2.574   4.945   4.111 -0.9741  0.2070 -0.1969
 9303TIP3   OH249323   5.221   2.250  12.883  0.5278  0.0305  0.6375
 9303TIP3    H149324   5.228   2.243  12.978 -0.4851 -2.3936  0.5942
 9303TIP3    H249325   5.307   2.280  12.855  0.5701  1.7173  2.3462
 9304TIP3   OH249326   0.098   0.725  10.581  0.1294  1.0639  0.4243
 9304TIP3    H149327   0.082   0.788  10.512  2.4762  1.8294  0.5121
 9304TIP3    H249328   0.150   0.772  10.646  0.6651 -0.5181  1.2076
 9305TIP3   OH249329   0.713   0.740  11.272 -0.0537 -0.0303  0.4985
 9305TIP3    H149330   0.623   0.757  11.298 -0.0174 -0.4552  0.9237
 9305TIP3    H249331   0.746   0.824  11.242 -0.9495 -0.1020 -0.7815
 9306TIP3   OH249332   3.059   2.344   6.223  0.3592 -0.1799 -0.0279
 9306TIP3    H149333   3.082   2.341   6.316 -0.2756 -1.3494  0.1190
 9306TIP3    H249334   3.142   2.339   6.177  0.7083  0.8290  0.4693
 9307TIP3   OH249335   5.892   2.770   1.854 -0.5523  0.0828 -0.1599
 9307TIP3    H149336   5.858   2.792   1.768  0.8954  1.5293 -0.4019
 9307TIP3    H249337   5.949   2.843   1.877  1.0000 -1.4104  0.9690
 9308TIP3   OH249338   1.823   6.559  15.935 -0.4077  0.5114  0.3200
 9308TIP3    H149339   1.909   6.535  15.902 -0.6245 -1.1615  0.8762
 9308TIP3    H249340   1.837   6.643  15.979  0.4403  1.4020 -1.5286
 9309TIP3   OH249341   0.965   3.257   0.274  0.2821  0.1843 -0.3656
 9309TIP3    H149342   0.879   3.241   0.236  0.1318  0.7722 -0.2758
 9309TIP3    H249343   0.979   3.182   0.333 -1.5773  1.6021  2.0972
 9310TIP3   OH249344   0.273   1.510  15.126  0.2969 -0.3913  0.4680
 9310TIP3    H149345   0.185   1.476  15.142  0.7602 -1.5041  0.7347
 9310TIP3    H249346   0.268   1.602  15.152 -0.9107 -0.3171  0.0220
 9311TIP3   OH249347   4.690   0.800   4.890  0.2270  0.7403 -1.0408
 9311TIP3    H149348   4.653   0.851   4.962  1.8075  0.3555  0.0989
 9311TIP3    H249349   4.651   0.838   4.811 -3.0993 -0.1171  0.0660
 9312TIP3   OH249350   1.042   6.366  10.889 -0.0116  0.0191  0.4606
 9312TIP3    H149351   1.028   6.289  10.834 -0.0377 -0.0149  0.5145
 9312TIP3    H249352   1.031   6.440  10.831 -0.5959 -0.0024  0.5433
 9313TIP3   OH249353   0.477   1.540  12.578 -0.9515  0.6025 -0.5523
 9313TIP3    H149354   0.531   1.591  12.517 -0.3854 -1.0445 -1.5103
 9313TIP3    H249355   0.511   1.563  12.664  1.5990 -0.6027 -1.1238
 9314TIP3   OH249356   4.419   5.181   3.945  0.2613  0.1967  0.1173
 9314TIP3    H149357   4.495   5.221   3.903  0.6790  1.2060  1.7172
 9314TIP3    H249358   4.359   5.254   3.960 -1.5526 -0.7226 -2.0230
 9315TIP3   OH249359   1.092   5.833  12.821 -0.0062  0.1822  0.6007
 9315TIP3    H149360   1.091   5.909  12.879 -0.1177  1.6890 -1.2565
 9315TIP3    H249361   1.016   5.782  12.847 -0.1900  0.9449  1.6113
 9316TIP3   OH249362   2.391   3.506  15.966 -0.2193 -0.5158 -0.0692
 9316TIP3    H149363   2.424   3.422  15.997 -1.9592 -0.9075  0.8411
 9316TIP3    H249364   2.316   3.525  16.023 -0.8627  0.8485 -1.3101
 9317TIP3   OH249365   4.474   1.477  16.847 -0.1835 -0.2759 -0.3235
 9317TIP3    H149366   4.438   1.389  16.857  1.1210 -0.8949 -0.8877
 9317TIP3    H249367   4.397   1.533  16.838 -1.1731 -0.9864  2.4242
 9318TIP3   OH249368   3.823   4.357   2.233  0.4734 -0.7194 -0.4236
 9318TIP3    H149369   3.825   4.329   2.324 -0.7768 -0.4022 -0.2807
 9318TIP3    H249370   3.732   4.379   2.216  0.8156 -0.0304 -1.5297
 9319TIP3   OH249371   3.685   2.972   0.899 -0.3405 -0.1471 -0.3432
 9319TIP3    H149372   3.682   3.052   0.951 -0.4351 -0.2331 -0.2148
 9319TIP3    H249373   3.658   2.903   0.959  0.0868 -0.3278 -0.3574
 9320TIP3   OH249374   0.327   4.682   1.290 -0.2545 -0.1780  0.7048
 9320TIP3    H149375   0.308   4.593   1.261 -1.0574  0.1432  0.2086
 9320TIP3    H249376   0.390   4.671   1.361  1.0580 -1.0320 -0.5358
 9321TIP3   OH249377   2.165   1.343  16.466  0.8906  0.3311 -0.4701
 9321TIP3    H149378   2.073   1.329  16.442  0.9490  0.4803 -0.7800
 9321TIP3    H249379   2.181   1.279  16.537  0.4156  0.6398 -0.0783
 9322TIP3   OH249380   4.568   5.016   4.724 -0.2437  0.2666 -0.4355
 9322TIP3    H149381   4.600   4.992   4.811  1.1944  0.7215 -0.8208
 9322TIP3    H249382   4.553   4.933   4.679  0.5543  0.0401 -0.2916
 9323TIP3   OH249383   1.775   4.520   1.622 -0.0063 -0.2018  0.8070
 9323TIP3    H149384   1.801   4.575   1.548  0.2796 -2.0978 -0.5972
 9323TIP3    H249385   1.835   4.544   1.692  1.4544 -0.1093 -0.4210
 9324TIP3   OH249386   6.026   1.966   4.480  0.0169 -0.2221 -0.3877
 9324TIP3    H149387   6.081   2.010   4.545  1.3901 -1.7742 -0.4518
 9324TIP3    H249388   5.955   1.927   4.531  1.0592 -1.3921  0.2163
 9325TIP3   OH249389   6.180   3.663   0.568 -0.1924  0.1859 -0.0810
 9325TIP3    H149390   6.187   3.588   0.628 -1.0568 -0.4432 -0.7278
 9325TIP3    H249391   6.168   3.739   0.625 -0.7657 -0.3662  0.5496
 9326TIP3   OH249392   0.205   6.249   1.102 -0.1245  0.2997 -0.4363
 9326TIP3    H149393   0.186   6.209   1.187  1.2436 -1.2069 -0.7794
 9326TIP3    H249394   0.123   6.290   1.076 -0.8546 -0.0549  1.1516
 9327TIP3   OH249395   5.199   4.527   5.944 -0.0027  0.1500  0.1324
 9327TIP3    H149396   5.252   4.580   6.003  0.2679 -0.3506  0.3493
 9327TIP3    H249397   5.224   4.437   5.964  2.0227  0.0032 -2.5507
 9328TIP3   OH249398   2.322   0.597  15.993 -0.1520 -0.4735 -0.4025
 9328TIP3    H149399   2.304   0.506  15.973  0.1133 -0.4480 -0.7600
 9328TIP3    H249400   2.291   0.645  15.916 -1.0318 -0.1809  0.1115
 9329TIP3   OH249401   4.966   6.072   1.860 -0.4071 -0.0930  0.5062
 9329TIP3    H149402   4.903   6.142   1.845  0.5023  0.7220  0.3649
 9329TIP3    H249403   4.927   6.018   1.929 -1.6779 -0.1699 -0.2502
 9330TIP3   OH249404   6.568   3.221  15.076 -0.2777  0.2163  0.0222
 9330TIP3    H149405   6.634   3.155  15.055  1.1456  1.5611  0.1450
 9330TIP3    H249406   6.497   3.203  15.013  1.5675  0.7284 -2.3579
 9331TIP3   OH249407   4.675   4.397   5.678  0.1605  0.0447  0.1697
 9331TIP3    H149408   4.683   4.315   5.629  2.5122  0.2954  0.0041
 9331TIP3    H249409   4.671   4.370   5.770 -0.0669 -0.2686  0.0713
 9332TIP3   OH249410   4.428   1.190   5.125  0.2668 -0.0833  0.5100
 9332TIP3    H149411   4.477   1.237   5.058  0.6011 -0.4139  0.5167
 9332TIP3    H249412   4.477   1.109   5.138 -1.3696 -1.3682 -0.9451
 9333TIP3   OH249413   5.796   1.589  15.770 -0.3445  0.0763 -0.3258
 9333TIP3    H149414   5.798   1.684  15.767 -0.0270  0.0624 -0.8501
 9333TIP3    H249415   5.820   1.566  15.859  0.1692  0.4779 -0.3574
 9334TIP3   OH249416   5.002   3.993   1.815  0.0954  0.1703 -0.4390
 9334TIP3    H149417   4.986   4.055   1.886 -0.6249 -0.9481  0.3899
 9334TIP3    H249418   4.930   4.009   1.753  0.5176  0.8886 -0.7625
 9335TIP3   OH249419   4.355   2.996  14.959 -0.1428  0.4220 -0.0143
 9335TIP3    H149420   4.295   2.964  15.025 -0.1632  2.8092  1.1963
 9335TIP3    H249421   4.442   2.973  14.992 -0.2043  0.6751  0.3252
 9336TIP3   OH249422   5.110   6.565  14.428  0.3706 -0.2753  0.2261
 9336TIP3    H149423   5.205   6.565  14.416  0.0175 -0.8330 -3.5646
 9336TIP3    H249424   5.086   6.472  14.430 -0.2127 -0.1346 -0.1027
 9337TIP3   OH249425   5.798   4.627  14.081  0.2812  0.1989  0.0077
 9337TIP3    H149426   5.873   4.632  14.021  1.9411  0.1552  1.9768
 9337TIP3    H249427   5.758   4.714  14.077  1.5118  0.7854  0.2236
 9338TIP3   OH249428   3.881   4.289   4.790  0.2522  0.3664  0.7903
 9338TIP3    H149429   3.851   4.320   4.704  0.5763  0.4346  0.7016
 9338TIP3    H249430   3.806   4.241   4.825 -0.5493  1.8723  1.2541
 9339TIP3   OH249431   2.144   1.134  13.559  0.1749 -0.2840  0.0636
 9339TIP3    H149432   2.069   1.171  13.514  0.9306  0.3811 -0.6772
 9339TIP3    H249433   2.206   1.112  13.490  0.3235 -1.6499  0.5932
 9340TIP3   OH249434   1.067   3.708   1.085  0.3422  0.1703  0.4955
 9340TIP3    H149435   1.070   3.619   1.122  1.3563  0.2288  0.5879
 9340TIP3    H249436   1.057   3.694   0.991  0.2657 -0.0366  0.5333
 9341TIP3   OH249437   0.666   1.219  16.001 -0.7665 -0.3376  0.1617
 9341TIP3    H149438   0.699   1.307  15.986 -0.7683 -0.4880 -0.7998
 9341TIP3    H249439   0.571   1.228  15.997 -0.7602 -0.4277 -0.2251
 9342TIP3   OH249440   2.004   1.878   3.332  0.4076  0.6237 -0.1312
 9342TIP3    H149441   1.971   1.801   3.377  0.1688  0.2268 -0.9532
 9342TIP3    H249442   1.996   1.949   3.395 -0.7483  0.2630  0.1368
 9343TIP3   OH249443   4.435   3.682  13.065 -0.1600 -0.0085 -0.2917
 9343TIP3    H149444   4.487   3.629  13.125 -3.2308 -0.7509  1.9243
 9343TIP3    H249445   4.446   3.772  13.097 -0.7779 -0.2486  0.6211
 9344TIP3   OH249446   2.486   1.305   3.365  0.6530 -0.2449 -0.1989
 9344TIP3    H149447   2.532   1.240   3.418 -0.4784 -0.1301  0.9889
 9344TIP3    H249448   2.546   1.379   3.359  1.6109 -1.0412 -0.8383
 9345TIP3   OH249449   1.605   5.833  15.256 -0.5901  0.4666 -0.1399
 9345TIP3    H149450   1.544   5.792  15.195  0.2175 -1.4816  0.2754
 9345TIP3    H249451   1.688   5.835  15.210 -0.0626 -0.6558  0.7046
 9346TIP3   OH249452   2.411   1.478  16.478  0.1502 -0.2100 -0.0639
 9346TIP3    H149453   2.335   1.422  16.490  2.0019 -2.5599  1.8197
 9346TIP3    H249454   2.415   1.531  16.557  0.5698 -0.2405 -0.0625
 9347TIP3   OH249455   5.528   2.235   5.260  0.1466 -0.3831 -0.8216
 9347TIP3    H149456   5.436   2.258   5.271  0.4198  0.0658  0.7357
 9347TIP3    H249457   5.574   2.293   5.321  1.2093 -2.4860  0.4866
 9348TIP3   OH249458   4.149   2.280   3.058 -0.5393  0.8862 -0.6192
 9348TIP3    H149459   4.212   2.329   3.112 -0.2585 -1.1494  1.0146
 9348TIP3    H249460   4.195   2.267   2.975  1.9663 -1.8437  1.0086
 9349TIP3   OH249461   5.586   4.006  11.529  0.5586  0.0148 -0.3152
 9349TIP3    H149462   5.651   4.024  11.461  0.3764 -3.8833 -1.7854
 9349TIP3    H249463   5.508   3.979  11.480 -0.2398 -0.9371  1.4199
 9350TIP3   OH249464   4.207   2.152  14.651 -0.2186  0.3294 -0.2646
 9350TIP3    H149465   4.244   2.072  14.614  0.0756  0.7831 -0.9815
 9350TIP3    H249466   4.121   2.127  14.683 -0.8796  0.0845 -2.0845
 9351TIP3   OH249467   5.988   0.888   2.478  0.5976 -0.4507 -0.1880
 9351TIP3    H149468   6.015   0.937   2.400  1.4751 -0.9436 -0.2202
 9351TIP3    H249469   5.928   0.821   2.445 -2.4421  1.9457  0.1618
 9352TIP3   OH249470   5.077   0.045   3.864 -0.3818 -0.5761 -0.0557
 9352TIP3    H149471   5.023   0.104   3.915  0.9760  0.1096  0.6544
 9352TIP3    H249472   5.090   0.089   3.780 -0.9073 -0.7417 -0.2251
 9353TIP3   OH249473   1.493   1.642   1.372  1.0235  0.1122 -0.0704
 9353TIP3    H149474   1.484   1.624   1.465 -1.4290 -2.9100 -0.7034
 9353TIP3    H249475   1.416   1.694   1.350  0.2604 -1.2347 -0.7360
 9354TIP3   OH249476   1.483   0.857  12.097 -0.0988  0.3400  0.4646
 9354TIP3    H149477   1.403   0.851  12.045 -0.6706  0.4331  1.3170
 9354TIP3    H249478   1.549   0.891  12.036 -1.0308  1.5248  0.0874
 9355TIP3   OH249479   2.598   5.551  15.733 -0.0663  0.1115 -0.0151
 9355TIP3    H149480   2.555   5.620  15.681  1.0268  0.2887 -0.7305
 9355TIP3    H249481   2.553   5.552  15.817 -1.8084 -0.0780 -0.8923
 9356TIP3   OH249482   3.945   0.546  12.477 -0.0165  0.6662 -0.5717
 9356TIP3    H149483   3.850   0.556  12.483  0.0240  0.6196  0.3136
 9356TIP3    H249484   3.959   0.452  12.488  0.2235  0.8547  0.9715
 9357TIP3   OH249485   3.523   1.967   5.046 -0.0152 -0.1827 -0.5663
 9357TIP3    H149486   3.478   2.040   5.003 -2.4172 -0.8796  0.5479
 9357TIP3    H249487   3.570   1.923   4.976 -0.0903  1.3148 -1.6093
 9358TIP3   OH249488   5.179   5.614   0.155  0.2010 -0.1375 -0.0965
 9358TIP3    H149489   5.130   5.623   0.073 -1.2297  0.0772  0.7432
 9358TIP3    H249490   5.122   5.561   0.211  1.5617 -1.0612  0.4636
 9359TIP3   OH249491   1.319   4.645  15.688 -0.2092 -0.8468  0.3600
 9359TIP3    H149492   1.341   4.643  15.594  0.8172 -0.4277  0.5763
 9359TIP3    H249493   1.223   4.642  15.690 -0.2293 -1.4852 -0.6825
 9360TIP3   OH249494   3.160   4.927  12.280  0.4090  0.0629  0.8509
 9360TIP3    H149495   3.161   4.834  12.305 -0.9097 -0.5924 -1.3048
 9360TIP3    H249496   3.238   4.964  12.323  0.7959 -1.9396  2.0110
 9361TIP3   OH249497   1.950   1.223   2.926 -0.6454 -0.7149  0.0608
 9361TIP3    H149498   2.007   1.251   2.854 -0.8442  1.4281  0.6741
 9361TIP3    H249499   1.869   1.195   2.883 -1.5721  2.5409 -0.5456
 9362TIP3   OH249500   3.404   1.670  14.684  0.2880 -0.0501 -0.1148
 9362TIP3    H149501   3.455   1.750  14.674 -0.8689  0.6850 -0.4165
 9362TIP3    H249502   3.425   1.618  14.607 -0.7716  1.0526 -1.1916
 9363TIP3   OH249503   2.786   3.467   3.954  0.3428 -0.2980  0.1786
 9363TIP3    H149504   2.838   3.395   3.989  2.4961  0.7571 -0.6733
 9363TIP3    H249505   2.715   3.424   3.906 -0.5079 -1.7678  2.5625
 9364TIP3   OH249506   3.429   3.481  16.427 -0.4351  0.1496 -0.2637
 9364TIP3    H149507   3.489   3.520  16.364 -0.4371  2.0322  0.8109
 9364TIP3    H249508   3.484   3.421  16.478  0.1583  0.5763 -0.3856
 9365TIP3   OH249509   5.946   4.701  11.817  0.6092 -0.3589  0.0482
 9365TIP3    H149510   5.966   4.723  11.908 -0.2584  1.1911 -0.0994
 9365TIP3    H249511   6.014   4.743  11.766  1.2651 -1.4762 -0.0258
 9366TIP3   OH249512   0.112   0.581   0.070  0.6610  0.2628 -0.1676
 9366TIP3    H149513   0.109   0.676   0.057  0.0786 -0.0117 -2.5877
 9366TIP3    H249514   0.021   0.553   0.063  0.8824 -0.5191  0.0105
 9367TIP3   OH249515   0.869   6.129  12.165  0.4606 -0.0922  0.0094
 9367TIP3    H149516   0.774   6.140  12.164  0.6776  2.2582  0.1515
 9367TIP3    H249517   0.886   6.059  12.101 -1.4933 -2.4328  1.9022
 9368TIP3   OH249518   5.239   3.028   4.946 -0.3215 -0.1380  0.7696
 9368TIP3    H149519   5.292   2.951   4.965 -0.8808 -0.4481  1.1080
 9368TIP3    H249520   5.256   3.046   4.854  0.5810 -0.0603  0.9401
 9369TIP3   OH249521   3.931   5.207  11.598 -0.3828  0.0173 -0.6419
 9369TIP3    H149522   3.894   5.126  11.632  1.1225 -0.5676 -0.3494
 9369TIP3    H249523   3.877   5.228  11.521 -1.0362 -1.0253 -0.4762
 9370TIP3   OH249524   0.755   6.074  11.716 -0.4080 -0.0575 -0.2299
 9370TIP3    H149525   0.815   6.026  11.772 -0.8186 -1.3224 -0.8248
 9370TIP3    H249526   0.768   6.166  11.738  0.5570 -0.4315  0.7970
 9371TIP3   OH249527   6.498   0.840   5.453  0.2000  0.0990  0.0669
 9371TIP3    H149528   6.590   0.863   5.462 -0.0677  1.1287  0.3190
 9371TIP3    H249529   6.461   0.854   5.540 -0.2939  0.1939 -0.1512
 9372TIP3   OH249530   4.375   6.264  14.811  0.0705 -0.8798 -0.1898
 9372TIP3    H149531   4.461   6.250  14.773  0.8238  0.8340  0.7552
 9372TIP3    H249532   4.328   6.317  14.747  0.3406 -0.3688  0.0303
 9373TIP3   OH249533   6.459   4.764   4.181 -0.1437 -0.0858 -0.0298
 9373TIP3    H149534   6.522   4.693   4.192  0.9684  0.9644  0.7278
 9373TIP3    H249535   6.429   4.756   4.090 -0.6396 -1.9557  0.2591
 9374TIP3   OH249536   4.621   3.235   0.164  0.1061 -0.3768 -0.0866
 9374TIP3    H149537   4.635   3.271   0.076  0.9795 -1.4517 -0.4048
 9374TIP3    H249538   4.704   3.249   0.209  0.7099 -2.4928 -0.4258
 9375TIP3   OH249539   3.737   4.772  13.169 -0.2421  0.3537 -0.0137
 9375TIP3    H149540   3.831   4.775  13.191 -0.1751  2.4052 -0.3575
 9375TIP3    H249541   3.698   4.716  13.237  1.2520 -0.7958 -0.0439
 9376TIP3   OH249542   0.232   4.673   2.095  0.2036 -0.0948 -0.4412
 9376TIP3    H149543   0.292   4.737   2.132  0.1966 -0.2595 -0.1347
 9376TIP3    H249544   0.275   4.642   2.016 -0.1797  0.9057 -1.0625
 9377TIP3   OH249545   6.204   1.658   2.432 -0.2940  0.4345 -0.4862
 9377TIP3    H149546   6.123   1.632   2.389 -0.9397  0.9997  0.3605
 9377TIP3    H249547   6.177   1.692   2.517  0.6774  1.9978 -0.7411
 9378TIP3   OH249548   0.946   2.800   1.259 -0.3476 -0.3325  0.2832
 9378TIP3    H149549   0.961   2.718   1.305  0.2214 -1.6380 -2.0480
 9378TIP3    H249550   1.033   2.828   1.231 -0.7435 -0.0798 -0.7493
 9379TIP3   OH249551   0.322   0.404   4.710 -0.1216 -0.1682  0.3593
 9379TIP3    H149552   0.351   0.314   4.692  0.7808 -0.0450  1.0799
 9379TIP3    H249553   0.403   0.455   4.711 -0.6636  0.7482 -0.4842
 9380TIP3   OH249554   4.773   1.221   1.106  0.4092  0.3067 -0.1698
 9380TIP3    H149555   4.799   1.142   1.058  1.2277  0.5309 -0.1087
 9380TIP3    H249556   4.851   1.278   1.103 -0.0815  1.0050  0.0077
 9381TIP3   OH249557   6.646   6.035  11.146  0.1655 -0.1583  0.3117
 9381TIP3    H149558   6.648   6.056  11.239 -0.8951 -0.0988  0.3357
 9381TIP3    H249559   6.702   6.102  11.106 -0.9285  1.0469  0.7044
 9382TIP3   OH249560   1.036   1.827  15.910 -0.4978 -0.1940  0.3562
 9382TIP3    H149561   1.110   1.835  15.971  0.5467  2.6452 -1.0519
 9382TIP3    H249562   1.065   1.762  15.846  0.1762 -0.2085  0.6589
 9383TIP3   OH249563   0.074   5.171   2.262 -0.0403 -0.4233  0.4641
 9383TIP3    H149564   0.015   5.241   2.289  0.8145  1.1507 -1.4967
 9383TIP3    H249565   0.112   5.139   2.344 -1.2234  0.6942  1.4942
 9384TIP3   OH249566   6.400   3.547  13.289 -0.4107 -0.3295 -0.2692
 9384TIP3    H149567   6.462   3.517  13.223  1.6809 -0.6212  1.7132
 9384TIP3    H249568   6.435   3.513  13.372 -1.6747  1.9171  1.2780
 9385TIP3   OH249569   5.329   3.006  14.605  0.1377 -0.1126  0.8292
 9385TIP3    H149570   5.402   2.956  14.641  0.6060  0.2527  0.4108
 9385TIP3    H249571   5.356   3.098  14.614  0.0133  0.0056  0.0924
 9386TIP3   OH249572   0.961   6.081  15.040 -0.3746 -0.6389  0.0767
 9386TIP3    H149573   0.910   6.055  14.963 -0.7911 -0.7436  0.3788
 9386TIP3    H249574   0.951   6.176  15.044 -0.4635 -0.6476  0.0753
 9387TIP3   OH249575   3.934   0.391   5.160  0.7337  0.5457 -0.7369
 9387TIP3    H149576   3.877   0.402   5.237  1.4256 -0.8510  0.0170
 9387TIP3    H249577   4.014   0.352   5.195  2.3264  2.7044 -1.7242
 9388TIP3   OH249578   1.202   5.841   5.411  0.1561 -0.1053 -0.0609
 9388TIP3    H149579   1.291   5.868   5.385  0.0420  0.5293  0.1905
 9388TIP3    H249580   1.200   5.855   5.506 -0.3671  0.3305 -0.1366
 9389TIP3   OH249581   1.658   5.517   2.356 -0.1659  0.0039  0.3314
 9389TIP3    H149582   1.714   5.514   2.278  0.4264 -1.9423  0.7747
 9389TIP3    H249583   1.715   5.551   2.425 -0.6565  1.6130 -0.0109
 9390TIP3   OH249584   3.972   3.445   0.269 -0.0035 -0.2969  0.1139
 9390TIP3    H149585   3.930   3.464   0.185 -1.8023 -1.6493  0.6501
 9390TIP3    H249586   3.946   3.356   0.289  0.8945 -0.2087  1.8478
 9391TIP3   OH249587   1.689   1.797   6.436  0.2646  0.1168 -0.6869
 9391TIP3    H149588   1.740   1.864   6.481  0.7917 -0.1274 -0.9101
 9391TIP3    H249589   1.602   1.836   6.426 -0.8600 -0.9742  3.3030
 9392TIP3   OH249590   6.513   3.122  14.801 -0.4045  0.1328  0.6424
 9392TIP3    H149591   6.602   3.143  14.775 -1.0830  1.2368 -0.9039
 9392TIP3    H249592   6.491   3.042  14.752 -0.9516  1.0201 -0.5949
 9393TIP3   OH249593   0.492   0.469  11.356 -0.0886 -0.2872  0.1496
 9393TIP3    H149594   0.414   0.506  11.314  1.2606  0.3031 -1.9741
 9393TIP3    H249595   0.554   0.456  11.284  1.0047 -2.8569  1.4233
 9394TIP3   OH249596   1.227   5.776   5.131 -0.0491 -0.3973 -0.4183
 9394TIP3    H149597   1.220   5.685   5.102  1.2973 -0.8919  0.7117
 9394TIP3    H249598   1.321   5.792   5.137 -0.0614 -0.6237  4.3380
 9395TIP3   OH249599   2.642   0.135  11.196 -0.1770  0.0654  0.1021
 9395TIP3    H149600   2.684   0.092  11.121  1.0663 -0.2920  0.9658
 9395TIP3    H249601   2.713   0.182  11.240 -0.4934 -1.1141  2.0160
 9396TIP3   OH249602   4.131   2.012  13.795 -0.1881  0.1669 -0.1930
 9396TIP3    H149603   4.219   2.047  13.808  0.4441 -1.1094 -0.9293
 9396TIP3    H249604   4.087   2.078  13.740  0.1598  0.9959  0.5001
 9397TIP3   OH249605   1.576   5.158   3.839 -0.0786  0.0680  0.8477
 9397TIP3    H149606   1.634   5.092   3.878 -0.0961 -0.7654 -0.4601
 9397TIP3    H249607   1.579   5.139   3.745 -2.0049  0.3732  0.6884
 9398TIP3   OH249608   1.446   3.139  11.643  0.6789  0.3961  0.2199
 9398TIP3    H149609   1.399   3.217  11.615  2.3352  1.5781  0.5915
 9398TIP3    H249610   1.501   3.168  11.716  4.3992 -0.0187 -2.1257
 9399TIP3   OH249611   0.274   3.430  12.007 -0.5244  0.4085 -0.3797
 9399TIP3    H149612   0.291   3.408  11.915 -0.1275  0.8932 -0.4253
 9399TIP3    H249613   0.356   3.408  12.052  0.0058  2.0776 -0.4765
 9400TIP3   OH249614   2.419   5.335  17.416  0.2225 -0.2800 -0.1425
 9400TIP3    H149615   2.361   5.279  17.468 -0.3994  0.9551  0.5211
 9400TIP3    H249616   2.372   5.347  17.334  0.2685 -0.5532 -0.2116
 9401TIP3   OH249617   2.839   2.424   0.431  0.1367  0.7352 -0.3795
 9401TIP3    H149618   2.851   2.518   0.443 -1.3625  0.9868 -0.6149
 9401TIP3    H249619   2.864   2.408   0.340 -0.1024  0.9972 -0.4914
 9402TIP3   OH249620   5.996   3.554  12.136  0.3549 -0.2995 -0.3074
 9402TIP3    H149621   6.014   3.546  12.229  0.9750 -3.0234 -0.5545
 9402TIP3    H249622   6.065   3.611  12.102 -0.4244  1.5006  0.9724
 9403TIP3   OH249623   4.227   0.611   4.264  0.4786 -0.0010 -0.3585
 9403TIP3    H149624   4.145   0.647   4.229 -1.4856 -2.1779  1.5558
 9403TIP3    H249625   4.215   0.516   4.259  2.9026 -0.3818  0.0304
 9404TIP3   OH249626   3.175   0.151   1.650  0.5017 -0.2394 -0.7439
 9404TIP3    H149627   3.126   0.234   1.645 -1.5344 -1.2068  1.3302
 9404TIP3    H249628   3.117   0.087   1.609  0.4199 -1.2403  0.8528
 9405TIP3   OH249629   5.705   1.172  13.138  0.3326 -0.1127 -0.0126
 9405TIP3    H149630   5.763   1.195  13.065 -0.6292 -3.1230 -1.8936
 9405TIP3    H249631   5.694   1.077  13.132 -2.2092 -0.0882  2.2450
 9406TIP3   OH249632   3.593   5.670   0.520  0.1061  0.0503  0.5053
 9406TIP3    H149633   3.674   5.686   0.570 -0.4077  1.0329  1.0666
 9406TIP3    H249634   3.527   5.652   0.587  0.0320 -1.6429  0.0027
 9407TIP3   OH249635   5.914   4.251  12.558 -0.2598 -0.1886 -0.1798
 9407TIP3    H149636   5.992   4.203  12.528 -1.4055 -1.8558 -0.6124
 9407TIP3    H249637   5.911   4.235  12.652 -0.3183 -0.4829 -0.2312
 9408TIP3   OH249638   5.087   0.393  12.828 -0.3729 -0.1450  0.0966
 9408TIP3    H149639   5.076   0.341  12.748 -3.3748  2.2932 -1.2772
 9408TIP3    H249640   5.181   0.408  12.834 -0.0981  0.9797 -4.0437
 9409TIP3   OH249641   0.964   0.167  11.038 -0.1460  0.7045  0.8324
 9409TIP3    H149642   0.919   0.148  11.120 -2.4324 -1.3036 -0.7131
 9409TIP3    H249643   0.894   0.192  10.978  1.1599  0.2081 -0.9957
 9410TIP3   OH249644   3.691   1.943  16.874 -0.3218  0.5218 -0.3793
 9410TIP3    H149645   3.752   2.005  16.835 -0.5026  0.5065 -0.6972
 9410TIP3    H249646   3.611   1.954  16.823 -1.2421  1.9392  1.2545
 9411TIP3   OH249647   0.213   2.918  13.417 -0.2120  0.2114  0.0313
 9411TIP3    H149648   0.204   2.835  13.372 -1.5979  0.2757  0.1601
 9411TIP3    H249649   0.126   2.936  13.453  0.5319  0.7588  1.6804
 9412TIP3   OH249650   5.329   2.818   3.966  0.5425 -0.4398 -0.8370
 9412TIP3    H149651   5.273   2.801   4.042  0.1956 -2.6369 -1.5434
 9412TIP3    H249652   5.277   2.793   3.890  2.1918 -1.9253 -1.5648
 9413TIP3   OH249653   3.047   1.771   0.625 -0.3350  0.0130  0.1227
 9413TIP3    H149654   3.119   1.721   0.663  0.0595  0.1755 -0.4022
 9413TIP3    H249655   3.058   1.760   0.530 -1.4375 -0.5805  0.0411
 9414TIP3   OH249656   5.057   5.571   6.780  0.2845  0.0696 -0.1676
 9414TIP3    H149657   4.976   5.617   6.761 -0.5622 -1.2226  0.1768
 9414TIP3    H249658   5.030   5.495   6.832  1.2541 -2.2094 -2.7346
 9415TIP3   OH249659   2.782   3.545   1.489  0.2943  0.6890 -0.2981
 9415TIP3    H149660   2.712   3.501   1.441  0.4646 -0.0051  0.0782
 9415TIP3    H249661   2.856   3.485   1.482  0.0233  0.0589  1.7386
 9416TIP3   OH249662   2.284   6.477   3.639 -0.1049  0.3301  0.3296
 9416TIP3    H149663   2.311   6.391   3.672 -2.6982 -0.5266  0.4786
 9416TIP3    H249664   2.309   6.475   3.547  0.2597 -0.4225  0.4329
 9417TIP3   OH249665   6.331   0.898  11.411 -0.3610  0.2515  0.0801
 9417TIP3    H149666   6.270   0.932  11.345  1.2679  3.6527  0.0711
 9417TIP3    H249667   6.392   0.843  11.363 -0.1691  1.3708 -1.0027
 9418TIP3   OH249668   3.247   4.051   2.721 -0.7049 -0.4519  0.8911
 9418TIP3    H149669   3.269   4.144   2.717 -1.4912 -0.3103 -0.5448
 9418TIP3    H249670   3.311   4.015   2.782  0.7687  0.7051  0.1037
 9419TIP3   OH249671   6.177   4.872  15.274  0.4632 -0.0293  0.4597
 9419TIP3    H149672   6.168   4.839  15.184  1.0719  0.4372  0.2202
 9419TIP3    H249673   6.136   4.805  15.328  1.8648 -1.3229  0.0055
 9420TIP3   OH249674   2.057   0.618   5.541  0.4287 -0.7114 -0.4847
 9420TIP3    H149675   2.015   0.699   5.570 -0.2677 -0.6515 -1.6014
 9420TIP3    H249676   2.148   0.627   5.568  0.5281  0.7612 -1.1875
 9421TIP3   OH249677   1.467   4.798  12.203 -0.0731 -0.3571  0.8012
 9421TIP3    H149678   1.496   4.835  12.120 -0.2000  1.8015  1.6697
 9421TIP3    H249679   1.460   4.704  12.185 -0.9820  0.1162 -1.8963
 9422TIP3   OH249680   5.087   4.159  12.360  0.1656 -0.2322 -0.4513
 9422TIP3    H149681   5.149   4.142  12.288  0.7571  0.0466 -0.0173
 9422TIP3    H249682   5.140   4.201  12.428 -0.3980 -0.4502  0.1327
 9423TIP3   OH249683   4.746   6.524   1.080 -0.4679 -0.1076  0.1175
 9423TIP3    H149684   4.723   6.495   0.991 -1.1561 -1.6591  0.7768
 9423TIP3    H249685   4.676   6.586   1.103  0.1543  0.9375 -0.7026
 9424TIP3   OH249686   6.595   4.615  16.071 -0.1764  0.1122 -0.2848
 9424TIP3    H149687   6.534   4.565  16.017  0.9465 -2.9310  1.0431
 9424TIP3    H249688   6.573   4.590  16.161  0.0565  2.5958  0.5337
 9425TIP3   OH249689   3.651   0.485  13.048 -0.1170  0.2735 -0.5775
 9425TIP3    H149690   3.600   0.486  13.130 -0.6672  1.0941 -0.9179
 9425TIP3    H249691   3.726   0.541  13.066  0.1796 -0.1825 -0.3811
 9426TIP3   OH249692   4.409   5.585   6.377  0.3130 -0.8470  0.2801
 9426TIP3    H149693   4.361   5.650   6.326  0.9014 -2.4560 -2.4737
 9426TIP3    H249694   4.348   5.559   6.446 -0.7825  0.8558  0.0287
 9427TIP3   OH249695   2.500   1.476  12.625 -0.1718  0.7042 -0.5887
 9427TIP3    H149696   2.412   1.513  12.626 -0.1681  0.8372 -2.1595
 9427TIP3    H249697   2.529   1.487  12.534  1.5755  0.9269 -0.0404
 9428TIP3   OH249698   3.255   0.089   5.658  0.0224 -0.1453  0.2032
 9428TIP3    H149699   3.198   0.025   5.700 -1.0620  0.5020 -0.2268
 9428TIP3    H249700   3.257   0.163   5.718  0.9392 -0.3974  0.5065
 9429TIP3   OH249701   5.617   3.853   5.828 -0.1463 -0.1447  0.0424
 9429TIP3    H149702   5.657   3.801   5.758  0.3249  0.6946 -0.3207
 9429TIP3    H249703   5.671   3.835   5.905  1.1507  1.1855 -0.5042
 9430TIP3   OH249704   6.366   4.478   5.515 -0.4241 -0.0780  0.9809
 9430TIP3    H149705   6.289   4.443   5.470  0.3119 -0.4959  0.0088
 9430TIP3    H249706   6.331   4.528   5.589 -1.6262 -0.0662  0.4135
 9431TIP3   OH249707   6.367   3.471   1.202 -0.3628 -0.4931  0.0038
 9431TIP3    H149708   6.319   3.533   1.257 -1.2994 -1.3459  0.1764
 9431TIP3    H249709   6.366   3.511   1.115  0.4299  0.4796  0.4268
 9432TIP3   OH249710   0.470   2.270  16.185  1.0067 -0.2464 -0.4475
 9432TIP3    H149711   0.564   2.289  16.189  0.8416  0.4227  0.9113
 9432TIP3    H249712   0.437   2.328  16.116  1.1213  1.9244  1.1903
 9433TIP3   OH249713   6.563   6.275   4.214 -0.2496 -0.3636  0.8039
 9433TIP3    H149714   6.515   6.304   4.136 -1.5363 -0.9746  1.3434
 9433TIP3    H249715   6.559   6.350   4.274 -2.5653 -1.1335  1.7359
 9434TIP3   OH249716   5.902   5.748  17.205  0.5693  0.2539 -0.1538
 9434TIP3    H149717   5.906   5.831  17.253 -0.3628  2.4356 -3.5225
 9434TIP3    H249718   5.810   5.725  17.205  0.5467  0.3284 -0.9174
 9435TIP3   OH249719   5.825   3.769   0.764 -0.2842 -0.5068 -0.5701
 9435TIP3    H149720   5.920   3.761   0.772 -0.1134  0.3402 -1.5393
 9435TIP3    H249721   5.807   3.861   0.784 -1.2112 -1.1909  2.0552
 9436TIP3   OH249722   1.074   0.746   0.548 -0.2424  0.0780  0.5369
 9436TIP3    H149723   1.100   0.805   0.619  0.7006  1.2669 -0.7565
 9436TIP3    H249724   0.982   0.727   0.566 -0.0572  0.3973  2.0320
 9437TIP3   OH249725   1.359   3.157  14.956  0.0615 -0.3569  0.0320
 9437TIP3    H149726   1.377   3.171  14.863  1.9330  1.6412  0.5905
 9437TIP3    H249727   1.398   3.233  14.999 -1.0501 -1.0531  2.4443
 9438TIP3   OH249728   0.943   0.436  14.110 -0.0436  0.3859  0.1508
 9438TIP3    H149729   0.890   0.514  14.092  0.3468 -0.0328 -3.8092
 9438TIP3    H249730   1.031   0.460  14.081 -0.1461 -1.7307 -2.3121
 9439TIP3   OH249731   1.930   1.112   4.384  0.0718  0.7427 -0.4188
 9439TIP3    H149732   1.863   1.119   4.317 -2.4902 -0.6006  1.8004
 9439TIP3    H249733   1.883   1.125   4.467  2.8225  1.0910  1.2117
 9440TIP3   OH249734   4.238   5.944  14.163  1.2636  0.2156  0.0255
 9440TIP3    H149735   4.184   5.865  14.164  0.8944  0.4767  0.9389
 9440TIP3    H249736   4.182   6.010  14.123  0.7875  0.5551  1.2134
 9441TIP3   OH249737   2.333   5.971  14.347 -0.3663 -0.5754 -0.2790
 9441TIP3    H149738   2.318   6.043  14.286 -0.5589 -0.9808 -0.7152
 9441TIP3    H249739   2.326   6.011  14.434  1.8102  0.4128 -0.4947
 9442TIP3   OH249740   0.581   1.984  13.068 -0.2339 -0.0281 -0.2926
 9442TIP3    H149741   0.645   2.025  13.009 -0.3249  0.7836  0.1558
 9442TIP3    H249742   0.497   1.997  13.024 -0.1247 -0.9200 -0.7871
 9443TIP3   OH249743   6.194   3.010   0.462 -0.2702  0.4828  0.1210
 9443TIP3    H149744   6.147   3.033   0.381 -1.5829 -1.3422  0.2835
 9443TIP3    H249745   6.263   2.951   0.433 -0.1186  0.6091  0.2264
 9444TIP3   OH249746   5.776   1.526  16.710  0.1540 -0.2203  0.1243
 9444TIP3    H149747   5.779   1.589  16.638 -0.7524 -1.6075 -1.1851
 9444TIP3    H249748   5.764   1.580  16.789  0.6313  1.2988 -0.8047
 9445TIP3   OH249749   3.168   1.781  15.930 -0.2862  0.3117  0.2680
 9445TIP3    H149750   3.084   1.751  15.967 -0.6412 -0.3909 -1.0354
 9445TIP3    H249751   3.143   1.842  15.860  0.2667 -0.2084 -0.3946
 9446TIP3   OH249752   4.275   6.294   0.758 -0.4931  0.1245  0.1873
 9446TIP3    H149753   4.194   6.335   0.787 -1.9960 -1.8627 -0.9846
 9446TIP3    H249754   4.299   6.341   0.678 -1.5977 -0.4949 -0.5383
 9447TIP3   OH249755   3.494   0.124   6.002 -0.5407  0.0986  0.0710
 9447TIP3    H149756   3.549   0.050   6.028 -2.5639 -0.9304  1.7366
 9447TIP3    H249757   3.456   0.156   6.084  0.6074  3.3637 -0.5140
 9448TIP3   OH249758   6.456   6.044   3.412  0.7867 -0.7101 -0.9349
 9448TIP3    H149759   6.454   6.093   3.330 -0.2717  1.3450  0.2248
 9448TIP3    H249760   6.525   6.085   3.464  0.3603 -0.9064 -0.1906
 9449TIP3   OH249761   1.909   0.774  14.382  0.6070  0.3053  0.0783
 9449TIP3    H149762   1.913   0.854  14.435  0.7497  0.4985 -0.2193
 9449TIP3    H249763   1.963   0.711  14.429  0.5352  0.4004  0.2894
 9450TIP3   OH249764   5.810   4.579   3.407  0.0105  0.6608  0.2054
 9450TIP3    H149765   5.854   4.635   3.471  1.0860  1.4501 -1.1665
 9450TIP3    H249766   5.817   4.491   3.445  1.6158  0.9468  0.6884
 9451TIP3   OH249767   6.727   2.247   3.412 -0.2826  0.1091  0.0081
 9451TIP3    H149768   6.805   2.230   3.359 -1.3819 -0.7751 -1.3877
 9451TIP3    H249769   6.663   2.281   3.349 -0.5918  2.3007  1.3874
 9452TIP3   OH249770   2.210   3.747  15.897 -0.9099  0.4350  0.3699
 9452TIP3    H149771   2.207   3.828  15.947 -2.0113 -0.9217  2.6479
 9452TIP3    H249772   2.296   3.710  15.917 -1.1213  0.1783  0.8277
 9453TIP3   OH249773   5.602   2.008   3.639 -0.0731  0.1850 -0.1313
 9453TIP3    H149774   5.674   2.034   3.696  0.0438 -1.6594  0.6108
 9453TIP3    H249775   5.557   1.939   3.687 -2.0026  0.8878 -0.8450
 9454TIP3   OH249776   1.834   1.878  12.759 -0.5046  0.2820 -0.1663
 9454TIP3    H149777   1.867   1.966  12.778 -2.6251  0.6549  2.5048
 9454TIP3    H249778   1.874   1.822  12.826  0.9720 -0.9153 -1.9531
 9455TIP3   OH249779   3.565   5.407  15.569 -0.3702 -0.3242 -0.1428
 9455TIP3    H149780   3.493   5.375  15.515 -1.6454 -1.0815  1.9043
 9455TIP3    H249781   3.567   5.349  15.645  2.7292 -0.6161 -0.3073
 9456TIP3   OH249782   1.531   5.532  16.494  0.6225  1.0934  0.7762
 9456TIP3    H149783   1.452   5.533  16.547 -0.9883  2.2266 -1.4656
 9456TIP3    H249784   1.560   5.623  16.492  1.1757  0.9147  0.4825
 9457TIP3   OH249785   4.512   3.346  14.168  0.6234 -0.0447  0.2307
 9457TIP3    H149786   4.542   3.268  14.121  2.4243  0.0880  1.0756
 9457TIP3    H249787   4.480   3.312  14.252 -0.5605 -0.0579 -0.2070
 9458TIP3   OH249788   5.870   4.884   2.955  0.1909 -0.3644  0.5334
 9458TIP3    H149789   5.854   4.790   2.960 -3.5459  0.0739 -0.0624
 9458TIP3    H249790   5.843   4.918   3.040  2.7878  0.1442  1.2497
 9459TIP3   OH249791   5.666   3.065   0.781  0.4338  0.3702 -0.3800
 9459TIP3    H149792   5.573   3.058   0.761  0.6195 -0.2159 -1.0824
 9459TIP3    H249793   5.697   2.974   0.783  1.2410  0.5969 -1.4373
 9460TIP3   OH249794   4.622   1.287   4.967 -0.4486  0.0002 -0.1084
 9460TIP3    H149795   4.623   1.258   4.875 -0.5445 -1.3067  0.2858
 9460TIP3    H249796   4.683   1.361   4.969  0.2817 -0.5475 -1.0479
 9461TIP3   OH249797   3.012   1.107  17.108 -0.0552 -0.2125  0.1361
 9461TIP3    H149798   2.978   1.197  17.106  0.7247  0.0860 -0.3641
 9461TIP3    H249799   2.998   1.074  17.020  0.6321 -0.1926  0.0092
 9462TIP3   OH249800   0.517   1.311  10.812 -0.4177  0.5576  0.1682
 9462TIP3    H149801   0.572   1.348  10.881  1.8379 -1.7480 -0.2498
 9462TIP3    H249802   0.545   1.355  10.732  0.3141 -0.0795  0.0669
 9463TIP3   OH249803   6.476   1.638   3.212  0.6208  0.3479 -0.1765
 9463TIP3    H149804   6.497   1.561   3.265  1.2298  0.3282 -0.4425
 9463TIP3    H249805   6.536   1.706   3.244 -1.3322  1.3839  1.5634
 9464TIP3   OH249806   3.523   2.521   4.372 -0.1632  0.7372  0.0784
 9464TIP3    H149807   3.485   2.589   4.427 -1.1599  0.1767  0.1057
 9464TIP3    H249808   3.542   2.449   4.432 -0.5682  0.4043 -0.1881
 9465TIP3   OH249809   6.511   4.053  11.200 -0.2140 -0.9540  0.1224
 9465TIP3    H149810   6.602   4.026  11.186  0.3907  0.0216  1.8540
 9465TIP3    H249811   6.476   3.990  11.262 -0.1453 -0.2975  0.8396
 9466TIP3   OH249812   4.887   1.891   4.970 -0.2993  0.0337  0.1266
 9466TIP3    H149813   4.977   1.923   4.977  0.0202 -0.8705  0.3022
 9466TIP3    H249814   4.847   1.946   4.902  1.1395 -1.2066 -1.8376
 9467TIP3   OH249815   5.985   4.179   0.270  0.3863 -0.6523 -0.0299
 9467TIP3    H149816   5.902   4.143   0.241  0.4795  0.7828 -2.2720
 9467TIP3    H249817   6.036   4.102   0.297 -0.4470 -1.9277 -1.8679
 9468TIP3   OH249818   6.388   6.597  17.293  0.0003 -0.3788  0.4251
 9468TIP3    H149819   6.365   6.505  17.290 -1.5138 -0.0812  1.4168
 9468TIP3    H249820   6.426   6.610  17.380  2.9283 -0.5834 -0.7108
 9469TIP3   OH249821   3.268   1.706  13.565 -0.3209 -0.0540 -0.3562
 9469TIP3    H149822   3.225   1.791  13.577  0.8567  0.2547  2.4281
 9469TIP3    H249823   3.357   1.727  13.537 -0.1195 -0.3786  0.0335
 9470TIP3   OH249824   5.101   6.672  14.136  0.1754 -0.0889 -0.4681
 9470TIP3    H149825   5.083   6.686  14.229  2.0927 -1.2105  0.1142
 9470TIP3    H249826   5.140   6.754  14.107 -1.8490  0.8473 -0.7338
 9471TIP3   OH249827   1.922   5.300  14.337 -0.2587 -0.3002 -0.1757
 9471TIP3    H149828   1.928   5.210  14.304 -1.5227 -0.9054  1.1037
 9471TIP3    H249829   1.981   5.302  14.412  1.2889  0.5644 -1.3560
 9472TIP3   OH249830   3.119   3.029   2.316  0.5777 -0.5149 -0.0809
 9472TIP3    H149831   3.135   2.983   2.234 -1.2047  2.6110 -2.4055
 9472TIP3    H249832   3.188   3.095   2.321 -0.6215  0.8020 -0.3315
 9473TIP3   OH249833   4.132   1.654  13.210 -0.2270  0.6499 -0.3498
 9473TIP3    H149834   4.120   1.666  13.304 -0.0076  0.9963 -0.3624
 9473TIP3    H249835   4.107   1.738  13.172  1.6603  1.2242 -0.4195
 9474TIP3   OH249836   6.454   2.518   6.304 -0.4454 -0.1851 -0.1468
 9474TIP3    H149837   6.416   2.539   6.390 -1.6561 -0.3822 -0.6058
 9474TIP3    H249838   6.383   2.474   6.257 -0.0284  0.5382 -1.5082
 9475TIP3   OH249839   4.044   2.391   0.674 -0.0609 -0.1157 -0.0388
 9475TIP3    H149840   4.081   2.415   0.759 -0.9831  0.9722  0.0838
 9475TIP3    H249841   4.104   2.429   0.610 -0.0326  0.1529  0.1451
 9476TIP3   OH249842   5.815   1.119   2.119  0.1002 -0.2878 -0.1437
 9476TIP3    H149843   5.749   1.188   2.108  2.0722  1.8499  0.6375
 9476TIP3    H249844   5.765   1.043   2.150 -1.9696  1.3080  0.7052
 9477TIP3   OH249845   4.203   5.951  15.987 -0.2229 -0.0859  0.2814
 9477TIP3    H149846   4.273   5.893  16.017  0.3369  0.5396  0.1994
 9477TIP3    H249847   4.128   5.893  15.973 -0.1098 -0.5773  1.6234
 9478TIP3   OH249848   3.294   3.385   3.609 -0.3362 -0.3547  0.2362
 9478TIP3    H149849   3.384   3.388   3.639 -1.0920 -1.1790  2.8286
 9478TIP3    H249850   3.274   3.292   3.603 -1.0839 -0.1821 -0.0667
 9479TIP3   OH249851   4.984   5.552  16.344 -0.3421 -0.2721  0.9952
 9479TIP3    H149852   5.074   5.520  16.351  0.2596  0.5124 -1.9359
 9479TIP3    H249853   4.970   5.602  16.425  1.8570 -0.3497  1.4811
 9480TIP3   OH249854   4.113   4.091  11.013  0.1706 -0.4400  0.6801
 9480TIP3    H149855   4.039   4.039  10.982  1.2229 -0.9451 -1.1426
 9480TIP3    H249856   4.190   4.037  10.994  1.1650  1.0127  0.4075
 9481TIP3   OH249857   6.186   1.817   1.463 -0.0437  0.3851 -0.3231
 9481TIP3    H149858   6.100   1.811   1.420 -0.6712  3.3515  0.2856
 9481TIP3    H249859   6.247   1.838   1.392 -0.0925 -0.1633 -0.5307
 9482TIP3   OH249860   4.335   4.996   3.370  0.3758 -0.2804  0.4137
 9482TIP3    H149861   4.361   5.072   3.421 -1.7131  0.1309  0.9786
 9482TIP3    H249862   4.246   4.977   3.399  0.4807 -2.3318 -0.4475
 9483TIP3   OH249863   6.697   3.101   5.536 -0.1866  0.6812 -0.2450
 9483TIP3    H149864   6.777   3.057   5.565 -1.4180 -0.9590  0.7925
 9483TIP3    H249865   6.677   3.060   5.451 -0.7654 -0.0703  0.2385
 9484TIP3   OH249866   1.325   2.559   4.873 -0.1376 -0.4462 -0.5189
 9484TIP3    H149867   1.390   2.600   4.931 -0.6613  2.1039 -1.5784
 9484TIP3    H249868   1.297   2.481   4.920  1.3418  0.1120  1.4471
 9485TIP3   OH249869   0.288   6.701  17.413  0.6732 -1.0091  0.4799
 9485TIP3    H149870   0.344   6.638  17.457  1.4864 -0.2753  0.5215
 9485TIP3    H249871   0.267   6.766  17.480 -0.6823 -1.5526  0.6090
 9486TIP3   OH249872   1.063   6.546   0.596 -0.9656  0.2025 -0.0712
 9486TIP3    H149873   1.140   6.549   0.539 -0.0159  0.6551  1.2133
 9486TIP3    H249874   1.097   6.553   0.685 -2.5039  0.7417  0.5204
 9487TIP3   OH249875   5.799   3.907  15.189  0.0285  0.2028 -0.1906
 9487TIP3    H149876   5.815   3.951  15.272  2.6443  1.3903 -1.2118
 9487TIP3    H249877   5.704   3.897  15.185 -0.2407  0.8668  2.5255
 9488TIP3   OH249878   1.580   3.935   4.988 -0.0114 -0.2291  0.1347
 9488TIP3    H149879   1.672   3.951   5.010  0.2330  0.7023 -1.3446
 9488TIP3    H249880   1.583   3.859   4.929 -0.5945 -2.3674  2.6683
 9489TIP3   OH249881   0.989   1.822  12.678 -0.1438  0.2009 -0.2301
 9489TIP3    H149882   0.970   1.884  12.749 -0.7755  0.9216 -1.0028
 9489TIP3    H249883   0.995   1.877  12.600  1.3252 -0.4811 -0.6364
 9490TIP3   OH249884   3.085   5.051  10.550  0.1640 -0.5057 -0.1105
 9490TIP3    H149885   3.160   5.023  10.498  0.7868 -1.2915  1.1692
 9490TIP3    H249886   3.025   4.977  10.549 -0.5515  0.0570 -0.9872
 9491TIP3   OH249887   0.163   3.038   3.979  0.0862 -0.6283  0.0184
 9491TIP3    H149888   0.131   2.984   3.906 -1.2858 -0.5736  0.5423
 9491TIP3    H249889   0.245   2.997   4.004  0.0327 -1.3172 -0.8443
 9492TIP3   OH249890   5.948   2.013  12.354  0.3676 -0.4330  0.5459
 9492TIP3    H149891   5.999   2.036  12.276 -0.2077  0.5966  0.4607
 9492TIP3    H249892   5.973   1.922  12.373  1.6729 -0.1963  0.0762
 9493TIP3   OH249893   1.960   3.355  12.094  0.2494  0.2068 -0.8061
 9493TIP3    H149894   1.959   3.427  12.157  1.3640  1.8107 -2.5071
 9493TIP3    H249895   2.037   3.303  12.119 -1.9050 -1.9871  1.9488
 9494TIP3   OH249896   3.313   5.120   2.237  0.8485  0.0895  0.2047
 9494TIP3    H149897   3.343   5.206   2.264  1.5023  0.3904 -1.3770
 9494TIP3    H249898   3.218   5.129   2.229  0.9368  0.7397 -0.1704
 9495TIP3   OH249899   2.763   4.322   5.135  0.2554  0.2348 -0.9403
 9495TIP3    H149900   2.668   4.322   5.142  0.2307 -0.6862 -1.1212
 9495TIP3    H249901   2.789   4.412   5.154 -0.5779  0.2915 -0.0062
 9496TIP3   OH249902   2.284   1.522  12.190  0.5502 -0.2083 -0.6091
 9496TIP3    H149903   2.209   1.540  12.246 -0.2614 -1.9004 -1.0785
 9496TIP3    H249904   2.325   1.444  12.229 -0.5586 -1.9876 -2.7417
 9497TIP3   OH249905   6.406   1.849  17.430  0.0996  0.1020  0.4651
 9497TIP3    H149906   6.401   1.812  17.342  0.4502 -0.2546  0.5883
 9497TIP3    H249907   6.455   1.930  17.419  0.5223 -0.1600  0.3939
 9498TIP3   OH249908   4.989   5.544  15.187  0.3357  1.2440 -0.1089
 9498TIP3    H149909   4.968   5.624  15.236  1.9032  1.4099  0.3522
 9498TIP3    H249910   5.080   5.525  15.210  0.8433  0.8058 -2.2467
 9499TIP3   OH249911   2.840   6.478  14.738 -0.0447 -0.2416  0.4495
 9499TIP3    H149912   2.764   6.512  14.785 -0.7367 -1.2089  0.0731
 9499TIP3    H249913   2.873   6.408  14.794  0.1019 -0.3344  0.2473
 9500TIP3   OH249914   3.568   6.202   1.949  0.4306 -0.0055  0.5771
 9500TIP3    H149915   3.532   6.265   2.011 -1.9047 -0.6850  0.0147
 9500TIP3    H249916   3.660   6.193   1.974  0.5897  2.8303  1.2895
 9501TIP3   OH249917   2.170   1.835   0.182  0.0389 -0.4224  0.1161
 9501TIP3    H149918   2.230   1.893   0.136  0.6036  0.5412  1.9917
 9501TIP3    H249919   2.218   1.752   0.190  1.9026  0.7986  3.0027
 9502TIP3   OH249920   5.608   1.772   2.058  0.3888 -0.6186 -0.1746
 9502TIP3    H149921   5.522   1.806   2.034  0.7307 -0.2614 -0.9038
 9502TIP3    H249922   5.599   1.749   2.151 -0.0743  0.7529  0.1423
 9503TIP3   OH249923   4.026   1.257   3.479 -0.0868 -0.1316  0.0501
 9503TIP3    H149924   4.020   1.183   3.418 -0.3405  1.1559 -1.5700
 9503TIP3    H249925   3.938   1.265   3.515 -0.4908  0.3200 -0.9830
 9504TIP3   OH249926   5.361   4.712   4.468 -0.1953  0.3514  0.2369
 9504TIP3    H149927   5.331   4.802   4.454 -0.7411  0.0550 -0.6338
 9504TIP3    H249928   5.453   4.720   4.495 -0.6585  1.2204  1.6010
 9505TIP3   OH249929   1.610   2.891   3.143  0.4587  0.6210  0.0800
 9505TIP3    H149930   1.566   2.848   3.216 -0.8619  2.0268  0.1560
 9505TIP3    H249931   1.631   2.978   3.176  2.2008  0.4221 -0.3892
 9506TIP3   OH249932   2.861   2.570   2.108  0.2713 -0.1426 -0.1376
 9506TIP3    H149933   2.875   2.664   2.116 -1.0594  0.0235  0.5345
 9506TIP3    H249934   2.828   2.558   2.019  0.7914 -0.0273 -0.3481
 9507TIP3   OH249935   0.750   1.205  14.597 -0.6207 -0.2950  0.1991
 9507TIP3    H149936   0.811   1.264  14.553 -0.1321  0.5068  1.8627
 9507TIP3    H249937   0.802   1.128  14.617 -1.8123 -2.5254 -4.0681
 9508TIP3   OH249938   1.832   4.653  13.572 -0.0275  0.2911 -0.4032
 9508TIP3    H149939   1.804   4.745  13.568  0.4903  0.4382 -0.9203
 9508TIP3    H249940   1.775   4.608  13.510  0.3838  0.4612 -0.9208
 9509TIP3   OH249941   2.838   0.349  15.920  0.7396 -0.6693  0.4782
 9509TIP3    H149942   2.785   0.334  15.842  0.7340  0.4674  0.2552
 9509TIP3    H249943   2.804   0.430  15.958  2.4284  0.2255  0.2002
 9510TIP3   OH249944   6.693   4.968  15.474 -0.1033 -0.4550 -0.0392
 9510TIP3    H149945   6.781   4.952  15.442  0.1721 -0.1138  0.5295
 9510TIP3    H249946   6.685   4.914  15.552  0.1724  0.6779  0.8084
 9511TIP3   OH249947   0.550   6.195  16.044  0.1254  0.3576 -0.1454
 9511TIP3    H149948   0.503   6.222  16.123  1.1817  1.4598  0.1480
 9511TIP3    H249949   0.483   6.157  15.987 -1.0998  1.7592  0.3026
 9512TIP3   OH249950   6.086   5.903  11.525 -0.5626 -0.5162 -0.4439
 9512TIP3    H149951   6.169   5.939  11.557 -0.2468 -1.3864 -0.2522
 9512TIP3    H249952   6.112   5.836  11.462 -1.1536  0.2216 -1.5170
 9513TIP3   OH249953   0.330   3.615   1.045  0.3332  0.0197  0.0739
 9513TIP3    H149954   0.314   3.675   1.118 -0.6534 -0.6870  0.4633
 9513TIP3    H249955   0.292   3.532   1.074  1.1166 -0.6312 -0.7084
 9514TIP3   OH249956   4.200   2.000  11.913  0.6246  0.0914  0.3656
 9514TIP3    H149957   4.136   2.009  11.984  1.0253  0.7893  0.6496
 9514TIP3    H249958   4.206   1.906  11.897 -2.1456  0.0640 -1.2044
 9515TIP3   OH249959   3.851   3.972   1.135  1.1256 -0.7540  0.1141
 9515TIP3    H149960   3.828   4.004   1.048  0.3573 -0.8075  0.2881
 9515TIP3    H249961   3.866   3.878   1.123  1.0073 -0.7630  0.0386
 9516TIP3   OH249962   5.927   0.705  11.649  0.1399 -0.0625  0.1152
 9516TIP3    H149963   5.918   0.647  11.574  0.8118  0.1565 -0.1390
 9516TIP3    H249964   5.845   0.694  11.698  0.6674 -1.9859  0.6351
 9517TIP3   OH249965   5.574   5.470  14.370 -0.3604  0.0851  0.5811
 9517TIP3    H149966   5.580   5.560  14.401 -1.8380 -0.2549  1.9563
 9517TIP3    H249967   5.552   5.419  14.448 -2.1285 -1.0965 -0.6215
 9518TIP3   OH249968   1.310   0.468   4.870  0.3522  0.6463  0.4587
 9518TIP3    H149969   1.378   0.445   4.807  0.7146 -2.7161  1.8540
 9518TIP3    H249970   1.253   0.391   4.873 -1.1586  1.7384  2.3355
 9519TIP3   OH249971   4.317   2.139   2.376 -0.1103  0.6772  0.2081
 9519TIP3    H149972   4.321   2.062   2.319 -0.2143  1.4155 -0.8292
 9519TIP3    H249973   4.230   2.177   2.360 -0.7149  0.1316  1.9282
 9520TIP3   OH249974   5.486   0.639   3.795 -0.4401 -0.2446  0.5860
 9520TIP3    H149975   5.478   0.662   3.703 -0.1523 -1.6846  0.1777
 9520TIP3    H249976   5.400   0.607   3.820 -0.3468 -0.4673  0.6297
 9521TIP3   OH249977   2.455   6.131  16.851 -0.0535 -0.1279 -0.2637
 9521TIP3    H149978   2.392   6.203  16.843 -1.1472 -1.0159  0.0748
 9521TIP3    H249979   2.420   6.062  16.794  0.3449 -0.8285  0.3299
 9522TIP3   OH249980   5.851   1.061   2.712  0.0859 -0.2303  0.3258
 9522TIP3    H149981   5.772   1.115   2.709  1.9194  3.0832  3.4435
 9522TIP3    H249982   5.898   1.083   2.631 -0.5687  0.4770  0.1275
 9523TIP3   OH249983   5.250   1.951  13.401  0.5195  0.0378 -0.2009
 9523TIP3    H149984   5.182   1.885  13.389 -2.7251  2.7880  1.3914
 9523TIP3    H249985   5.259   1.993  13.316 -0.3573  0.1140 -0.2657
 9524TIP3   OH249986   0.838   3.026   5.004  0.2574  0.2543 -0.3329
 9524TIP3    H149987   0.771   3.000   4.940  0.6836  2.1453 -1.6212
 9524TIP3    H249988   0.921   3.013   4.959  0.5626  1.7545 -0.2568
 9525TIP3   OH249989   1.302   4.715   3.492 -0.6127  0.0059  0.1938
 9525TIP3    H149990   1.245   4.779   3.450 -1.3890 -0.7129  0.1240
 9525TIP3    H249991   1.315   4.648   3.425  0.5352  0.2769  0.1187
 9526TIP3   OH249992   3.435   5.136   0.924  0.1657 -0.6151  0.1414
 9526TIP3    H149993   3.511   5.184   0.891  1.3026 -2.6955 -0.4311
 9526TIP3    H249994   3.465   5.099   1.007 -0.5257 -0.7650  0.3276
 9527TIP3   OH249995   3.841   6.158   1.080 -0.1236  0.1196  0.6995
 9527TIP3    H149996   3.838   6.224   1.010  0.5770 -0.5312  0.0286
 9527TIP3    H249997   3.750   6.136   1.096 -0.2722 -0.5480 -0.8457
 9528TIP3   OH249998   3.339   1.916   1.664 -0.0742  0.1291 -0.4506
 9528TIP3    H149999   3.342   1.875   1.577 -0.4039 -0.3247 -0.2534
 9528TIP3    H250000   3.273   1.985   1.655 -1.2174 -0.9003 -0.1563
 9529TIP3   OH250001   5.595   1.232   2.435 -0.6218 -0.3257  0.6167
 9529TIP3    H150002   5.557   1.156   2.390  0.0285  0.1081 -0.7421
 9529TIP3    H250003   5.556   1.307   2.390 -1.5034  0.1750  2.1600
 9530TIP3   OH250004   1.076   3.265  16.845  0.4272  0.7373 -0.6007
 9530TIP3    H150005   1.105   3.323  16.916  1.6027  1.0396 -1.3023
 9530TIP3    H250006   1.131   3.187  16.855  0.4447  0.6925 -1.0491
 9531TIP3   OH250007   5.092   3.577  11.996  0.4069  0.8596  0.3635
 9531TIP3    H150008   5.173   3.530  11.974 -0.3811  0.0126 -0.9047
 9531TIP3    H250009   5.025   3.509  11.997 -0.5979  1.7947 -0.4940
 9532TIP3   OH250010   5.078   5.222   4.185 -0.1692 -0.1725 -0.1944
 9532TIP3    H150011   5.145   5.260   4.242 -0.0561 -1.6256  0.6866
 9532TIP3    H250012   5.045   5.146   4.233  0.3434 -1.8274 -2.2910
 9533TIP3   OH250013   6.009   1.216  12.466  0.1900  0.0651 -0.0001
 9533TIP3    H150014   5.923   1.213  12.425  0.5291  1.3967 -0.8757
 9533TIP3    H250015   6.028   1.125  12.489  0.5634 -1.0812 -4.0764
 9534TIP3   OH250016   5.500   3.985  12.118 -0.1734 -0.1842  0.2737
 9534TIP3    H150017   5.593   4.004  12.107 -0.7753  2.6459 -0.9230
 9534TIP3    H250018   5.479   3.925  12.046  0.4826  0.1578 -0.2147
 9535TIP3   OH250019   0.712   1.143   2.030 -0.0125  0.6876 -0.2648
 9535TIP3    H150020   0.657   1.070   2.059  1.6931 -0.7285 -0.4037
 9535TIP3    H250021   0.766   1.105   1.960  1.2838  1.9444  0.0277
 9536TIP3   OH250022   0.635   5.513   0.586 -0.2263 -0.2083 -0.0245
 9536TIP3    H150023   0.641   5.418   0.581  1.1209 -0.0887 -2.1799
 9536TIP3    H250024   0.676   5.536   0.669  0.8458 -1.4479 -0.1837
 9537TIP3   OH250025   5.964   5.533  12.385 -0.1630  0.6311  0.6888
 9537TIP3    H150026   5.896   5.590  12.349 -0.3974 -0.4340 -0.6476
 9537TIP3    H250027   5.948   5.533  12.479 -1.9827  0.4639  0.4150
 9538TIP3   OH250028   6.450   1.235  16.011  0.0759 -0.4175 -0.2168
 9538TIP3    H150029   6.462   1.141  16.003  1.0610 -0.2169 -1.2606
 9538TIP3    H250030   6.473   1.270  15.925 -0.9189  0.7221 -0.0505
 9539TIP3   OH250031   2.644   6.263   3.401 -0.1035  0.4640  0.4165
 9539TIP3    H150032   2.687   6.215   3.472 -0.1234  2.1129  1.5948
 9539TIP3    H250033   2.712   6.278   3.336  0.1351 -0.2825  0.4871
 9540TIP3   OH250034   0.501   2.221   1.088 -0.2138 -0.0011 -0.7140
 9540TIP3    H150035   0.544   2.142   1.054 -1.6256 -0.8288 -0.6395
 9540TIP3    H250036   0.528   2.226   1.180 -1.6623 -1.5670 -0.1434
 9541TIP3   OH250037   2.878   6.631   0.937  0.3766 -0.3540  0.0123
 9541TIP3    H150038   2.943   6.563   0.954  0.8043  0.1325  0.3325
 9541TIP3    H250039   2.929   6.706   0.908 -0.1530 -0.4166 -1.1692
 9542TIP3   OH250040   6.674   1.138  17.253 -0.3720  0.1608 -0.4021
 9542TIP3    H150041   6.658   1.134  17.347 -0.3965  1.8301 -0.3008
 9542TIP3    H250042   6.592   1.108  17.213 -1.1557  1.4836  0.1354
 9543TIP3   OH250043   1.906   1.306  16.401  0.2007  0.7533 -0.1887
 9543TIP3    H150044   1.896   1.281  16.309  0.0698 -0.0098  0.0293
 9543TIP3    H250045   1.878   1.229  16.450  0.8494  0.9395  0.4894
 9544TIP3   OH250046   5.200   5.420  12.525 -0.2841 -0.0078  0.2720
 9544TIP3    H150047   5.281   5.420  12.474  0.5895  1.6015  1.5716
 9544TIP3    H250048   5.187   5.328  12.549  1.0248 -0.3237 -0.1473
 9545TIP3   OH250049   1.589   2.498  16.895  0.1853 -0.1135  0.6833
 9545TIP3    H150050   1.619   2.426  16.839 -0.2874 -0.0269  0.3106
 9545TIP3    H250051   1.663   2.558  16.898  0.1542 -0.0326  0.0011
 9546TIP3   OH250052   1.152   3.530   3.005 -0.5825  0.1278 -0.0247
 9546TIP3    H150053   1.125   3.473   2.934  3.3219 -1.9604 -0.1267
 9546TIP3    H250054   1.228   3.578   2.970  0.8646 -0.2555  2.3362
 9547TIP3   OH250055   2.076   5.966   1.410 -0.2112 -0.4517 -0.7656
 9547TIP3    H150056   2.055   5.873   1.421  0.4436 -0.5814 -0.5779
 9547TIP3    H250057   2.044   6.008   1.490 -1.9810 -0.2371 -1.5310
 9548TIP3   OH250058   4.999   5.277   3.572  0.4759 -0.1220  0.5380
 9548TIP3    H150059   5.092   5.282   3.593  0.7152 -0.6542 -0.3402
 9548TIP3    H250060   4.962   5.220   3.639  0.6981  0.4460  1.1502
 9549TIP3   OH250061   1.671   5.468  16.999  0.6616  0.0826  0.3297
 9549TIP3    H150062   1.679   5.563  17.000  1.0885  0.1350  3.4580
 9549TIP3    H250063   1.639   5.446  17.087  1.7378 -2.7145  0.1275
 9550TIP3   OH250064   6.382   2.719  13.798  0.3892  0.0386 -0.0797
 9550TIP3    H150065   6.412   2.714  13.707 -0.9734  1.8828 -0.6933
 9550TIP3    H250066   6.288   2.734  13.791  0.4348  1.4132  1.5873
 9551TIP3   OH250067   0.114   3.827  17.187 -0.7339  0.2755  0.2248
 9551TIP3    H150068   0.063   3.783  17.119 -1.3338 -0.7419  1.2953
 9551TIP3    H250069   0.204   3.824  17.155 -1.1267  0.6565 -0.9498
 9552TIP3   OH250070   5.263   2.244   4.974 -0.3094 -0.4275  0.8785
 9552TIP3    H150071   5.263   2.299   4.896  0.9963 -0.7814  0.5962
 9552TIP3    H250072   5.237   2.304   5.045  0.4155  0.4054  0.4727
 9553TIP3   OH250073   3.432   2.143   5.686 -0.4915 -0.3209 -0.5070
 9553TIP3    H150074   3.482   2.223   5.670 -1.3727  0.0525 -1.4766
 9553TIP3    H250075   3.388   2.124   5.603 -1.3908 -1.0384  0.1051
 9554TIP3   OH250076   3.768   4.920   1.227 -0.2230 -0.6038  0.0787
 9554TIP3    H150077   3.796   4.830   1.246  0.1503 -0.4551  0.2410
 9554TIP3    H250078   3.824   4.974   1.283 -2.1981 -0.3924  2.0201
 9555TIP3   OH250079   5.137   0.623   5.270 -0.2718 -0.8537  0.2959
 9555TIP3    H150080   5.212   0.682   5.281 -0.9331 -0.3509  2.4454
 9555TIP3    H250081   5.116   0.630   5.176  0.3527  1.5214  0.2526
 9556TIP3   OH250082   3.839   1.141   5.152 -0.4617  0.3399  0.0222
 9556TIP3    H150083   3.901   1.176   5.216 -0.9066  1.2946 -0.0591
 9556TIP3    H250084   3.887   1.144   5.069 -1.6755  4.3865 -0.7298
 9557TIP3   OH250085   6.543   0.201  14.614  0.2733  0.3359  0.2270
 9557TIP3    H150086   6.615   0.255  14.583  0.5237 -0.2631 -0.2724
 9557TIP3    H250087   6.468   0.261  14.620  0.8856  1.0258  1.0559
 9558TIP3   OH250088   1.269   4.223   3.083 -0.2287  0.2136 -0.0729
 9558TIP3    H150089   1.301   4.303   3.042 -0.4876  0.4270  0.1332
 9558TIP3    H250090   1.296   4.153   3.024  0.7054  0.3743  0.1463
 9559TIP3   OH250091   1.080   2.538   6.977  0.4276  0.5591 -0.2723
 9559TIP3    H150092   1.133   2.617   6.975  0.2109  0.7469  0.7668
 9559TIP3    H250093   0.995   2.565   6.943  0.2293  0.8803  0.4670
 9560TIP3   OH250094   5.533   4.436   2.610 -0.3085  0.6463 -0.3320
 9560TIP3    H150095   5.522   4.529   2.630 -0.2823  0.4594  0.6481
 9560TIP3    H250096   5.625   4.417   2.631 -0.0665  0.5860 -1.3868
 9561TIP3   OH250097   4.786   1.308   3.682  0.3968 -0.0571 -0.7038
 9561TIP3    H150098   4.764   1.362   3.758 -0.1869  0.1820 -1.0459
 9561TIP3    H250099   4.822   1.369   3.618  1.8065 -0.3922 -0.2733
 9562TIP3   OH250100   6.172   5.335  14.769  0.1091 -0.0448 -0.1139
 9562TIP3    H150101   6.174   5.314  14.676 -1.8516 -0.5230 -0.0960
 9562TIP3    H250102   6.264   5.336  14.796  0.7315  0.5745 -2.1300
 9563TIP3   OH250103   3.599   2.703   3.907 -0.4081  0.2938 -0.2642
 9563TIP3    H150104   3.595   2.611   3.932 -1.4305  0.1561 -0.8458
 9563TIP3    H250105   3.606   2.751   3.990 -0.9779 -0.2647  0.1159
 9564TIP3   OH250106   1.158   6.468  15.138  0.7263 -0.0776  0.3179
 9564TIP3    H150107   1.111   6.429  15.064  1.3487 -2.1842  0.9574
 9564TIP3    H250108   1.230   6.517  15.098  0.5277 -0.4477 -0.5160
 9565TIP3   OH250109   1.617   0.910   1.366 -0.0342  0.1892 -0.4043
 9565TIP3    H150110   1.681   0.852   1.325  0.2883  0.4892 -0.3277
 9565TIP3    H250111   1.635   0.904   1.460 -0.1494  0.2396 -0.3781
 9566TIP3   OH250112   2.007   3.800  14.283  0.1179  0.5540  1.0809
 9566TIP3    H150113   1.921   3.825  14.249  0.6626  1.3522  0.2250
 9566TIP3    H250114   2.004   3.705  14.289  0.0922  0.3093 -1.6096
 9567TIP3   OH250115   2.835   2.648   4.113 -0.0297 -0.6940 -0.0824
 9567TIP3    H150116   2.878   2.654   4.198  1.7278 -1.0086 -0.9027
 9567TIP3    H250117   2.815   2.739   4.090  0.0124 -0.5561  0.4020
 9568TIP3   OH250118   5.333   4.257   4.224 -0.2637  0.9724  0.1567
 9568TIP3    H150119   5.373   4.297   4.147 -0.8629  0.8618 -0.2159
 9568TIP3    H250120   5.298   4.330   4.274 -0.0130  1.0308  0.2495
 9569TIP3   OH250121   4.439   4.478   4.736 -0.3216  0.2455 -0.3220
 9569TIP3    H150122   4.528   4.468   4.769 -0.2403  0.3121 -0.5225
 9569TIP3    H250123   4.444   4.455   4.644 -0.7595 -1.0024 -0.0505
 9570TIP3   OH250124   0.627   4.099   4.417  0.0368  0.0466 -0.1490
 9570TIP3    H150125   0.597   4.016   4.379 -0.0206  0.8134 -1.8437
 9570TIP3    H250126   0.718   4.082   4.443 -0.2392 -0.7868  0.3167
 9571TIP3   OH250127   5.624   5.560   4.808 -0.5194  0.3873 -0.1739
 9571TIP3    H150128   5.691   5.600   4.863  1.5282 -1.8979 -0.8032
 9571TIP3    H250129   5.606   5.625   4.740  2.3438  0.5336 -0.9250
 9572TIP3   OH250130   4.435   1.577   0.385  0.2014  0.0451 -0.1919
 9572TIP3    H150131   4.416   1.520   0.459  1.9750  0.6353  0.7928
 9572TIP3    H250132   4.479   1.653   0.424  1.0679  0.4404 -1.8312
 9573TIP3   OH250133   5.913   0.495   0.527 -0.4892 -0.0567 -0.3548
 9573TIP3    H150134   5.953   0.552   0.593 -2.3830  0.5568  0.3205
 9573TIP3    H250135   5.897   0.412   0.572 -0.9475  0.0582 -0.3013
 9574TIP3   OH250136   0.236   6.565  15.538  0.0090  0.1877 -0.0153
 9574TIP3    H150137   0.332   6.562  15.535  0.0607  0.4083  1.0554
 9574TIP3    H250138   0.215   6.653  15.505  0.1688  0.1471 -0.2339
 9575TIP3   OH250139   4.328   4.755   6.550 -0.0719 -0.3745  0.0581
 9575TIP3    H150140   4.300   4.664   6.551  1.2122 -0.8271 -1.3233
 9575TIP3    H250141   4.276   4.797   6.618 -0.6163 -2.1476  0.7870
 9576TIP3   OH250142   3.363   0.223   4.110  0.3571  0.0788 -0.1506
 9576TIP3    H150143   3.364   0.296   4.048  1.4823 -1.1531 -1.6408
 9576TIP3    H250144   3.416   0.155   4.069  0.5062 -1.0810  1.8310
 9577TIP3   OH250145   1.332   2.745   1.626 -0.6186  0.8935 -0.0022
 9577TIP3    H150146   1.420   2.751   1.664 -0.0789  1.5928 -1.2925
 9577TIP3    H250147   1.291   2.672   1.672  0.9021  0.0618  0.1091
 9578TIP3   OH250148   1.034   4.002  13.530 -0.2479 -0.4528  0.5723
 9578TIP3    H150149   0.969   3.932  13.526  1.6122 -2.2366 -1.4092
 9578TIP3    H250150   1.042   4.033  13.439 -0.1866  1.5640  1.2150
 9579TIP3   OH250151   2.622   3.863   4.369  0.0948 -0.1062 -0.0800
 9579TIP3    H150152   2.630   3.899   4.457 -1.0091 -1.0100  0.4178
 9579TIP3    H250153   2.690   3.907   4.319  1.4964 -0.3996  1.4892
 9580TIP3   OH250154   5.013   4.217  16.745 -0.1196 -0.2417 -0.3334
 9580TIP3    H150155   4.953   4.228  16.671  0.0439 -0.9600 -0.5769
 9580TIP3    H250156   5.095   4.188  16.705  1.3731  3.4621 -0.3514
 9581TIP3   OH250157   2.633   2.222   6.685 -0.4586  0.3698 -0.4854
 9581TIP3    H150158   2.653   2.304   6.730 -0.3704  1.0848 -1.7730
 9581TIP3    H250159   2.558   2.242   6.629 -0.6513 -0.5189 -0.5684
 9582TIP3   OH250160   1.073   3.689   3.546  0.4216 -0.0415 -0.3993
 9582TIP3    H150161   0.996   3.744   3.556  1.0666  0.8000  0.1160
 9582TIP3    H250162   1.146   3.744   3.576  1.2534 -0.7245 -1.1042
 9583TIP3   OH250163   0.698   4.374   0.158 -0.5062  0.2265  0.6259
 9583TIP3    H150164   0.734   4.430   0.226  0.7932  0.0452  0.1199
 9583TIP3    H250165   0.693   4.287   0.198  0.1302  0.1467  0.5414
 9584TIP3   OH250166   2.087   1.873  17.365 -0.2251  0.0990 -0.5587
 9584TIP3    H150167   2.038   1.947  17.330 -0.7696 -1.0005 -2.2198
 9584TIP3    H250168   2.142   1.911  17.434 -2.5323  1.5470  0.6001
 9585TIP3   OH250169   5.022   0.332  17.408  0.2583  0.4050 -0.0340
 9585TIP3    H150170   5.057   0.277  17.337 -0.1055 -1.2086  1.0044
 9585TIP3    H250171   4.936   0.360  17.376 -0.5836 -1.5803  0.3355
 9586TIP3   OH250172   0.523   3.721  15.222 -0.0728  0.5943  0.2443
 9586TIP3    H150173   0.434   3.685  15.221 -0.1267  0.4364  3.3009
 9586TIP3    H250174   0.511   3.814  15.205 -0.7688  0.4918  0.1341
 9587TIP3   OH250175   0.821   5.107   2.679 -0.0254 -0.3933  0.1551
 9587TIP3    H150176   0.907   5.085   2.715  0.4322  3.7362  2.0913
 9587TIP3    H250177   0.838   5.121   2.585  0.6818 -2.5576 -0.0941
 9588TIP3   OH250178   5.663   5.431   0.326  0.3000  0.0644  0.5467
 9588TIP3    H150179   5.589   5.415   0.267 -0.0226  1.1847  0.6188
 9588TIP3    H250180   5.622   5.466   0.406  0.7436 -1.2562  1.3754
 9589TIP3   OH250181   6.303   4.016   3.462 -0.2616  0.1857 -0.3125
 9589TIP3    H150182   6.238   4.020   3.392  1.6642  0.9555 -2.1391
 9589TIP3    H250183   6.282   4.090   3.518 -2.6478 -1.2071  0.7746
 9590TIP3   OH250184   0.916   4.974   4.890 -0.1074  0.1202  0.0861
 9590TIP3    H150185   0.881   4.899   4.842  1.8918 -0.1909 -0.9935
 9590TIP3    H250186   0.941   5.037   4.823 -0.0557  0.9778  0.8847
 9591TIP3   OH250187   1.984   3.411   1.997  0.4428 -0.8608 -0.3047
 9591TIP3    H150188   1.942   3.483   1.950  0.3778 -2.3447 -2.6730
 9591TIP3    H250189   2.071   3.405   1.959  0.1225 -2.5815 -0.8526
 9592TIP3   OH250190   0.292   5.360  16.704  0.7226 -0.6050 -0.3222
 9592TIP3    H150191   0.381   5.395  16.695  0.6830 -0.3459  0.2643
 9592TIP3    H250192   0.304   5.265  16.714  1.0273 -0.4226  1.1489
 9593TIP3   OH250193   0.803   2.289  12.296  0.3459  0.6307 -0.1099
 9593TIP3    H150194   0.846   2.232  12.231 -1.7995 -0.9490 -0.2762
 9593TIP3    H250195   0.747   2.229  12.346 -0.4846  2.3310  1.0720
 9594TIP3   OH250196   2.980   4.854   1.383  0.3973 -0.1848 -0.3007
 9594TIP3    H150197   2.923   4.804   1.325 -0.3335 -0.6795  0.8067
 9594TIP3    H250198   2.978   4.806   1.466  0.6896  0.9876  0.4122
 9595TIP3   OH250199   1.619   3.286  14.759 -1.0910  0.3631  0.6884
 9595TIP3    H150200   1.585   3.198  14.741  1.1855 -0.2437 -1.1081
 9595TIP3    H250201   1.590   3.338  14.684  0.6407  0.1771 -0.1482
 9596TIP3   OH250202   6.735   6.266   4.588 -0.4727  0.7864  0.4065
 9596TIP3    H150203   6.817   6.297   4.548 -0.7094  1.0611  0.1339
 9596TIP3    H250204   6.682   6.345   4.596 -0.2592  0.8311  1.6862
 9597TIP3   OH250205   1.487   3.207  16.410  0.0216  0.6255  0.5071
 9597TIP3    H150206   1.570   3.192  16.454  1.3257  1.4939 -1.5289
 9597TIP3    H250207   1.508   3.207  16.317 -2.5790 -0.9900 -0.2096
 9598TIP3   OH250208   5.029   3.962  15.324  0.3100  0.1138  0.2064
 9598TIP3    H150209   5.081   3.924  15.394  0.8581 -0.3838 -0.4544
 9598TIP3    H250210   5.013   4.052  15.352  0.2472 -0.1699  1.1072
 9599TIP3   OH250211   1.964   6.563  14.698  0.5864  0.1413 -0.5279
 9599TIP3    H150212   1.994   6.474  14.712 -0.9730 -0.6991 -2.1282
 9599TIP3    H250213   2.042   6.617  14.709  1.7447 -1.4922 -0.4387
 9600TIP3   OH250214   0.040   1.899  12.804  0.5182  0.0683  0.0497
 9600TIP3    H150215  -0.055   1.902  12.808  0.1262 -0.3396 -4.5263
 9600TIP3    H250216   0.067   1.989  12.784  1.1917  0.2007  1.3926
 9601TIP3   OH250217   0.401   3.748   2.015 -0.1337  0.6919 -1.3257
 9601TIP3    H150218   0.470   3.703   1.965 -0.5641 -1.8909  0.2047
 9601TIP3    H250219   0.444   3.774   2.097 -1.0158 -1.5754 -0.0497
 9602TIP3   OH250220   5.053   4.616   4.194 -0.0187  0.5388 -0.7684
 9602TIP3    H150221   4.963   4.622   4.162 -0.7155  0.7968  1.1055
 9602TIP3    H250222   5.102   4.678   4.140 -1.1474  1.0818 -1.2098
 9603TIP3   OH250223   0.775   6.478   0.415 -0.4147 -0.0931  0.4205
 9603TIP3    H150224   0.707   6.493   0.481 -1.0430  0.6787 -0.3698
 9603TIP3    H250225   0.831   6.555   0.421 -0.8358  0.2882 -0.3460
 9604TIP3   OH250226   2.671   4.711  12.871 -0.3398  0.1111 -0.1602
 9604TIP3    H150227   2.656   4.707  12.966 -2.3357 -0.3359 -0.4547
 9604TIP3    H250228   2.744   4.772  12.861 -0.7790  0.9911  1.6050
 9605TIP3   OH250229   1.261   1.837   2.175 -0.5714 -0.2517 -0.2780
 9605TIP3    H150230   1.200   1.788   2.119  0.0668  0.1523 -1.3582
 9605TIP3    H250231   1.333   1.861   2.117 -0.6040  1.5198  0.3361
 9606TIP3   OH250232   5.058   0.330  14.658  0.8734  0.5129  0.1542
 9606TIP3    H150233   5.009   0.388  14.717  0.5525  0.3007  0.0977
 9606TIP3    H250234   4.991   0.292  14.601  1.3375  2.2281 -1.6879
 9607TIP3   OH250235   0.128   2.379  14.544 -0.5892 -1.0337  0.4690
 9607TIP3    H150236   0.151   2.329  14.623  0.1248 -0.8601  0.3793
 9607TIP3    H250237   0.083   2.317  14.488 -1.4746 -1.0562  1.1829
 9608TIP3   OH250238   2.077   1.759  11.640 -0.8648  0.3367 -0.8197
 9608TIP3    H150239   2.053   1.668  11.655  1.5027 -0.3549 -0.9906
 9608TIP3    H250240   2.149   1.776  11.701 -1.4337  2.2014 -0.5789
 9609TIP3   OH250241   1.066   6.049   6.666  0.2400 -0.0609 -0.3136
 9609TIP3    H150242   1.052   6.024   6.575  0.1512  0.2192 -0.3786
 9609TIP3    H250243   1.052   6.144   6.667  0.2348 -0.0639 -0.0084
 9610TIP3   OH250244   5.518   1.662  15.718  0.0199 -0.2501 -0.8436
 9610TIP3    H150245   5.609   1.671  15.748  0.0708 -1.0973 -0.7154
 9610TIP3    H250246   5.524   1.602  15.644 -0.7363 -2.6399  0.9080
 9611TIP3   OH250247   2.830   2.288   4.431 -0.2975  0.0336 -0.3051
 9611TIP3    H150248   2.904   2.350   4.427 -0.0662 -0.2716 -0.8732
 9611TIP3    H250249   2.789   2.306   4.515  1.5001 -0.9973  0.8700
 9612TIP3   OH250250   3.633   4.161  12.785 -0.5642 -0.0030 -0.1445
 9612TIP3    H150251   3.650   4.103  12.711 -0.4675 -0.2188  0.0481
 9612TIP3    H250252   3.663   4.247  12.755  0.4967 -0.3001  0.0474
 9613TIP3   OH250253   5.239   0.991  12.665 -0.1202 -0.2003  0.2232
 9613TIP3    H150254   5.210   0.946  12.744 -1.3742  0.7134  0.3159
 9613TIP3    H250255   5.230   0.925  12.596 -1.7742 -0.1901  0.3899
 9614TIP3   OH250256   4.493   5.612   1.840  0.1626  0.3332 -0.2043
 9614TIP3    H150257   4.410   5.657   1.854 -0.8843 -1.9337  1.4964
 9614TIP3    H250258   4.542   5.627   1.920 -0.7099 -2.3840  0.9504
 9615TIP3   OH250259   3.958   6.459  11.732  0.3736  0.0673 -0.5859
 9615TIP3    H150260   3.866   6.472  11.709  0.6605  1.7877 -0.8873
 9615TIP3    H250261   3.963   6.480  11.825  0.5559  0.4760 -0.6886
 9616TIP3   OH250262   0.512   0.691  14.126  0.0305 -0.3899 -0.3215
 9616TIP3    H150263   0.444   0.694  14.193 -0.6635 -1.3349 -0.9638
 9616TIP3    H250264   0.502   0.605  14.085  1.5932 -0.5347 -0.4603
 9617TIP3   OH250265   5.035   2.399  17.316  0.1141  0.2164  0.5950
 9617TIP3    H150266   5.030   2.332  17.248 -0.7847  0.5527  0.3110
 9617TIP3    H250267   5.109   2.454  17.291  1.8468 -1.4989  1.6403
 9618TIP3   OH250268   3.627   1.894  12.989  0.4003  0.0003  0.0630
 9618TIP3    H150269   3.639   1.879  12.896 -0.8476 -1.2012  0.0670
 9618TIP3    H250270   3.622   1.989  12.998 -1.7822  0.0940 -1.4351
 9619TIP3   OH250271   5.379   2.523   3.501 -0.5730  0.3111 -0.0282
 9619TIP3    H150272   5.428   2.586   3.448 -1.2060 -0.5263 -1.6685
 9619TIP3    H250273   5.338   2.464   3.437 -0.7693 -1.1933  1.4204
 9620TIP3   OH250274   2.975   0.536   4.677 -0.1331  0.1646 -0.7624
 9620TIP3    H150275   2.930   0.451   4.680 -0.9522  0.6006 -0.1268
 9620TIP3    H250276   2.904   0.600   4.680  0.5259  0.8814  0.2260
 9621TIP3   OH250277   6.646   0.696   1.062 -0.2210 -0.1885  0.1830
 9621TIP3    H150278   6.577   0.669   1.001 -0.1917 -0.3179  0.2060
 9621TIP3    H250279   6.599   0.720   1.142 -0.2646  0.0356  0.0922
 9622TIP3   OH250280   2.303   3.846   1.368 -0.5496  0.1532  0.5872
 9622TIP3    H150281   2.325   3.937   1.392  3.0024 -0.3406 -0.2112
 9622TIP3    H250282   2.348   3.793   1.434 -2.4486 -1.1006  0.9359
 9623TIP3   OH250283   0.997   5.601   1.961 -0.6068 -0.0766  0.1549
 9623TIP3    H150284   0.971   5.517   1.922 -0.2808 -0.6392  1.0988
 9623TIP3    H250285   1.060   5.577   2.029 -0.3217  0.9633  0.2781
 9624TIP3   OH250286   5.325   2.628   6.305  0.1620  0.2496 -0.0298
 9624TIP3    H150287   5.354   2.649   6.216  0.8661  1.4677  0.4635
 9624TIP3    H250288   5.300   2.712   6.342 -1.4642 -0.4182  0.4899
 9625TIP3   OH250289   4.805   0.141  12.682  0.3844  0.5823  0.0176
 9625TIP3    H150290   4.882   0.089  12.703 -0.0198  0.1118  0.3943
 9625TIP3    H250291   4.732   0.089  12.715 -0.1718  0.5638 -1.1865
 9626TIP3   OH250292   3.210   5.286  15.056  0.4906 -0.3735 -0.1321
 9626TIP3    H150293   3.255   5.349  14.999 -0.4255 -0.2026 -0.6932
 9626TIP3    H250294   3.182   5.338  15.132  2.4540 -0.7730  0.9327
 9627TIP3   OH250295   2.022   2.075  14.625  0.0721  0.7032  0.7656
 9627TIP3    H150296   1.958   2.140  14.652 -0.0871  0.5109  0.8480
 9627TIP3    H250297   1.980   2.026  14.554 -0.3096 -0.1654  1.5701
 9628TIP3   OH250298   3.209   0.187   6.070  0.5485 -0.1764  0.1603
 9628TIP3    H150299   3.179   0.096   6.065 -1.3341  0.4068  0.0776
 9628TIP3    H250300   3.206   0.208   6.163  1.1564 -0.2480  0.1974
 9629TIP3   OH250301   5.537   6.387  13.649  0.0564 -0.5696 -0.4526
 9629TIP3    H150302   5.544   6.480  13.629 -0.3025 -0.6145 -0.7987
 9629TIP3    H250303   5.464   6.381  13.710  0.1803 -0.6040 -0.3097
 9630TIP3   OH250304   0.026   2.391  11.964  0.1751  0.2434 -0.6659
 9630TIP3    H150305  -0.028   2.376  12.041 -0.6628  0.0646 -1.2810
 9630TIP3    H250306  -0.001   2.478  11.933  0.8250  0.5082 -0.5158
 9631TIP3   OH250307   5.490   0.973   3.927  0.4503  0.0773  0.0037
 9631TIP3    H150308   5.543   0.894   3.938  0.5812 -0.0503 -1.3466
 9631TIP3    H250309   5.491   0.989   3.832  1.6111  2.4840  0.3537
 9632TIP3   OH250310   2.550   5.223  13.398  0.6370  0.7519 -0.0249
 9632TIP3    H150311   2.547   5.223  13.494  0.7986  0.6912 -0.0176
 9632TIP3    H250312   2.624   5.166  13.377 -0.0342 -0.0721 -0.2106
 9633TIP3   OH250313   0.972   4.791   2.361  0.0937 -0.2996  0.1313
 9633TIP3    H150314   1.024   4.729   2.309 -1.2450 -0.6175 -0.8660
 9633TIP3    H250315   0.884   4.785   2.324 -0.2939  1.4507  0.7122
 9634TIP3   OH250316   1.230   6.297  15.912 -0.1389  0.6616  0.2943
 9634TIP3    H150317   1.200   6.377  15.870 -0.8124 -0.6405 -1.9233
 9634TIP3    H250318   1.154   6.239  15.911  0.5606 -0.3094  1.0076
 9635TIP3   OH250319   5.900   6.508   4.675 -0.0664  0.4119 -1.0351
 9635TIP3    H150320   5.823   6.545   4.632 -0.3371  0.4902 -0.4879
 9635TIP3    H250321   5.880   6.415   4.684 -1.3185  0.8553  1.6000
 9636TIP3   OH250322   0.773   2.442   0.008  0.2556 -0.2633 -0.9062
 9636TIP3    H150323   0.778   2.514   0.071 -0.4565 -0.5075 -0.5625
 9636TIP3    H250324   0.865   2.423  -0.013  0.4446  1.5312 -1.9452
 9637TIP3   OH250325   0.741   1.028  11.185  0.0194 -0.1190  0.3493
 9637TIP3    H150326   0.653   1.007  11.217 -0.0605  0.2436  0.3671
 9637TIP3    H250327   0.770   1.100  11.241 -0.4955  1.1870 -0.9884
 9638TIP3   OH250328   4.478   3.192  12.174 -0.3218 -0.0010  0.0768
 9638TIP3    H150329   4.507   3.101  12.180 -2.1078 -0.6908 -1.2516
 9638TIP3    H250330   4.479   3.223  12.265 -2.2364 -2.2035  0.9484
 9639TIP3   OH250331   2.709   1.659  13.719 -0.0138 -0.0771 -0.7861
 9639TIP3    H150332   2.767   1.585  13.708  0.5328  0.3586 -0.8734
 9639TIP3    H250333   2.667   1.644  13.804  2.0249  0.7990  0.4688
 9640TIP3   OH250334   1.955   0.327   0.083  0.0943 -0.5683 -0.5117
 9640TIP3    H150335   2.007   0.349   0.160  0.7923  0.2348 -1.2014
 9640TIP3    H250336   1.906   0.406   0.063 -0.7572 -1.0494 -0.3878
 9641TIP3   OH250337   0.123   4.470  12.076 -0.3125  0.5047 -0.2000
 9641TIP3    H150338   0.219   4.469  12.081 -0.2636 -0.4017 -0.9577
 9641TIP3    H250339   0.095   4.418  12.151 -0.0625 -2.0316 -1.7634
 9642TIP3   OH250340   2.911   2.659   6.689  0.0037  0.3552 -0.1292
 9642TIP3    H150341   2.876   2.738   6.648  1.3998  0.8785 -0.3619
 9642TIP3    H250342   2.924   2.682   6.781  1.3197  0.7599 -0.3842
 9643TIP3   OH250343   1.142   5.634  14.857 -0.0143 -0.0627 -0.0753
 9643TIP3    H150344   1.147   5.727  14.877 -0.3578 -0.1149  0.2475
 9643TIP3    H250345   1.096   5.629  14.773  0.2219  0.0718 -0.2129
 9644TIP3   OH250346   6.260   3.176   1.893  0.1190  0.7446 -0.2696
 9644TIP3    H150347   6.343   3.206   1.856 -0.5112  1.1220 -1.4519
 9644TIP3    H250348   6.225   3.252   1.939  0.3763  0.6212  0.1275
 9645TIP3   OH250349   1.704   6.408  14.889 -0.1369 -1.1791  0.1620
 9645TIP3    H150350   1.757   6.338  14.849  1.3113 -0.1508  0.1967
 9645TIP3    H250351   1.761   6.485  14.887 -1.2640 -0.2842  1.2035
 9646TIP3   OH250352   6.411   3.156  13.847  0.0579 -0.5764 -0.2574
 9646TIP3    H150353   6.374   3.176  13.933  1.4271  0.1381  0.1870
 9646TIP3    H250354   6.504   3.143  13.864  0.4480  0.1612 -1.7092
 9647TIP3   OH250355   0.031   3.819  16.302 -0.0501 -0.3849 -0.3295
 9647TIP3    H150356   0.018   3.839  16.209  1.3482  0.1007 -0.4450
 9647TIP3    H250357   0.015   3.902  16.347 -0.2725 -0.5096 -0.1748
 9648TIP3   OH250358   2.710   2.707  14.340 -0.3043 -0.6898  0.1584
 9648TIP3    H150359   2.649   2.644  14.378  0.4389 -1.7489 -0.3471
 9648TIP3    H250360   2.672   2.728  14.254 -0.6372 -0.3082  0.3946
 9649TIP3   OH250361   4.466   0.061   5.970 -0.6610  0.2561  0.0948
 9649TIP3    H150362   4.413   0.056   6.049 -0.4877  1.1267  0.2798
 9649TIP3    H250363   4.467  -0.028   5.935 -1.5785  0.0733  0.5182
 9650TIP3   OH250364   2.056   4.962   4.500  0.3986  0.3846 -0.2604
 9650TIP3    H150365   1.961   4.970   4.494  0.1070 -1.1868  1.1702
 9650TIP3    H250366   2.078   5.000   4.585  1.4855  3.2547 -1.6958
 9651TIP3   OH250367   0.680   4.377  12.094  0.2729 -0.6403  0.0439
 9651TIP3    H150368   0.734   4.366  12.015  0.3781  2.0665 -0.3865
 9651TIP3    H250369   0.739   4.360  12.167  1.1205  0.0793 -0.4557
 9652TIP3   OH250370   4.405   4.921  11.942  0.1681 -0.1754  0.1671
 9652TIP3    H150371   4.380   4.960  12.026  1.5537  1.4287 -0.1031
 9652TIP3    H250372   4.493   4.887  11.956  0.9182  1.2023 -0.9146
 9653TIP3   OH250373   2.328   5.035   1.230  0.0495 -0.1679 -0.1585
 9653TIP3    H150374   2.301   5.114   1.277 -0.4769 -0.0145 -0.7058
 9653TIP3    H250375   2.423   5.032   1.239  0.0883  0.6250 -0.2933
 9654TIP3   OH250376   5.308   0.250   3.107  0.1826  0.3121  0.7933
 9654TIP3    H150377   5.360   0.169   3.104  1.5848  1.1691  1.0303
 9654TIP3    H250378   5.352   0.304   3.173 -0.1983  1.6301 -0.0101
 9655TIP3   OH250379   1.057   0.883  15.875 -0.2853 -0.0262  0.0155
 9655TIP3    H150380   0.967   0.909  15.893 -0.0203  0.6097  0.4574
 9655TIP3    H250381   1.106   0.965  15.878  0.6117 -0.5974  1.6469
 9656TIP3   OH250382   2.142   6.150   0.592 -0.1009  0.1625 -0.3162
 9656TIP3    H150383   2.175   6.236   0.618  1.1991 -0.4568  0.1774
 9656TIP3    H250384   2.211   6.113   0.537 -0.5072 -0.6832 -0.2852
 9657TIP3   OH250385   6.657   4.310   0.369 -0.2818  0.5863 -0.1150
 9657TIP3    H150386   6.632   4.401   0.357 -0.1338  0.3453 -3.1575
 9657TIP3    H250387   6.734   4.299   0.313  1.3071 -0.8424  2.1688
 9658TIP3   OH250388   3.486   4.741  16.482  0.1526  0.5423 -0.4419
 9658TIP3    H150389   3.575   4.748  16.517  0.1686  0.7421 -0.5228
 9658TIP3    H250390   3.497   4.693  16.399 -0.0809 -1.3968  0.5974
 9659TIP3   OH250391   6.097   3.524   5.289 -0.3425 -0.3970 -0.0824
 9659TIP3    H150392   6.114   3.548   5.381  1.1106 -2.1627  0.1513
 9659TIP3    H250393   6.019   3.574   5.267  1.2715  2.9669  0.9512
 9660TIP3   OH250394   1.232   1.580  16.378  0.2501  0.4681  0.5195
 9660TIP3    H150395   1.288   1.508  16.349  0.1301  0.1148  1.1462
 9660TIP3    H250396   1.269   1.607  16.462  1.4190  2.3846 -0.5386
 9661TIP3   OH250397   6.546   5.508  12.313  0.2913 -0.1280 -0.1348
 9661TIP3    H150398   6.466   5.523  12.263  0.0036  2.6674  0.9969
 9661TIP3    H250399   6.517   5.461  12.391 -0.6035  2.2012  1.0178
 9662TIP3   OH250400   1.280   5.192  11.183 -0.1254 -0.1743 -0.0146
 9662TIP3    H150401   1.278   5.272  11.236 -1.0915  0.2108 -0.6114
 9662TIP3    H250402   1.372   5.166  11.183 -0.1843 -0.5717  2.3837
 9663TIP3   OH250403   3.754   3.394  14.600 -0.3383 -0.2869  0.4880
 9663TIP3    H150404   3.794   3.461  14.543 -2.5691  2.4135  1.8263
 9663TIP3    H250405   3.805   3.399  14.681  0.0808 -0.9388  0.2709
 9664TIP3   OH250406   3.218   5.306   5.320 -0.3991  0.4984 -0.1457
 9664TIP3    H150407   3.295   5.252   5.335 -0.3304  0.4318 -0.7220
 9664TIP3    H250408   3.227   5.337   5.230 -1.1271  0.3440 -0.2823
 9665TIP3   OH250409   5.644   1.916   4.187 -0.3489 -0.5619  0.3151
 9665TIP3    H150410   5.623   1.855   4.257  1.4848 -0.2326  1.2170
 9665TIP3    H250411   5.633   2.003   4.227 -2.9499 -0.2065 -0.9511
 9666TIP3   OH250412   5.027   1.274   0.993  0.5362 -0.2698  0.0724
 9666TIP3    H150413   5.078   1.318   0.925  2.5930 -2.2329  0.2178
 9666TIP3    H250414   5.004   1.190   0.954 -2.3522  0.3847  0.1811
 9667TIP3   OH250415   6.441   1.979   5.113  0.1494 -0.9412  0.0968
 9667TIP3    H150416   6.352   1.965   5.144 -0.0610  0.4746  0.2100
 9667TIP3    H250417   6.441   1.944   5.024 -0.5603 -0.8104  0.0407
 9668TIP3   OH250418   1.092   5.532   3.926  0.5034  0.3731 -0.2097
 9668TIP3    H150419   1.046   5.544   3.842  0.8801  0.5838 -0.3869
 9668TIP3    H250420   1.127   5.443   3.922  1.9242  0.9319 -0.9781
 9669TIP3   OH250421   0.878   3.850   4.454  0.0530  0.2204 -0.0733
 9669TIP3    H150422   0.945   3.803   4.404  1.2411  1.6632  0.0711
 9669TIP3    H250423   0.800   3.795   4.448  0.9686 -1.0380 -1.0873
 9670TIP3   OH250424   6.585   1.020   3.004 -0.7692 -0.3227 -0.1261
 9670TIP3    H150425   6.629   0.990   2.925 -0.5704 -0.2509 -0.0433
 9670TIP3    H250426   6.542   1.102   2.979 -1.7873 -0.9509 -0.5082
 9671TIP3   OH250427   3.501   3.848   4.319  0.3261 -0.2827  0.2869
 9671TIP3    H150428   3.591   3.823   4.298  0.5391 -0.3281  1.2408
 9671TIP3    H250429   3.470   3.895   4.241  1.1798 -0.2401 -0.0298
 9672TIP3   OH250430   4.556   1.212  13.258 -0.2004 -0.1956  0.2249
 9672TIP3    H150431   4.603   1.213  13.175 -2.4712  0.7320 -1.1524
 9672TIP3    H250432   4.602   1.275  13.314 -0.1324  1.1308 -1.2701
 9673TIP3   OH250433   6.569   3.749   1.082  0.2432  0.4794 -0.6226
 9673TIP3    H150434   6.509   3.682   1.046  1.3095 -0.4239 -0.7672
 9673TIP3    H250435   6.633   3.699   1.132  1.1565  1.3904 -0.8625
 9674TIP3   OH250436   2.402   3.459  14.538 -0.4941 -0.1420  0.2070
 9674TIP3    H150437   2.443   3.475  14.453  2.1077 -0.5039  1.3235
 9674TIP3    H250438   2.318   3.418  14.517 -0.6250  1.2168 -2.2130
 9675TIP3   OH250439   1.724   6.396   3.861  0.1534 -0.3707 -0.5416
 9675TIP3    H150440   1.775   6.477   3.862  2.0609 -1.4249  2.4884
 9675TIP3    H250441   1.778   6.334   3.812 -0.2981 -0.3803 -1.0344
 9676TIP3   OH250442   4.628   4.205  13.825  0.2970  0.1793  0.3477
 9676TIP3    H150443   4.655   4.139  13.888 -0.4455 -0.0266  0.4556
 9676TIP3    H250444   4.693   4.274  13.833  1.6416 -0.9404 -0.4347
 9677TIP3   OH250445   6.030   5.536   2.955 -0.5607 -0.5369 -0.7035
 9677TIP3    H150446   6.026   5.625   2.920 -0.4362  0.3671  1.4102
 9677TIP3    H250447   6.076   5.485   2.888 -0.2111  1.0780 -1.7448
 9678TIP3   OH250448   6.311   3.385  12.077  0.0694  0.6249  0.2455
 9678TIP3    H150449   6.269   3.308  12.039  1.1799  0.9202 -1.7516
 9678TIP3    H250450   6.331   3.441  12.001 -0.8246  2.9691  1.6169
 9679TIP3   OH250451   6.289   0.359  15.059  0.3686  0.1473 -0.5033
 9679TIP3    H150452   6.314   0.404  14.978  1.9632 -0.1966 -0.2347
 9679TIP3    H250453   6.372   0.347  15.106 -0.1247 -2.1772 -0.1188
 9680TIP3   OH250454   5.749   4.781   5.228 -0.8156  0.3351 -0.1532
 9680TIP3    H150455   5.755   4.870   5.191  1.5156  0.2745 -0.1010
 9680TIP3    H250456   5.663   4.777   5.269 -2.5370  1.3019 -3.3098
 9681TIP3   OH250457   0.328   2.883   1.792  0.1314 -0.0376  0.1215
 9681TIP3    H150458   0.360   2.945   1.726 -1.9966  1.5931  0.5032
 9681TIP3    H250459   0.401   2.874   1.854  0.7705  1.5471 -0.3482
 9682TIP3   OH250460   6.471   2.365  14.515 -0.5140 -0.0934  0.2655
 9682TIP3    H150461   6.503   2.330  14.598 -1.5124  2.7515  1.9847
 9682TIP3    H250462   6.415   2.439  14.539  0.0754  1.6123 -2.9535
 9683TIP3   OH250463   0.355   3.964   0.166  0.4334  0.5268 -0.2955
 9683TIP3    H150464   0.313   4.037   0.211  0.0311  0.0806  0.0619
 9683TIP3    H250465   0.297   3.944   0.093 -0.1711 -0.3185  0.4026
 9684TIP3   OH250466   0.346   1.917  14.970  0.2081  0.0236  0.0986
 9684TIP3    H150467   0.424   1.972  14.958  0.7769 -1.0338 -1.3659
 9684TIP3    H250468   0.289   1.940  14.897  0.1126 -0.7549 -0.0772
 9685TIP3   OH250469   4.172   6.684   3.766 -0.5431  0.0773  0.6672
 9685TIP3    H150470   4.223   6.694   3.686 -1.1130 -1.0934  0.1471
 9685TIP3    H250471   4.221   6.733   3.832  0.1977  0.6234 -0.2713
 9686TIP3   OH250472   1.859   5.337  12.739 -0.2013 -0.4023  0.0276
 9686TIP3    H150473   1.939   5.370  12.698 -0.6956  1.2665  0.3461
 9686TIP3    H250474   1.869   5.360  12.831  0.0850 -2.5196  0.5859
 9687TIP3   OH250475   3.984   4.060  17.405  0.3530  0.3631 -0.0622
 9687TIP3    H150476   3.949   4.107  17.329  0.2641  0.2438 -0.0951
 9687TIP3    H250477   3.957   3.969  17.391 -0.8495  0.5660  0.7914
 9688TIP3   OH250478   5.465   1.534  13.493  0.5390  0.0349  0.2355
 9688TIP3    H150479   5.525   1.477  13.444  2.1205  1.0868  0.8491
 9688TIP3    H250480   5.384   1.484  13.498  0.8659 -0.8408 -1.9115
 9689TIP3   OH250481   5.487   1.769   3.773  0.0966 -0.2059  0.4810
 9689TIP3    H150482   5.475   1.674   3.776  0.1613 -0.1897  2.1626
 9689TIP3    H250483   5.401   1.803   3.749 -0.2355 -0.6317  1.0609
 9690TIP3   OH250484   4.247   1.411  15.526  0.4677  0.2961 -0.5129
 9690TIP3    H150485   4.334   1.426  15.489 -0.0548  1.5067 -1.3165
 9690TIP3    H250486   4.234   1.317  15.521  1.6296  0.1307 -0.6083
 9691TIP3   OH250487   6.743   6.198  13.587  0.0264 -0.1622  0.3231
 9691TIP3    H150488   6.717   6.252  13.662 -0.2534  0.5775 -0.2843
 9691TIP3    H250489   6.817   6.147  13.618 -1.3124 -1.3493  1.7065
 9692TIP3   OH250490   3.481   4.291  16.423  0.6916 -0.0531  0.1695
 9692TIP3    H150491   3.505   4.199  16.436  0.9172  0.0568  0.5646
 9692TIP3    H250492   3.388   4.295  16.444 -0.0070 -0.7034 -2.4460
 9693TIP3   OH250493   6.360   5.030  12.678  0.3652  0.0640  0.5139
 9693TIP3    H150494   6.272   5.067  12.684  0.0161 -0.2701 -1.6572
 9693TIP3    H250495   6.357   4.976  12.598  2.6271  0.3098  0.2241
 9694TIP3   OH250496   3.108   2.427   2.024  0.1516  0.0473  0.2072
 9694TIP3    H150497   3.133   2.518   2.007  0.5252 -0.4264 -2.1303
 9694TIP3    H250498   3.029   2.433   2.078 -1.4789  1.8818 -2.1686
 9695TIP3   OH250499   3.595   1.175   1.585  0.3561 -0.0155 -0.1123
 9695TIP3    H150500   3.573   1.189   1.677  0.9970  2.0215 -0.2219
 9695TIP3    H250501   3.641   1.091   1.584  2.2817  0.9129  1.7931
 9696TIP3   OH250502   2.344   3.386  15.718 -0.1171 -0.0785 -0.6206
 9696TIP3    H150503   2.259   3.352  15.744 -0.7816  1.6326 -0.4153
 9696TIP3    H250504   2.373   3.438  15.793  0.6243  0.2154 -1.0948
 9697TIP3   OH250505   4.406   5.825   3.143  0.2588 -0.0714 -0.4738
 9697TIP3    H150506   4.471   5.893   3.126  0.8236 -0.3380  0.4939
 9697TIP3    H250507   4.450   5.765   3.203 -1.0207 -0.0139  0.5807
 9698TIP3   OH250508   0.319   4.473   1.519  0.3692  0.5529 -0.3508
 9698TIP3    H150509   0.412   4.494   1.505  0.4528  0.3300 -0.1380
 9698TIP3    H250510   0.311   4.382   1.493 -0.0544  0.9218 -1.5313
 9699TIP3   OH250511   2.819   2.560   1.805 -0.4622  0.0592 -0.2831
 9699TIP3    H150512   2.908   2.538   1.777  0.4851  2.0830  0.8737
 9699TIP3    H250513   2.765   2.550   1.727  0.5883 -2.0692 -0.8000
 9700TIP3   OH250514   1.196   0.236  11.165  0.0857 -0.6149 -0.3936
 9700TIP3    H150515   1.124   0.203  11.112  0.1883 -1.0404 -0.2697
 9700TIP3    H250516   1.271   0.239  11.105  0.4706 -2.1123 -0.0192
 9701TIP3   OH250517   2.765   1.993  15.835 -0.0198 -0.5817 -0.4695
 9701TIP3    H150518   2.699   1.998  15.765 -1.9639 -0.4222  1.2863
 9701TIP3    H250519   2.735   1.921  15.891 -1.0656  2.0521  2.6069
 9702TIP3   OH250520   6.191   3.954  16.821  0.5376 -0.6784  0.2317
 9702TIP3    H150521   6.250   4.027  16.842  0.1166 -0.6615  1.4502
 9702TIP3    H250522   6.203   3.893  16.895 -0.3499 -1.0646  0.0608
 9703TIP3   OH250523   4.266   6.664  16.772  0.0727 -0.0414 -0.2241
 9703TIP3    H150524   4.308   6.579  16.760  0.1851  0.0838 -0.7634
 9703TIP3    H250525   4.296   6.716  16.697  1.2439  0.9696  0.8976
 9704TIP3   OH250526   2.866   0.537  16.831 -0.2320 -0.3799  0.9196
 9704TIP3    H150527   2.902   0.554  16.744 -0.1709  0.1987  1.0542
 9704TIP3    H250528   2.925   0.472  16.870  0.8638  0.7872  1.2583
 9705TIP3   OH250529   3.899   2.087   3.574  0.2767  0.3957 -0.0150
 9705TIP3    H150530   3.975   2.046   3.532 -0.7897 -0.7240 -0.9291
 9705TIP3    H250531   3.839   2.015   3.590 -0.3687  1.1841  1.2374
 9706TIP3   OH250532   3.204   0.194  12.773  0.0918  0.0132  0.3797
 9706TIP3    H150533   3.250   0.277  12.783 -0.2053  0.2352 -0.0594
 9706TIP3    H250534   3.179   0.170  12.862 -0.4887  0.7841  0.4328
 9707TIP3   OH250535   6.519   0.315  15.212 -0.5421  0.2320 -0.1008
 9707TIP3    H150536   6.494   0.337  15.302 -0.9660  0.4023 -0.2578
 9707TIP3    H250537   6.571   0.390  15.183  2.0068 -1.0145  0.9346
 9708TIP3   OH250538   2.967   2.703  11.826  0.4570 -0.0304  0.2771
 9708TIP3    H150539   2.914   2.729  11.901  3.2169  1.4056  1.8843
 9708TIP3    H250540   2.978   2.608  11.837  0.5288  0.1036  1.5147
 9709TIP3   OH250541   3.512   2.738  15.857 -0.1881 -0.8963  0.4098
 9709TIP3    H150542   3.487   2.647  15.876 -0.8378 -0.5836  1.1101
 9709TIP3    H250543   3.563   2.765  15.933 -0.1059 -0.6327  0.2616
 9710TIP3   OH250544   6.538   4.517   1.925 -0.0216 -0.1675  0.1051
 9710TIP3    H150545   6.608   4.532   1.989  0.6372  0.3506 -0.7109
 9710TIP3    H250546   6.571   4.445   1.870  0.1937  0.5355 -0.7093
 9711TIP3   OH250547   2.458   1.871  12.861  0.1066 -0.2612 -0.1335
 9711TIP3    H150548   2.446   1.782  12.891 -0.9225 -0.4242 -0.9565
 9711TIP3    H250549   2.390   1.921  12.906 -0.3241 -0.1897 -0.8532
 9712TIP3   OH250550   6.318   1.479   2.210  0.3385  0.3426  0.2828
 9712TIP3    H150551   6.255   1.447   2.275 -0.0770 -0.8641 -0.6926
 9712TIP3    H250552   6.267   1.538   2.155  0.2422 -0.0566 -0.0560
 9713TIP3   OH250553   3.330   0.100   0.736  0.1775  0.4747  0.5202
 9713TIP3    H150554   3.343   0.178   0.683 -0.8277 -0.2091 -0.8111
 9713TIP3    H250555   3.323   0.028   0.672  1.2945 -0.7453  1.7061
 9714TIP3   OH250556   1.866   5.456  17.410  0.4198 -0.7613 -0.2059
 9714TIP3    H150557   1.801   5.488  17.473 -1.6257 -1.2613 -1.9259
 9714TIP3    H250558   1.905   5.535  17.372  2.0741 -0.4506  1.9600
 9715TIP3   OH250559   5.181   1.832   5.859 -0.2002  0.4957 -0.1745
 9715TIP3    H150560   5.166   1.925   5.840 -0.2823  0.9222  1.8035
 9715TIP3    H250561   5.116   1.786   5.806 -0.4511  1.5855 -0.8413
 9716TIP3   OH250562   1.421   0.972   4.036 -0.8151 -0.0871 -0.2445
 9716TIP3    H150563   1.501   0.922   4.054  0.0876  1.1177 -0.7726
 9716TIP3    H250564   1.392   0.940   3.951 -0.7289 -0.3193 -0.1872
 9717TIP3   OH250565   6.128   5.383  17.286  0.1253  0.3726 -0.2741
 9717TIP3    H150566   6.075   5.418  17.358 -0.5036  0.0490 -0.5687
 9717TIP3    H250567   6.135   5.289  17.305  0.4415  0.3811 -0.3377
 9718TIP3   OH250568   5.963   4.067   5.873 -0.3367  0.0761 -0.2713
 9718TIP3    H150569   5.893   4.112   5.921 -0.5225 -1.7618  1.3402
 9718TIP3    H250570   5.958   3.976   5.904  2.7561 -0.1374 -0.0882
 9719TIP3   OH250571   5.181   2.882  16.304  0.0916  0.4476  0.6302
 9719TIP3    H150572   5.154   2.863  16.214  2.3419 -1.9718  0.3697
 9719TIP3    H250573   5.147   2.809  16.356  2.3115 -0.4418  0.9650
 9720TIP3   OH250574   1.825   6.034   4.636  0.0433  0.4186  0.6276
 9720TIP3    H150575   1.762   5.980   4.588 -0.8085  1.4660  0.5289
 9720TIP3    H250576   1.826   5.997   4.724 -0.5526  0.2617  0.5732
 9721TIP3   OH250577   1.943   4.699  14.809  0.1073  0.2373 -0.2316
 9721TIP3    H150578   1.977   4.764  14.870  0.7109  0.1348 -0.4551
 9721TIP3    H250579   1.886   4.749  14.750  1.2155  0.7366 -0.9251
 9722TIP3   OH250580   5.143   4.292   6.294  0.5389  0.3016 -0.4715
 9722TIP3    H150581   5.185   4.273   6.210  0.4988  0.6554 -0.5701
 9722TIP3    H250582   5.114   4.206   6.326 -0.4432  0.2893 -1.3470
 9723TIP3   OH250583   5.513   3.915   2.781  0.4082  0.0297  0.5866
 9723TIP3    H150584   5.453   3.841   2.774  0.8532 -0.2977  0.1953
 9723TIP3    H250585   5.515   3.953   2.694  0.6926  0.1074  0.6274
 9724TIP3   OH250586   3.805   1.600  15.378  0.0998 -0.2042 -0.2398
 9724TIP3    H150587   3.761   1.621  15.296  1.3675  0.0353 -0.8815
 9724TIP3    H250588   3.844   1.514  15.364  0.3570 -0.1470  0.0895
 9725TIP3   OH250589   5.664   0.944   2.277  0.3404 -0.6847  0.5869
 9725TIP3    H150590   5.699   0.874   2.331 -0.6919 -0.4413  1.6100
 9725TIP3    H250591   5.579   0.965   2.316  0.0959  0.3206 -0.4131
 9726TIP3   OH250592   4.561   5.006  15.281 -0.1287  0.1766 -0.0821
 9726TIP3    H150593   4.492   4.954  15.238  1.4801  0.4359 -3.3133
 9726TIP3    H250594   4.526   5.094  15.285 -2.3052 -0.6503  4.1097
 9727TIP3   OH250595   4.399   1.046   3.528 -0.2570  0.8668  0.2063
 9727TIP3    H150596   4.468   0.994   3.570 -0.0727  0.6913 -0.3037
 9727TIP3    H250597   4.338   1.066   3.598 -0.0962  0.3446  0.4999
 9728TIP3   OH250598   2.148   3.456   0.345  0.1749 -0.2377  0.6387
 9728TIP3    H150599   2.162   3.371   0.385 -0.0903 -0.8456 -0.5288
 9728TIP3    H250600   2.056   3.456   0.320 -0.2666  1.0364  2.0611
 9729TIP3   OH250601   3.954   1.915   2.195  0.3244  0.2449 -0.2271
 9729TIP3    H150602   4.014   1.976   2.152  1.1012 -0.5830 -0.3459
 9729TIP3    H250603   3.924   1.857   2.125  0.4402 -0.1808  0.0721
 9730TIP3   OH250604   5.399   6.493  11.431  0.0505  0.2035 -0.7576
 9730TIP3    H150605   5.446   6.555  11.376 -1.4767  1.2536 -0.9429
 9730TIP3    H250606   5.421   6.519  11.520 -1.1660  1.5639 -0.8093
 9731TIP3   OH250607   1.794   3.997   6.073 -0.8295 -0.4736  0.0270
 9731TIP3    H150608   1.876   3.949   6.062 -0.2729  0.8380 -2.1511
 9731TIP3    H250609   1.727   3.929   6.076  0.1575 -1.4923 -0.1889
 9732TIP3   OH250610   3.282   4.681  13.214 -0.0510  0.0446 -0.2718
 9732TIP3    H150611   3.307   4.773  13.226  1.9791 -0.3225 -1.2232
 9732TIP3    H250612   3.298   4.664  13.121  3.6479 -2.2659  0.5514
 9733TIP3   OH250613   5.094   0.309   0.820 -0.6445 -0.0175 -0.0388
 9733TIP3    H150614   5.182   0.301   0.782 -0.3676  0.8156  0.3920
 9733TIP3    H250615   5.107   0.362   0.899 -1.1539 -2.0183  1.4417
 9734TIP3   OH250616   3.615   3.791  16.657  0.1347 -0.0495  0.5010
 9734TIP3    H150617   3.642   3.812  16.746 -0.9013 -2.4690  1.4767
 9734TIP3    H250618   3.521   3.776  16.663 -0.0487  0.2317 -1.1302
 9735TIP3   OH250619   5.608   6.125  13.654  0.0933  0.1031 -0.2870
 9735TIP3    H150620   5.551   6.195  13.624  0.3777  0.6463  0.4015
 9735TIP3    H250621   5.686   6.131  13.598 -0.4801 -0.5995 -1.1839
 9736TIP3   OH250622   0.658   1.631  16.199 -0.4382  0.2531  0.1340
 9736TIP3    H150623   0.574   1.586  16.190 -0.9302  1.2765 -0.4960
 9736TIP3    H250624   0.686   1.610  16.288 -1.1717 -0.4042  0.2242
 9737TIP3   OH250625   2.929   3.249   1.327  0.5508  0.8059  0.2493
 9737TIP3    H150626   2.924   3.157   1.353  0.9549  1.0498  1.2177
 9737TIP3    H250627   2.863   3.257   1.258  1.7486 -0.6203 -1.1490
 9738TIP3   OH250628   6.025   1.515   2.270 -0.0484 -0.5278  0.3292
 9738TIP3    H150629   6.010   1.487   2.179 -1.5227 -0.9395  0.6662
 9738TIP3    H250630   5.944   1.562   2.293  1.1341  1.3987  0.7780
 9739TIP3   OH250631   3.765   5.056  14.585  0.6802  0.6079  0.0780
 9739TIP3    H150632   3.670   5.067  14.578  0.6900 -0.2805 -2.8650
 9739TIP3    H250633   3.776   4.967  14.618  0.4986  0.8069  0.6815
 9740TIP3   OH250634   6.281   5.819  14.503  0.5434  0.2186  0.1048
 9740TIP3    H150635   6.333   5.899  14.507  0.8935 -0.0008 -0.0536
 9740TIP3    H250636   6.296   5.785  14.415  1.5433 -0.7781  0.6387
 9741TIP3   OH250637   3.347   6.012   1.287 -1.0711  0.6850 -0.0595
 9741TIP3    H150638   3.280   6.024   1.354 -1.1410  1.0483 -0.1893
 9741TIP3    H250639   3.298   5.988   1.208 -0.8422 -2.0321  0.5338
 9742TIP3   OH250640   0.111   3.978  14.192 -0.8374 -0.0317 -0.6999
 9742TIP3    H150641   0.154   4.061  14.214 -1.9310  0.0988  1.0990
 9742TIP3    H250642   0.018   4.000  14.184 -0.9109 -0.7567 -2.1512
 9743TIP3   OH250643   3.284   4.655   0.872 -0.3125  0.3755  0.5380
 9743TIP3    H150644   3.304   4.673   0.780 -1.5327  0.3264  0.2462
 9743TIP3    H250645   3.368   4.632   0.911  0.3199  0.9710 -0.4275
 9744TIP3   OH250646   3.786   2.071   0.880 -0.3307  0.3699  0.0735
 9744TIP3    H150647   3.849   2.126   0.927 -0.5558  0.6858  0.0144
 9744TIP3    H250648   3.782   2.110   0.792 -0.5685  0.3178  0.0612
 9745TIP3   OH250649   2.280   2.872  13.135 -0.1927 -0.0249 -0.1017
 9745TIP3    H150650   2.324   2.841  13.056 -0.4380  0.0441 -0.2662
 9745TIP3    H250651   2.351   2.895  13.195 -0.0056 -0.3984 -0.1758
 9746TIP3   OH250652   3.818   2.033   2.942  0.1409  0.5504 -0.5736
 9746TIP3    H150653   3.791   1.999   3.027 -0.0278  0.9898 -0.4499
 9746TIP3    H250654   3.812   2.128   2.951 -0.6749  0.5748 -1.3351
 9747TIP3   OH250655   4.756   5.440   2.597  0.1984 -0.5949  0.2096
 9747TIP3    H150656   4.821   5.506   2.575  0.1415 -0.4415  0.4967
 9747TIP3    H250657   4.751   5.384   2.519  0.3621 -0.3572  0.0269
 9748TIP3   OH250658   6.125   3.714  13.347  0.3528  0.4350 -0.2501
 9748TIP3    H150659   6.131   3.750  13.436 -0.0399 -1.0701  0.4283
 9748TIP3    H250660   6.187   3.765  13.296 -0.3147  2.1730  0.5916
 9749TIP3   OH250661   0.202   5.921  14.588 -0.4452  0.0319 -0.3258
 9749TIP3    H150662   0.269   5.958  14.645 -0.5852  0.1658 -0.2468
 9749TIP3    H250663   0.168   5.997  14.539 -2.1867  0.3832  1.3141
 9750TIP3   OH250664   3.494   1.203   5.959 -0.1647 -0.2706  0.0034
 9750TIP3    H150665   3.440   1.253   6.019 -2.6814 -0.1431 -2.2018
 9750TIP3    H250666   3.481   1.112   5.985 -2.3019 -0.3219 -1.0439
 9751TIP3   OH250667   5.687   2.675   5.392 -0.0638  0.6510 -0.2240
 9751TIP3    H150668   5.647   2.742   5.447 -0.0351 -1.4548  2.5686
 9751TIP3    H250669   5.613   2.627   5.355 -0.2591 -1.1109  2.2190
 9752TIP3   OH250670   0.072   0.553   5.533  0.3838 -0.1877  0.2416
 9752TIP3    H150671   0.017   0.579   5.606 -0.0944 -0.6038  0.0380
 9752TIP3    H250672   0.023   0.580   5.455 -0.4119 -2.1837  0.0028
 9753TIP3   OH250673   0.056   1.688  14.872  0.5439 -0.2253  0.1195
 9753TIP3    H150674   0.147   1.671  14.898  0.1656 -0.0588  1.6572
 9753TIP3    H250675   0.008   1.695  14.955 -1.0833 -1.3816 -0.6610
 9754TIP3   OH250676   1.396   2.759   4.003  0.6211 -0.0876 -0.6285
 9754TIP3    H150677   1.397   2.689   3.937  1.2702  1.2869 -2.1345
 9754TIP3    H250678   1.328   2.819   3.974  0.5753  0.2955  0.2369
 9755TIP3   OH250679   2.433   0.878  13.104  0.1602 -0.0378  0.0569
 9755TIP3    H150680   2.399   0.939  13.038  0.6563  0.3487  0.1554
 9755TIP3    H250681   2.522   0.909  13.121  0.5961 -1.0851 -0.2555
 9756TIP3   OH250682   0.236   1.054   0.645  0.4448 -0.0488  0.0598
 9756TIP3    H150683   0.177   1.089   0.712  1.4919  1.9189  0.0058
 9756TIP3    H250684   0.185   1.055   0.564  0.2126  0.6784  0.2076
 9757TIP3   OH250685   6.330   0.320   3.485 -1.2246 -0.0569 -0.1768
 9757TIP3    H150686   6.310   0.287   3.573 -2.2102  2.1513  0.4951
 9757TIP3    H250687   6.250   0.303   3.434 -1.0480 -0.3695 -0.3518
 9758TIP3   OH250688   0.519   4.108  11.707 -0.3989 -0.7729  0.0178
 9758TIP3    H150689   0.496   4.053  11.782 -1.0797  0.9680  1.1385
 9758TIP3    H250690   0.609   4.136  11.725 -1.2289  1.3219  1.3489
 9759TIP3   OH250691   2.351   2.455   0.307  0.6259 -0.2635 -0.1077
 9759TIP3    H150692   2.415   2.458   0.378  0.3304 -0.2055  0.1586
 9759TIP3    H250693   2.313   2.543   0.306  0.7816 -0.1996 -0.4789
 9760TIP3   OH250694   5.618   2.436   4.220 -0.5799  0.3048  0.5090
 9760TIP3    H150695   5.702   2.478   4.203 -0.1130 -0.4283  0.9366
 9760TIP3    H250696   5.583   2.483   4.296 -0.4861  0.5177  0.4214
 9761TIP3   OH250697   1.960   4.984   3.776 -0.5790 -0.1321 -0.7432
 9761TIP3    H150698   2.032   5.044   3.756 -0.3047  0.0051  0.5877
 9761TIP3    H250699   1.971   4.962   3.868 -1.8347 -0.6672 -0.6923
 9762TIP3   OH250700   0.640   4.774   3.896  0.0455 -0.2230  0.2011
 9762TIP3    H150701   0.553   4.740   3.875 -0.5685  1.4350 -0.0635
 9762TIP3    H250702   0.623   4.848   3.954  1.1009  1.8116 -1.9675
 9763TIP3   OH250703   4.957   0.858   4.979 -0.0212  0.1193  0.3920
 9763TIP3    H150704   4.879   0.809   4.954  0.3755 -0.8298  0.9255
 9763TIP3    H250705   4.924   0.929   5.034 -0.6516  0.7559 -0.7658
 9764TIP3   OH250706   5.134   0.539  14.975  0.3829 -0.4582 -0.2528
 9764TIP3    H150707   5.058   0.514  14.922 -0.3143  0.2085  0.4205
 9764TIP3    H250708   5.175   0.611  14.927 -0.3987  0.3208  0.2193
 9765TIP3   OH250709   5.410   4.529  13.972  0.4286  0.3611 -0.1029
 9765TIP3    H150710   5.485   4.561  14.021  1.8249 -1.2602 -1.0468
 9765TIP3    H250711   5.401   4.589  13.898  0.6781  0.6712  0.1218
 9766TIP3   OH250712   1.144   5.064  17.336 -0.3526  0.0293 -0.0484
 9766TIP3    H150713   1.231   5.061  17.376 -0.4837 -1.3568  0.1742
 9766TIP3    H250714   1.090   5.009  17.392 -1.2060  0.3117 -0.5790
 9767TIP3   OH250715   0.960   0.062   5.147 -0.0693 -0.2108 -0.0602
 9767TIP3    H150716   1.037   0.112   5.118 -0.8166 -0.3093 -2.4215
 9767TIP3    H250717   0.914   0.121   5.206  1.1201  0.3667  0.3167
 9768TIP3   OH250718   3.078   4.523   6.141 -0.2852 -0.4591 -0.2635
 9768TIP3    H150719   3.016   4.471   6.192  0.9029 -0.5537  1.1620
 9768TIP3    H250720   3.027   4.559   6.069 -1.6972 -1.5323  0.1745
 9769TIP3   OH250721   1.713   0.113  17.069  0.4299  0.3199 -0.0148
 9769TIP3    H150722   1.663   0.034  17.048 -0.3358  0.6461  0.5038
 9769TIP3    H250723   1.712   0.117  17.165  1.1363  0.5347 -0.0160
 9770TIP3   OH250724   1.139   3.208   2.980 -0.7922 -0.3991  0.1116
 9770TIP3    H150725   1.046   3.213   3.001 -0.6051 -0.5253  1.0094
 9770TIP3    H250726   1.176   3.153   3.049  0.1605  0.6701  0.4677
 9771TIP3   OH250727   3.775   1.374  14.130 -0.2246  0.5354  0.1049
 9771TIP3    H150728   3.750   1.373  14.223 -1.2333 -0.9711 -0.1427
 9771TIP3    H250729   3.863   1.410  14.129 -1.4169  3.8950  1.2972
 9772TIP3   OH250730   5.758   0.382   2.239  0.1047  0.1219  0.6542
 9772TIP3    H150731   5.809   0.413   2.164  1.6745  1.8404  2.3163
 9772TIP3    H250732   5.777   0.288   2.243 -0.7272 -0.2017 -1.5590
 9773TIP3   OH250733   6.217   0.794   6.584 -0.0071  0.5538 -0.6250
 9773TIP3    H150734   6.147   0.835   6.534 -1.6391 -1.4947 -0.1460
 9773TIP3    H250735   6.175   0.762   6.664  1.4162 -0.8752 -0.3993
 9774TIP3   OH250736   4.710   4.574  14.561 -0.5263 -0.3548 -0.2870
 9774TIP3    H150737   4.652   4.648  14.542 -0.0989 -0.0881 -0.5710
 9774TIP3    H250738   4.784   4.613  14.608  0.0066 -0.4944 -0.9901
 9775TIP3   OH250739   3.740   1.400  14.401 -0.1025 -0.4810  0.0203
 9775TIP3    H150740   3.650   1.392  14.432  0.9298 -1.8659  3.1284
 9775TIP3    H250741   3.773   1.480  14.442  0.0426  0.1280 -1.2617
 9776TIP3   OH250742   6.284   1.479   4.146  0.1211  0.5069  0.2259
 9776TIP3    H150743   6.301   1.385   4.134  0.9400  0.5579  0.9498
 9776TIP3    H250744   6.271   1.512   4.057  0.9882 -0.0811 -0.1292
 9777TIP3   OH250745   4.358   4.032  14.852  0.4390  0.3854 -0.0118
 9777TIP3    H150746   4.445   4.065  14.830  0.2061  0.4198 -0.9422
 9777TIP3    H250747   4.375   3.959  14.911  1.1597 -0.1174 -0.8037
 9778TIP3   OH250748   4.372   4.476  17.451  0.3327 -0.4759  0.2719
 9778TIP3    H150749   4.291   4.429  17.474 -0.3702 -0.1012 -1.3190
 9778TIP3    H250750   4.372   4.478  17.356  0.8116  1.9462  0.2707
 9779TIP3   OH250751   3.032   6.123   2.520  0.4561  0.0179  0.0421
 9779TIP3    H150752   2.965   6.067   2.560  1.2903  0.0186  1.4939
 9779TIP3    H250753   3.078   6.162   2.594  0.1984  2.3163 -0.9354
 9780TIP3   OH250754   5.664   5.629  11.662  0.2349 -0.2284  0.3219
 9780TIP3    H150755   5.609   5.552  11.647 -1.4172  1.1374 -1.0859
 9780TIP3    H250756   5.735   5.619  11.598  0.0043 -0.5589  0.1088
 9781TIP3   OH250757   6.016   6.591  10.915  0.1116 -0.4139  0.3682
 9781TIP3    H150758   5.963   6.659  10.957  3.5260  1.7230  1.7657
 9781TIP3    H250759   5.994   6.511  10.962 -1.2711  0.5289  1.4058
 9782TIP3   OH250760   1.605   6.422   1.772  0.0237  0.4278  0.3653
 9782TIP3    H150761   1.638   6.401   1.859 -0.4414 -0.0151  0.4383
 9782TIP3    H250762   1.657   6.367   1.713 -1.0598 -0.8248  0.5403
 9783TIP3   OH250763   3.541   3.300   5.372 -0.4319  0.1598  0.1236
 9783TIP3    H150764   3.478   3.296   5.444 -1.8904  1.4778 -1.0111
 9783TIP3    H250765   3.502   3.247   5.303 -0.0842  0.6212 -0.4349
 9784TIP3   OH250766   6.489   5.097   2.840 -0.1759 -0.1020  0.0981
 9784TIP3    H150767   6.509   5.174   2.787  1.5213 -0.6142 -0.0691
 9784TIP3    H250768   6.541   5.109   2.920  1.7782 -1.9635 -0.7754
 9785TIP3   OH250769   1.719   1.978   0.590  0.4017  0.0360  0.5996
 9785TIP3    H150770   1.788   1.957   0.652  0.3219  0.8723  0.9853
 9785TIP3    H250771   1.680   1.894   0.568  2.4187 -0.6525 -0.6910
 9786TIP3   OH250772   4.892   2.353  12.871  0.4787 -0.1693 -0.2529
 9786TIP3    H150773   4.864   2.424  12.812  1.4849  0.4430 -0.0190
 9786TIP3    H250774   4.881   2.389  12.959  2.5632  0.3553 -0.1584
 9787TIP3   OH250775   4.639   0.575  16.059  0.3429  0.4852 -0.2055
 9787TIP3    H150776   4.562   0.613  16.016 -0.2889 -1.4605 -0.9317
 9787TIP3    H250777   4.714   0.615  16.016 -0.2414  2.0405  0.1612
 9788TIP3   OH250778   4.417   3.824   3.904 -0.1390 -0.2526  0.3444
 9788TIP3    H150779   4.428   3.902   3.849 -1.8460  2.1139  3.1229
 9788TIP3    H250780   4.474   3.839   3.979 -1.5800 -0.9418  1.6360
 9789TIP3   OH250781   0.535   0.001   0.320 -0.0216 -0.4213  0.3874
 9789TIP3    H150782   0.556  -0.018   0.228  0.3807  0.3168  0.3234
 9789TIP3    H250783   0.475  -0.069   0.345 -2.3823  0.8505 -1.2745
 9790TIP3   OH250784   1.306   5.762  12.661  0.1825 -0.1073 -0.2698
 9790TIP3    H150785   1.233   5.796  12.713 -0.5072 -1.7951 -0.0549
 9790TIP3    H250786   1.291   5.797  12.573 -1.1122 -0.6913 -0.3105
 9791TIP3   OH250787   4.219   2.383  11.546 -0.1527 -0.0888 -0.3367
 9791TIP3    H150788   4.189   2.307  11.496  0.9188 -1.4179  0.9217
 9791TIP3    H250789   4.138   2.425  11.577 -0.7760 -0.3663 -1.5235
 9792TIP3   OH250790   0.883   3.944   1.078  0.3393  0.1471  0.2847
 9792TIP3    H150791   0.858   3.950   1.170  1.3143  0.5671  0.5358
 9792TIP3    H250792   0.913   3.853   1.068  0.8056  0.2683  0.5417
 9793TIP3   OH250793   3.442   3.847  14.145 -0.0241  0.4632 -0.4931
 9793TIP3    H150794   3.365   3.902  14.132 -0.5403 -0.1942 -0.2631
 9793TIP3    H250795   3.489   3.852  14.061  0.2872  1.7660 -0.2662
 9794TIP3   OH250796   4.459   3.353   2.938 -0.2440 -0.1092  0.9471
 9794TIP3    H150797   4.387   3.293   2.957 -1.3852  0.7303 -0.5501
 9794TIP3    H250798   4.424   3.414   2.874  2.0430 -0.1154 -0.4184
 9795TIP3   OH250799   2.997   1.184  11.643  0.0929  0.1284 -0.1464
 9795TIP3    H150800   2.942   1.226  11.578 -1.5075 -0.1219  0.9935
 9795TIP3    H250801   3.047   1.119  11.594 -0.8042  0.1824 -1.1618
 9796TIP3   OH250802   4.631   1.112   3.789 -0.3394 -0.4167 -0.3756
 9796TIP3    H150803   4.701   1.155   3.739  0.1038 -0.1644  0.4544
 9796TIP3    H250804   4.637   1.020   3.765  0.4131 -0.4258 -0.1494
 9797TIP3   OH250805   3.531   2.168   2.553 -0.5218  0.0972 -0.1174
 9797TIP3    H150806   3.547   2.121   2.635 -0.2065  2.5649  1.3488
 9797TIP3    H250807   3.436   2.173   2.546 -0.5622 -0.8288 -0.3687
 9798TIP3   OH250808   4.253   5.329  11.108  0.2999  0.1165  0.2435
 9798TIP3    H150809   4.205   5.390  11.163  0.8812  0.4084  0.4441
 9798TIP3    H250810   4.232   5.354  11.018 -0.5705 -0.2964  0.3283
 9799TIP3   OH250811   2.721   5.858  17.129 -0.2232 -0.4058  0.7147
 9799TIP3    H150812   2.686   5.769  17.123 -0.7907 -0.1489  0.0795
 9799TIP3    H250813   2.650   5.914  17.098 -0.2494  0.3659  2.0733
 9800TIP3   OH250814   0.237   4.754  11.666 -0.1486  0.4551  0.1621
 9800TIP3    H150815   0.196   4.833  11.632  0.9317  0.2900 -1.6495
 9800TIP3    H250816   0.255   4.701  11.589  2.1043 -0.1204  1.0113
 9801TIP3   OH250817   4.768   0.433  17.318  0.1308 -0.0624 -0.2728
 9801TIP3    H150818   4.762   0.490  17.395 -0.4471 -0.1009 -0.2853
 9801TIP3    H250819   4.703   0.469  17.257  1.1173  0.4405 -1.0609
 9802TIP3   OH250820   2.240   0.819   3.024  0.2909  0.2958  0.1861
 9802TIP3    H150821   2.182   0.755   2.982  2.1137  0.1863 -2.4712
 9802TIP3    H250822   2.319   0.770   3.045 -0.4727  0.3897  3.9317
 9803TIP3   OH250823   2.657   3.551  16.833 -0.4341 -0.1195  0.5010
 9803TIP3    H150824   2.681   3.625  16.889 -2.1694  0.4658  0.5270
 9803TIP3    H250825   2.647   3.477  16.893  0.3499 -0.1486  0.6019
 9804TIP3   OH250826   0.613   1.921   6.647 -0.2458  0.2926 -0.0732
 9804TIP3    H150827   0.544   1.977   6.682  0.4220 -1.1521  4.1643
 9804TIP3    H250828   0.691   1.977   6.645 -0.4609  0.5966  0.1082
 9805TIP3   OH250829   5.245   1.459  15.177 -0.2934 -0.6028  0.2416
 9805TIP3    H150830   5.155   1.476  15.206  0.1132 -1.4399  2.1936
 9805TIP3    H250831   5.272   1.384  15.229  1.4985 -0.4541 -0.4222
 9806TIP3   OH250832   5.512   5.540  17.316  0.3077  0.0462 -0.3647
 9806TIP3    H150833   5.575   5.596  17.271 -0.4247 -0.6641 -2.4433
 9806TIP3    H250834   5.454   5.600  17.362  1.1317  0.8265 -0.3208
 9807TIP3   OH250835   3.956   6.433   3.373  0.0389 -0.2298 -0.0805
 9807TIP3    H150836   3.924   6.390   3.294 -0.6892  2.0923 -1.1404
 9807TIP3    H250837   3.883   6.426   3.435  0.0351 -0.7371 -0.1356
 9808TIP3   OH250838   6.359   2.637  13.147 -0.4639 -0.1470  0.0195
 9808TIP3    H150839   6.408   2.566  13.188  0.0836  0.1486 -0.1050
 9808TIP3    H250840   6.346   2.608  13.057  0.2790  0.1605 -0.1932
 9809TIP3   OH250841   5.005   6.504   0.456 -0.4254 -0.1686 -0.5698
 9809TIP3    H150842   4.937   6.571   0.461 -1.0109 -0.8480  2.7841
 9809TIP3    H250843   4.961   6.424   0.483  1.4098 -0.8925  0.3827
 9810TIP3   OH250844   5.115   5.896  15.790 -0.0248  0.3283  0.4936
 9810TIP3    H150845   5.144   5.931  15.875 -0.2212  2.8580 -0.4079
 9810TIP3    H250846   5.196   5.883  15.741  0.1880 -2.2580  1.3791
 9811TIP3   OH250847   5.313   2.754   4.253  0.6555  0.0816 -1.3460
 9811TIP3    H150848   5.258   2.713   4.320  1.3264  0.2274 -0.6945
 9811TIP3    H250849   5.399   2.715   4.265  0.8841  0.4129 -1.8607
 9812TIP3   OH250850   1.757   1.551   6.527 -0.4138 -0.2106 -0.2510
 9812TIP3    H150851   1.750   1.627   6.471  0.5937 -0.0573 -0.1867
 9812TIP3    H250852   1.851   1.532   6.531 -0.3215  0.4197  2.2019
 9813TIP3   OH250853   0.998   4.790  11.798  0.5079  0.5413  0.0500
 9813TIP3    H150854   0.922   4.842  11.823  1.5811  1.3430  1.7375
 9813TIP3    H250855   1.041   4.841  11.730 -0.4800  0.0316 -0.9947
 9814TIP3   OH250856   4.427   4.167  15.244  0.0016 -0.0871 -0.1284
 9814TIP3    H150857   4.514   4.131  15.259 -0.2256 -0.7021 -0.2662
 9814TIP3    H250858   4.368   4.093  15.256 -0.3703 -0.1193 -1.8316
 9815TIP3   OH250859   1.970   0.339  11.684  0.2877  0.4287 -0.7872
 9815TIP3    H150860   2.039   0.332  11.619  0.2291  0.9736 -0.9099
 9815TIP3    H250861   1.999   0.282  11.756  0.2986 -0.2596 -1.3249
 9816TIP3   OH250862   5.941   4.412   3.847  0.1706 -0.6611  0.0912
 9816TIP3    H150863   5.926   4.408   3.941  1.2116 -0.3223  0.2902
 9816TIP3    H250864   6.000   4.487   3.835  0.1186 -0.7466 -0.8147
 9817TIP3   OH250865   0.060   2.855   3.796  0.2286 -0.3793 -0.2790
 9817TIP3    H150866   0.112   2.777   3.776  2.2436  0.9350 -0.4510
 9817TIP3    H250867  -0.024   2.821   3.828  0.7290 -2.5847 -1.1616
 9818TIP3   OH250868   4.435   2.831  13.504 -0.4283  0.0653  0.3899
 9818TIP3    H150869   4.450   2.884  13.582  1.2137 -0.6428  0.5835
 9818TIP3    H250870   4.351   2.862  13.470  0.0951  2.2420  0.9414
 9819TIP3   OH250871   6.497   1.563  12.278 -0.8726  0.3623 -0.1635
 9819TIP3    H150872   6.552   1.523  12.346  0.5516  3.2654  0.5153
 9819TIP3    H250873   6.414   1.580  12.323 -0.8178 -0.0495  0.1022
 9820TIP3   OH250874   4.739   4.509  10.835 -0.2342  0.0847  0.0712
 9820TIP3    H150875   4.661   4.562  10.817  0.6266  1.5846  0.5650
 9820TIP3    H250876   4.792   4.563  10.893  1.3659 -0.7262 -0.5584
 9821TIP3   OH250877   3.741   1.346   2.046  0.2584  0.3186  0.1745
 9821TIP3    H150878   3.836   1.343   2.035  0.3049 -0.4952  0.7378
 9821TIP3    H250879   3.726   1.316   2.136 -0.5641 -0.0159 -0.0662
 9822TIP3   OH250880   5.477   5.400   5.924 -0.3554 -0.5448 -0.1610
 9822TIP3    H150881   5.530   5.448   5.987  0.0313  0.3366 -1.1098
 9822TIP3    H250882   5.402   5.369   5.974 -0.0965  0.1907  0.7140
 9823TIP3   OH250883   3.012   2.824   2.954 -0.0659  0.1409 -0.1428
 9823TIP3    H150884   2.963   2.833   3.036  0.8805  0.8849  0.3742
 9823TIP3    H250885   3.100   2.856   2.976 -0.1739  1.7674 -1.8124
 9824TIP3   OH250886   2.902   2.131   4.729  0.0225 -0.2165  0.0185
 9824TIP3    H150887   2.836   2.176   4.781  0.4447 -0.2698  0.6162
 9824TIP3    H250888   2.985   2.168   4.760  0.2810 -0.2935 -0.5805
 9825TIP3   OH250889   1.008   0.395  17.036  0.0884  0.1674 -0.7768
 9825TIP3    H150890   0.987   0.438  17.119  2.9074 -0.4560  0.3716
 9825TIP3    H250891   0.952   0.318  17.034 -1.0650  0.9620 -0.1916
 9826TIP3   OH250892   3.929   3.698  16.626  0.4303 -0.0077 -0.1901
 9826TIP3    H150893   3.849   3.664  16.585 -0.7834  1.8705  0.4798
 9826TIP3    H250894   3.919   3.677  16.718 -0.4298  2.1505  0.2698
 9827TIP3   OH250895   5.855   5.091  17.353  0.1995 -0.4651  0.1475
 9827TIP3    H150896   5.914   5.120  17.423  1.2166  0.8723 -1.1796
 9827TIP3    H250897   5.772   5.135  17.371  1.0103  1.4413 -0.4658
 9828TIP3   OH250898   4.032   2.408  14.648  0.5133 -0.5901 -0.1756
 9828TIP3    H150899   3.983   2.396  14.730  1.1557  0.1791  0.3473
 9828TIP3    H250900   4.079   2.325  14.636 -0.4724 -1.1237 -0.3837
 9829TIP3   OH250901   5.869   0.797   2.758  0.1252 -0.2409 -0.4007
 9829TIP3    H150902   5.961   0.775   2.743 -0.3600 -0.3862 -4.2287
 9829TIP3    H250903   5.865   0.892   2.747  0.0336  0.0041  1.5297
 9830TIP3   OH250904   6.540   6.349  15.142  0.3288 -0.1841 -0.3898
 9830TIP3    H150905   6.533   6.261  15.180 -0.0937  0.3993  0.9632
 9830TIP3    H250906   6.457   6.361  15.096 -1.1298  0.7524  2.3084
 9831TIP3   OH250907   3.429   4.300   4.191  0.1984  0.0645 -0.0796
 9831TIP3    H150908   3.335   4.319   4.187 -0.3108 -2.0644  0.5809
 9831TIP3    H250909   3.461   4.319   4.103 -0.6096  1.7594 -0.0562
 9832TIP3   OH250910   5.912   4.260  12.853  0.3524 -0.3070 -0.3219
 9832TIP3    H150911   5.939   4.351  12.848  1.2772 -0.5567 -0.0347
 9832TIP3    H250912   5.827   4.262  12.897  0.7474  0.3447  0.4225
 9833TIP3   OH250913   1.519   2.238   5.986 -0.1193  0.2907 -0.5089
 9833TIP3    H150914   1.599   2.286   6.006  0.7341 -0.8575 -1.0647
 9833TIP3    H250915   1.465   2.247   6.065  0.4714  1.2161 -0.1965
 9834TIP3   OH250916   1.917   1.543   6.163  0.8452 -0.0490  0.1508
 9834TIP3    H150917   1.896   1.546   6.070  0.3706  0.7864  0.2752
 9834TIP3    H250918   1.982   1.474   6.171  1.0874  0.0526 -0.8422
 9835TIP3   OH250919   4.927   3.804   6.053  0.8736  0.4894  0.2630
 9835TIP3    H150920   4.831   3.797   6.048  0.8266  0.7767  0.6446
 9835TIP3    H250921   4.959   3.761   5.974  0.3742  1.5882 -0.5638
 9836TIP3   OH250922   0.704   1.103   6.014 -0.1308  0.1118  0.7281
 9836TIP3    H150923   0.659   1.079   6.095 -1.1340  0.0938  0.1812
 9836TIP3    H250924   0.671   1.041   5.949 -0.8504  1.3288 -0.1299
 9837TIP3   OH250925   0.252   5.158  11.904  0.1266 -0.0818 -0.2775
 9837TIP3    H150926   0.292   5.099  11.967  1.1076 -1.5363 -2.1432
 9837TIP3    H250927   0.159   5.137  11.907  0.3682 -1.2329 -0.3960
 9838TIP3   OH250928   2.034   1.399  14.768 -0.0104 -0.2754 -0.9180
 9838TIP3    H150929   2.013   1.440  14.852 -1.2937 -0.0929 -1.3123
 9838TIP3    H250930   2.125   1.369  14.778  0.2184  0.6975  0.1494
 9839TIP3   OH250931   1.274   6.346  12.842  0.0525 -0.1764 -0.1423
 9839TIP3    H150932   1.364   6.361  12.813 -0.1290  0.9430 -0.1874
 9839TIP3    H250933   1.248   6.265  12.799  0.8025 -0.1425 -0.6823
 9840TIP3   OH250934   2.551   3.008  16.909 -0.3494  0.5549  0.2422
 9840TIP3    H150935   2.467   2.964  16.920 -0.9008  1.5889  0.2339
 9840TIP3    H250936   2.534   3.099  16.932  0.5174  0.9991 -0.8050
 9841TIP3   OH250937   3.256   4.148  15.910  0.0382  0.4166  0.3855
 9841TIP3    H150938   3.331   4.141  15.851  1.2466 -0.6286  1.9714
 9841TIP3    H250939   3.272   4.226  15.962  0.6171 -0.3828  1.4524
 9842TIP3   OH250940   6.403   1.917   1.235  0.1742 -0.4525  0.2636
 9842TIP3    H150941   6.389   1.979   1.164  1.9428  0.2537  0.4905
 9842TIP3    H250942   6.430   1.837   1.192  1.9218  0.1744  0.1341
 9843TIP3   OH250943   6.319   3.078  17.204 -0.2343  0.0059 -0.2671
 9843TIP3    H150944   6.378   3.006  17.227 -0.6051  0.2464  1.6706
 9843TIP3    H250945   6.343   3.102  17.115  2.0174 -0.4429  0.1684
 9844TIP3   OH250946   3.489   1.467  14.505 -0.0923  0.4848 -0.2156
 9844TIP3    H150947   3.451   1.417  14.433 -0.8277 -0.9583  1.0921
 9844TIP3    H250948   3.470   1.414  14.583  2.0150  1.1949  0.8674
 9845TIP3   OH250949   1.697   0.464   6.495  0.2849 -0.4686 -0.1747
 9845TIP3    H150950   1.665   0.377   6.521  0.2432 -0.5354 -0.4498
 9845TIP3    H250951   1.753   0.447   6.420  0.7877 -0.3239  0.1637
 9846TIP3   OH250952   5.689   4.934  15.383 -0.1609 -0.2761 -0.3626
 9846TIP3    H150953   5.654   4.991  15.315 -0.4772 -0.5162 -0.4049
 9846TIP3    H250954   5.651   4.848  15.364 -0.5074 -0.2732  0.3053
 9847TIP3   OH250955   4.721   1.747  16.861 -0.7649  0.1962  0.6729
 9847TIP3    H150956   4.702   1.793  16.943  0.2519  0.9888  0.4713
 9847TIP3    H250957   4.709   1.813  16.793  0.5309  0.1402  0.3641
 9848TIP3   OH250958   2.070   0.068  14.524 -0.5386  0.1019  0.0808
 9848TIP3    H150959   1.974   0.070  14.529 -0.6758 -2.2804 -0.4131
 9848TIP3    H250960   2.089   0.031  14.438  0.8647  0.7975  0.0543
 9849TIP3   OH250961   2.039   4.683  14.092  0.1445  0.4406  0.1662
 9849TIP3    H150962   1.988   4.610  14.058  2.4415 -1.6733  0.9857
 9849TIP3    H250963   2.012   4.758  14.039 -0.5193 -1.5000 -2.4324
 9850TIP3   OH250964   2.142   4.190  15.350  0.2019  0.3106  0.5972
 9850TIP3    H150965   2.093   4.271  15.341 -0.3572 -0.1054 -0.1657
 9850TIP3    H250966   2.076   4.124  15.372  0.5370 -0.0939  0.4116
 9851TIP3   OH250967   6.651   2.771   3.373 -0.6105  0.6070 -0.1143
 9851TIP3    H150968   6.569   2.820   3.372 -0.1766  1.3350 -1.0921
 9851TIP3    H250969   6.679   2.768   3.281  0.3359  0.1551  0.1724
 9852TIP3   OH250970   2.457   2.921  15.213  0.0184  0.2197 -0.6649
 9852TIP3    H150971   2.520   2.925  15.284  0.7199 -0.2763 -1.2463
 9852TIP3    H250972   2.404   3.000  15.223 -0.8556 -0.5385  1.2535
 9853TIP3   OH250973   5.316   6.643   3.955  0.1461  0.5019 -0.3868
 9853TIP3    H150974   5.284   6.558   3.926 -0.0935  0.3624  0.2758
 9853TIP3    H250975   5.260   6.707   3.912 -0.1348  0.3015 -0.3151
 9854TIP3   OH250976   6.578   3.807   2.612 -0.1818  0.3584  0.0021
 9854TIP3    H150977   6.664   3.780   2.581 -0.9819 -1.2004 -0.9621
 9854TIP3    H250978   6.523   3.729   2.603 -0.9745  0.3147  3.5838
 9855TIP3   OH250979   3.846   0.079   0.896  0.0618  0.3083 -0.1418
 9855TIP3    H150980   3.914   0.141   0.923 -0.0899  0.1909  0.5301
 9855TIP3    H250981   3.881  -0.006   0.921  0.4369  0.0682 -1.3997
 9856TIP3   OH250982   1.928   3.782   2.654 -0.0956  0.0561  0.0258
 9856TIP3    H150983   2.017   3.759   2.626  0.1332 -0.0286  0.7892
 9856TIP3    H250984   1.881   3.699   2.658 -0.2609  0.1194 -0.5392
 9857TIP3   OH250985   3.976   0.230   0.538 -0.0757  0.4503 -0.5514
 9857TIP3    H150986   3.887   0.214   0.570  0.0940  0.0409 -0.2668
 9857TIP3    H250987   3.998   0.318   0.570 -0.1398  0.2904 -0.0556
 9858TIP3   OH250988   1.513   1.536   5.251  0.2507  0.6682 -0.3873
 9858TIP3    H150989   1.484   1.587   5.327  1.2189  0.8323 -0.1197
 9858TIP3    H250990   1.605   1.515   5.269 -0.5410 -2.7814  0.4181
 9859TIP3   OH250991   4.343   6.085   3.700  0.0112 -0.5968 -0.2200
 9859TIP3    H150992   4.328   6.135   3.780 -3.2311  0.8990 -1.6026
 9859TIP3    H250993   4.276   6.016   3.701  0.2429 -0.8775 -1.4100
 9860TIP3   OH250994   6.603   4.033  13.912  0.2480  0.7955 -0.3123
 9860TIP3    H150995   6.603   4.079  13.996  0.8191 -1.2303  0.8730
 9860TIP3    H250996   6.511   4.009  13.899  0.6176 -3.2927  2.4733
 9861TIP3   OH250997   1.026   3.484  12.749 -0.3220  0.0735 -1.1149
 9861TIP3    H150998   1.000   3.571  12.717 -0.0638  0.1056 -1.2445
 9861TIP3    H250999   1.050   3.435  12.670 -1.3073 -0.4071 -1.1219
 9862TIP3   OH251000   0.891   5.167   0.880 -0.6812  0.0741  0.3722
 9862TIP3    H151001   0.887   5.258   0.850 -0.6877  0.4126  1.3396
 9862TIP3    H251002   0.864   5.115   0.805  1.0565  0.7528 -0.7720
 9863TIP3   OH251003   2.349   2.459   5.734  0.3031 -0.3763  0.2448
 9863TIP3    H151004   2.343   2.414   5.650  1.0663  0.1625 -0.1151
 9863TIP3    H251005   2.442   2.459   5.755  0.1198 -0.5064  1.0969
 9864TIP3   OH251006   0.389   5.823   5.844 -0.5162  0.1381  0.3167
 9864TIP3    H151007   0.389   5.783   5.757  0.2010  2.7168 -0.9982
 9864TIP3    H251008   0.304   5.867   5.851  0.4343  2.1953 -0.3056
 9865TIP3   OH251009   2.304   1.445   2.659 -0.9819  0.0760  0.2128
 9865TIP3    H151010   2.261   1.400   2.731 -0.7995  0.7425  0.7537
 9865TIP3    H251011   2.395   1.415   2.663 -0.5534  1.4264  1.3827
 9866TIP3   OH251012   3.997   1.912   0.487  0.2497 -0.0044 -0.2148
 9866TIP3    H151013   3.915   1.961   0.495 -0.0546 -0.7539  1.8206
 9866TIP3    H251014   4.060   1.963   0.538  0.1255 -1.2295  1.2432
 9867TIP3   OH251015   3.891   6.612  13.789 -0.1219 -0.5466 -0.4407
 9867TIP3    H151016   3.865   6.529  13.829  2.2306  0.4802  3.8784
 9867TIP3    H251017   3.809   6.661  13.780 -1.0964 -1.8325  0.8953
 9868TIP3   OH251018   6.053   5.476  15.012 -0.3639 -0.8208 -0.4630
 9868TIP3    H151019   6.079   5.416  14.942 -1.7155 -1.1394 -0.7219
 9868TIP3    H251020   6.089   5.561  14.986  1.0976 -1.3943 -0.3670
 9869TIP3   OH251021   1.169   1.952  13.855 -0.0657  0.3330 -0.3379
 9869TIP3    H151022   1.264   1.944  13.865  0.3394  2.4164 -2.0036
 9869TIP3    H251023   1.148   1.901  13.777 -0.4513 -0.5977  0.3452
 9870TIP3   OH251024   4.446   2.035   5.024 -0.0673 -0.0293  0.6067
 9870TIP3    H151025   4.442   1.940   5.015  1.5301 -0.1638  1.0332
 9870TIP3    H251026   4.439   2.050   5.118 -0.4713  0.3069  0.5288
 9871TIP3   OH251027   3.386   4.317  14.800  0.3228 -0.3379 -0.0123
 9871TIP3    H151028   3.466   4.288  14.757 -0.1244 -1.3060 -0.2110
 9871TIP3    H251029   3.382   4.411  14.782  0.6722 -0.5370 -1.2322
 9872TIP3   OH251030   6.307   0.067   0.411 -0.3268 -0.1046  0.1395
 9872TIP3    H151031   6.389   0.040   0.370 -0.9263 -1.2573 -0.3261
 9872TIP3    H251032   6.254  -0.012   0.413 -0.7113  0.1562  2.2288
 9873TIP3   OH251033   0.207   2.269  13.711  0.3132 -0.2219 -0.3450
 9873TIP3    H151034   0.163   2.185  13.695  0.0776 -0.1449 -0.0943
 9873TIP3    H251035   0.280   2.247  13.770 -0.1420 -0.1444  0.2506
 9874TIP3   OH251036   3.816   3.196   3.600 -0.0529  0.7762  0.2193
 9874TIP3    H151037   3.901   3.230   3.572  1.3331 -1.7413  1.1074
 9874TIP3    H251038   3.834   3.145   3.679 -2.4972  0.6442  0.7924
 9875TIP3   OH251039   5.309   0.610   0.816  0.2021  0.4099 -0.1326
 9875TIP3    H151040   5.310   0.628   0.722  1.0773  1.5444  0.0734
 9875TIP3    H251041   5.333   0.517   0.823 -0.4162  0.1727 -1.0462
 9876TIP3   OH251042   0.584   0.886  13.951  0.0715 -0.3671  0.6112
 9876TIP3    H151043   0.642   0.869  13.877  0.6301  2.2456  0.3587
 9876TIP3    H251044   0.552   0.800  13.977  2.3994 -1.6813 -0.5939
 9877TIP3   OH251045   2.576   0.426  13.217  0.1269  0.2466  0.6676
 9877TIP3    H151046   2.574   0.444  13.312 -0.1019  1.3479  0.4694
 9877TIP3    H251047   2.605   0.509  13.178  2.4668 -0.8323 -0.0936
 9878TIP3   OH251048   4.955   1.981   2.845  0.1429  0.4561  0.6208
 9878TIP3    H151049   4.990   2.002   2.758 -0.5254  1.0115  0.4725
 9878TIP3    H251050   4.885   1.918   2.828 -2.2863  3.0141  0.3340
 9879TIP3   OH251051   0.602   2.054   3.460 -0.1895  0.1991  0.1501
 9879TIP3    H151052   0.572   2.050   3.369 -1.2828 -0.2489  0.5055
 9879TIP3    H251053   0.680   2.109   3.458 -0.7251  0.9495 -0.9241
 9880TIP3   OH251054   4.696   5.314  13.306  0.6457 -0.3038  0.3111
 9880TIP3    H151055   4.769   5.295  13.247  0.9566 -0.3790  0.7123
 9880TIP3    H251056   4.719   5.268  13.388 -0.7690 -1.9722 -0.1603
 9881TIP3   OH251057   1.406   5.728   4.653 -0.5093  0.4810  0.3774
 9881TIP3    H151058   1.402   5.638   4.684 -1.2323  1.1064  2.2845
 9881TIP3    H251059   1.316   5.748   4.627 -0.0843  0.2519 -1.3700
 9882TIP3   OH251060   1.006   3.815   6.089 -0.4710 -0.1959 -0.2691
 9882TIP3    H151061   0.981   3.872   6.162  0.1918 -0.0241 -0.1746
 9882TIP3    H251062   0.972   3.729   6.113 -2.5008  0.3679 -0.9332
 9883TIP3   OH251063   0.064   1.304   2.382  0.0800 -0.1846 -0.2715
 9883TIP3    H151064   0.134   1.283   2.321  0.6137  2.1739 -0.5438
 9883TIP3    H251065   0.092   1.385   2.425 -2.3599  0.7261 -0.2207
 9884TIP3   OH251066   1.385   1.204  15.041  0.0105  0.7367  0.8085
 9884TIP3    H151067   1.294   1.180  15.026  0.5691 -0.2567 -1.3931
 9884TIP3    H251068   1.382   1.298  15.060 -1.2514  1.5110 -2.6033
 9885TIP3   OH251069   2.373   5.675  15.112  0.8714  0.0585  0.0263
 9885TIP3    H151070   2.458   5.645  15.145  0.3413 -2.1907 -0.4714
 9885TIP3    H251071   2.359   5.625  15.032 -1.4322 -0.5874  0.7303
 9886TIP3   OH251072   3.021   3.185   3.587 -0.0653 -0.1207  0.1716
 9886TIP3    H151073   2.973   3.207   3.507 -0.7724 -2.5042 -0.1499
 9886TIP3    H251074   2.953   3.174   3.654  0.1969 -1.2797  0.2787
 9887TIP3   OH251075   2.899   2.135   1.629 -0.1577 -0.4782 -0.2226
 9887TIP3    H151076   2.845   2.207   1.664  1.0094  0.2525  0.1228
 9887TIP3    H251077   2.859   2.056   1.665 -0.1210  0.1428  1.2720
 9888TIP3   OH251078   2.125   0.129  11.328 -0.1918 -0.7172  0.5346
 9888TIP3    H151079   2.056   0.066  11.347  1.0851 -2.5067 -0.4964
 9888TIP3    H251080   2.165   0.097  11.247  1.6239  0.4439  0.9165
 9889TIP3   OH251081   1.741   5.094  11.930 -0.0915 -0.1535 -0.3550
 9889TIP3    H151082   1.819   5.045  11.956  1.4828  2.6071  0.6155
 9889TIP3    H251083   1.774   5.164  11.874 -2.1739 -0.0339 -1.5385
 9890TIP3   OH251084   2.328   2.352   4.165  0.4333 -0.2129 -0.1320
 9890TIP3    H151085   2.382   2.369   4.242  0.5760  1.5881 -0.5645
 9890TIP3    H251086   2.257   2.416   4.170 -1.7389 -2.5068  0.3983
 9891TIP3   OH251087   2.714   2.185   4.932  0.2903  0.8830 -0.1480
 9891TIP3    H151088   2.709   2.279   4.948 -0.5562  0.8169  0.0151
 9891TIP3    H251089   2.637   2.165   4.879 -0.4411  0.0308  1.1717
 9892TIP3   OH251090   3.727   0.110  13.000 -0.3395  0.0277  0.4258
 9892TIP3    H151091   3.643   0.139  13.036  0.5927  2.7030  0.6312
 9892TIP3    H251092   3.742   0.167  12.925  0.5894 -1.4624 -0.5649
 9893TIP3   OH251093   1.019   1.982   0.095  0.3509  0.6071 -0.3487
 9893TIP3    H151094   1.098   1.971   0.149 -0.5124 -0.8366  0.6833
 9893TIP3    H251095   1.018   1.905   0.038 -1.2669 -0.4183  0.9725
 9894TIP3   OH251096   5.881   4.695  12.158  0.2033 -0.2684 -0.8925
 9894TIP3    H151097   5.801   4.691  12.210 -0.0569 -1.1193 -1.3495
 9894TIP3    H251098   5.934   4.622  12.189  0.5064 -0.1322 -1.0819
 9895TIP3   OH251099   2.709   1.521   5.459  0.5183 -0.2310 -0.4977
 9895TIP3    H151100   2.741   1.431   5.464 -3.5591 -2.1003 -2.9978
 9895TIP3    H251101   2.656   1.532   5.537 -1.9585 -1.5303 -1.8719
 9896TIP3   OH251102   3.510   1.578   3.504  0.3280  0.8176  0.3665
 9896TIP3    H151103   3.484   1.664   3.471  0.8231  0.8183 -0.0221
 9896TIP3    H251104   3.561   1.597   3.583  0.6484  0.8972  0.1437
 9897TIP3   OH251105   1.639   5.629  14.334  0.1339  0.1265 -0.0152
 9897TIP3    H151106   1.729   5.620  14.365 -0.0799 -1.0848  0.3025
 9897TIP3    H251107   1.648   5.645  14.240  0.6818 -0.1521 -0.0182
 9898TIP3   OH251108   0.527   2.406  14.890  0.1790  0.2535 -0.2533
 9898TIP3    H151109   0.501   2.366  14.973  2.9114  1.1410  1.1498
 9898TIP3    H251110   0.600   2.352  14.859  0.2806  0.9151 -1.2161
 9899TIP3   OH251111   0.655   3.854   0.493  0.3380  0.1790 -0.9557
 9899TIP3    H151112   0.573   3.903   0.497  0.9996  1.2680  0.1245
 9899TIP3    H251113   0.715   3.913   0.447  0.0605 -1.3705 -3.4509
 9900TIP3   OH251114   5.163   1.776  13.585 -0.1195  0.1526  0.2190
 9900TIP3    H151115   5.079   1.730  13.576  0.8628 -1.8011  0.5100
 9900TIP3    H251116   5.180   1.779  13.679  0.0327  0.7483  0.1769
 9901TIP3   OH251117   1.199   3.972  14.264 -0.4707  0.3522  0.2647
 9901TIP3    H151118   1.144   3.922  14.324  1.9776 -1.1616  1.4061
 9901TIP3    H251119   1.181   3.934  14.178 -0.5289 -0.7592  0.7497
 9902TIP3   OH251120   3.468   4.825  16.850  0.2604  0.1532  0.1678
 9902TIP3    H151121   3.550   4.838  16.803  0.8011 -1.2143  0.6596
 9902TIP3    H251122   3.435   4.913  16.867  1.5280  0.7192 -0.2022
 9903TIP3   OH251123   2.337   3.018  15.761 -0.0723 -0.3034  0.3899
 9903TIP3    H151124   2.243   3.017  15.781 -0.2250  0.0504 -0.2668
 9903TIP3    H251125   2.348   2.946  15.699  0.0659 -0.2606  0.3656
 9904TIP3   OH251126   6.580   3.401  13.104  0.3321 -0.0945 -0.1666
 9904TIP3    H151127   6.632   3.405  13.023  1.2660 -1.1546  0.3489
 9904TIP3    H251128   6.618   3.328  13.152  0.0668  0.7792  1.4296
 9905TIP3   OH251129   2.323   0.792   1.619 -0.1252 -0.5656  0.0279
 9905TIP3    H151130   2.417   0.795   1.602 -0.4892 -1.1574 -2.4312
 9905TIP3    H251131   2.302   0.878   1.656  0.8241  1.0680 -2.9275
 9906TIP3   OH251132   1.463   1.940   6.421 -0.2252 -0.0529  0.0619
 9906TIP3    H151133   1.378   1.977   6.397 -0.9233 -0.6603  1.4911
 9906TIP3    H251134   1.496   1.997   6.490  1.6136  1.4895 -1.9479
 9907TIP3   OH251135   0.086   6.386   0.307 -0.4460  0.5940 -0.0659
 9907TIP3    H151136   0.172   6.348   0.289 -0.0518  2.7201 -3.9071
 9907TIP3    H251137   0.104   6.466   0.356 -0.1395  1.1129 -0.9913
 9908TIP3   OH251138   2.414   0.858   4.537  0.2825  0.3416 -0.7154
 9908TIP3    H151139   2.441   0.935   4.586 -2.1044  1.2902 -0.7578
 9908TIP3    H251140   2.345   0.890   4.478  0.2296 -1.5533 -1.7745
 9909TIP3   OH251141   2.954   6.428   2.087  0.0269 -0.0957  0.3445
 9909TIP3    H151142   2.900   6.506   2.071  3.2840  1.5905 -4.6747
 9909TIP3    H251143   3.030   6.461   2.135 -0.7901 -1.4233  2.7355
 9910TIP3   OH251144   5.313   0.256   5.922  0.0653  0.2537  0.0669
 9910TIP3    H151145   5.305   0.321   5.853  2.2477  0.6303  0.0897
 9910TIP3    H251146   5.336   0.306   6.000  0.0203 -0.3948  0.5124
 9911TIP3   OH251147   5.524   4.218   4.760  0.1104 -0.3518 -0.1655
 9911TIP3    H151148   5.499   4.127   4.772  1.2394 -0.6558 -0.0130
 9911TIP3    H251149   5.574   4.240   4.839 -0.4638  0.5187 -0.0251
 9912TIP3   OH251150   2.750   6.184  14.029  0.2162  1.0632 -0.1183
 9912TIP3    H151151   2.744   6.122  14.102  1.4880  0.7943 -0.2169
 9912TIP3    H251152   2.842   6.211  14.028  0.0360  1.6806 -1.1187
 9913TIP3   OH251153   0.338   4.324   5.730 -0.2720  0.1523  0.1668
 9913TIP3    H151154   0.363   4.376   5.806  1.2297  0.1122 -0.2541
 9913TIP3    H251155   0.409   4.340   5.667 -0.4993 -1.3105 -0.4843
 9914TIP3   OH251156   1.008   2.727  16.865 -0.0062 -0.1051 -0.3182
 9914TIP3    H151157   1.103   2.736  16.863  0.0965 -1.0220  0.1693
 9914TIP3    H251158   0.984   2.745  16.955 -0.3918  0.8918 -0.6026
 9915TIP3   OH251159   2.944   0.087  12.290  0.1448  0.4440 -0.1435
 9915TIP3    H151160   2.912   0.073  12.201  1.6612 -2.7113 -0.3426
 9915TIP3    H251161   3.031   0.124  12.279  0.5588 -0.4728 -0.0233
 9916TIP3   OH251162   4.168   3.357  12.573  0.0172  0.0334 -0.5727
 9916TIP3    H151163   4.100   3.319  12.517 -0.1651 -0.5481  0.0264
 9916TIP3    H251164   4.122   3.425  12.623 -0.6322 -1.5889  1.1969
 9917TIP3   OH251165   0.717   3.169   4.701 -0.5133  0.5817 -0.3176
 9917TIP3    H151166   0.750   3.081   4.685  0.1471  0.3586  1.9741
 9917TIP3    H251167   0.776   3.226   4.652  0.2596 -0.1365 -0.2400
 9918TIP3   OH251168   2.037   2.423   4.792  0.0965  0.2643 -0.0427
 9918TIP3    H151169   1.954   2.386   4.820 -0.9560  1.5376 -1.3225
 9918TIP3    H251170   2.015   2.478   4.716  1.8520  1.8082  0.4777
 9919TIP3   OH251171   2.510   2.087   0.944  0.2743  0.6135  0.0939
 9919TIP3    H151172   2.436   2.100   0.885  0.5689  0.0584 -0.4101
 9919TIP3    H251173   2.540   2.175   0.965  1.0653  0.8425 -1.7515
 9920TIP3   OH251174   0.556   0.086   1.198 -0.4539 -0.1668  0.1405
 9920TIP3    H151175   0.529   0.081   1.106  0.9119  0.7874 -0.3493
 9920TIP3    H251176   0.536   0.176   1.223  2.6904  0.8445 -0.4683
 9921TIP3   OH251177   0.037   5.457   2.394 -0.2924  0.1325  0.0733
 9921TIP3    H151178   0.114   5.445   2.450 -0.3922 -2.2069 -0.2001
 9921TIP3    H251179  -0.031   5.405   2.437 -0.6885 -0.7530 -1.5678
 9922TIP3   OH251180   2.275   1.083  13.323  0.6760 -0.3877  0.1926
 9922TIP3    H151181   2.227   1.001  13.316  0.2501 -0.1380  0.1264
 9922TIP3    H251182   2.366   1.060  13.306  0.3291 -0.5517 -1.6896
 9923TIP3   OH251183   0.079   5.680   4.395  0.3810  0.5484  0.3524
 9923TIP3    H151184   0.013   5.741   4.427 -0.2498  0.6524 -1.0657
 9923TIP3    H251185   0.051   5.594   4.428  1.7358  1.0289  3.0810
 9924TIP3   OH251186   5.548   6.397  13.347 -0.0949  0.1993 -0.2701
 9924TIP3    H151187   5.474   6.457  13.348  0.7012  1.2513 -1.3752
 9924TIP3    H251188   5.578   6.394  13.438 -0.2961  1.3221 -0.1461
 9925TIP3   OH251189   6.188   4.101   3.209 -0.5855  0.4451  1.0750
 9925TIP3    H151190   6.122   4.088   3.141 -0.9731  0.4086  1.4567
 9925TIP3    H251191   6.256   4.036   3.188 -0.7627  0.3458  0.8012
 9926TIP3   OH251192   5.086   1.695  16.306 -0.1068 -0.5950 -0.2292
 9926TIP3    H151193   5.057   1.712  16.395  0.5104 -0.4143 -0.0614
 9926TIP3    H251194   5.135   1.773  16.281 -2.2605  0.4176 -1.5907
 9927TIP3   OH251195   5.038   6.147  17.390 -0.2524  0.0018 -0.2622
 9927TIP3    H151196   5.031   6.235  17.354 -1.2403  0.7885  1.7065
 9927TIP3    H251197   5.085   6.158  17.473 -0.6565 -1.2533  0.1660
 9928TIP3   OH251198   6.694   1.356  12.806  0.1118 -0.1397 -0.4401
 9928TIP3    H151199   6.607   1.392  12.792 -0.4758 -1.2599  0.1550
 9928TIP3    H251200   6.695   1.274  12.755  0.4134 -0.6969  0.4325
 9929TIP3   OH251201   5.913   2.201   0.014  0.3616  0.3514  0.6581
 9929TIP3    H151202   5.852   2.222  -0.057  1.0217  2.5784  0.6638
 9929TIP3    H251203   5.859   2.198   0.093  0.0603  1.0908  0.4908
 9930TIP3   OH251204   0.762   5.548   4.175 -0.2577 -0.6619  0.6518
 9930TIP3    H151205   0.731   5.569   4.263  0.1038 -0.6860  0.7877
 9930TIP3    H251206   0.699   5.484   4.141 -0.4491 -0.5810  0.8560
 9931TIP3   OH251207   5.649   4.574   4.623 -0.2807 -0.7001 -0.0736
 9931TIP3    H151208   5.680   4.501   4.568 -1.8949 -0.6612 -1.1084
 9931TIP3    H251209   5.694   4.651   4.589  2.0365 -1.2321  1.5204
 9932TIP3   OH251210   3.860   2.907  13.315 -0.0725 -0.1144  0.3560
 9932TIP3    H151211   3.792   2.912  13.383  0.0113  0.5618  0.3929
 9932TIP3    H251212   3.890   2.816  13.319  0.0021 -0.0643  1.3033
 9933TIP3   OH251213   1.567   3.072  13.559  0.3542 -0.0443 -0.2718
 9933TIP3    H151214   1.560   3.065  13.463 -1.3397  0.8367 -0.2667
 9933TIP3    H251215   1.650   3.117  13.574 -0.6399  2.3789 -1.5264
 9934TIP3   OH251216   3.899   5.576   0.216 -0.6179  0.0711  0.1783
 9934TIP3    H151217   3.846   5.525   0.277  0.0029 -0.6754  0.1158
 9934TIP3    H251218   3.892   5.666   0.248 -0.0777 -0.3370  1.5304
 9935TIP3   OH251219   6.668   4.458   3.265 -0.0515  0.2701  0.0367
 9935TIP3    H151220   6.673   4.487   3.356 -2.1896  1.9313 -0.2951
 9935TIP3    H251221   6.701   4.533   3.215  0.3980 -0.3403 -0.5993
 9936TIP3   OH251222   0.750   0.509   0.664  0.1553  0.0301  0.5423
 9936TIP3    H151223   0.752   0.587   0.609  0.6589 -0.2427  0.1659
 9936TIP3    H251224   0.752   0.543   0.754  0.1258  0.4496  0.3878
 9937TIP3   OH251225   2.452   5.777  15.735 -0.8759 -0.1288 -0.6709
 9937TIP3    H151226   2.520   5.791  15.800 -1.4272 -1.8393  0.3353
 9937TIP3    H251227   2.434   5.864  15.700 -1.3178  1.0734  2.2412
 9938TIP3   OH251228   4.763   0.370  11.026  0.3664  0.4700 -0.3301
 9938TIP3    H151229   4.804   0.330  11.102 -1.3747 -0.3511  0.2214
 9938TIP3    H251230   4.682   0.321  11.014 -0.6588  2.2698 -1.1194
 9939TIP3   OH251231   5.310   4.010   3.910 -0.2170 -0.3849 -0.1438
 9939TIP3    H151232   5.295   3.916   3.920 -1.3318 -0.0811  1.5094
 9939TIP3    H251233   5.351   4.019   3.824  0.2268 -2.4050 -0.2051
 9940TIP3   OH251234   3.761   3.850   1.601 -0.0353 -0.4249  0.0399
 9940TIP3    H151235   3.808   3.934   1.601 -2.1101  0.8139 -0.1561
 9940TIP3    H251236   3.721   3.845   1.515  0.0413 -1.6210  0.0662
 9941TIP3   OH251237   1.248   2.297   5.004 -0.1061  0.0072  0.8759
 9941TIP3    H151238   1.239   2.360   5.076  0.3902 -0.4402  1.3359
 9941TIP3    H251239   1.228   2.213   5.044 -1.0367 -0.1075  0.2020
 9942TIP3   OH251240   3.890   4.458   0.061 -0.4138  0.0435 -0.1043
 9942TIP3    H151241   3.884   4.435  -0.031  0.3431 -0.1024 -0.1241
 9942TIP3    H251242   3.817   4.412   0.103 -1.0092  0.4478 -0.6911
 9943TIP3   OH251243   0.716   5.931  16.040  0.2414  0.0500  0.0933
 9943TIP3    H151244   0.675   6.017  16.050 -1.2811 -0.4836 -1.0870
 9943TIP3    H251245   0.682   5.898  15.956  0.2500 -1.9709  0.8208
 9944TIP3   OH251246   0.559   6.047  16.409 -0.0016  0.2282  0.1542
 9944TIP3    H151247   0.529   6.108  16.342  0.8645  0.3051 -0.1700
 9944TIP3    H251248   0.642   6.083  16.440 -0.0108 -0.2170  0.7188
 9945TIP3   OH251249   3.161   2.904  16.848  0.2473 -0.1223  0.1434
 9945TIP3    H151250   3.238   2.884  16.795  2.1038  2.3984  1.6355
 9945TIP3    H251251   3.088   2.906  16.786  1.6951 -0.7121 -1.6502
 9946TIP3   OH251252   1.620   2.387  13.914 -0.2683 -0.3060 -0.0546
 9946TIP3    H151253   1.631   2.311  13.970  2.2926  0.2389  0.3158
 9946TIP3    H251254   1.687   2.449  13.944 -1.8023  1.8322 -0.7948
 9947TIP3   OH251255   1.459   5.298   2.666  0.0685  0.5864 -0.1770
 9947TIP3    H151256   1.429   5.326   2.579  0.3345  1.8645  0.1227
 9947TIP3    H251257   1.424   5.363   2.726  0.5557  0.1641  0.5794
 9948TIP3   OH251258   6.354   2.675   2.596 -0.6121 -0.4237  0.2339
 9948TIP3    H151259   6.423   2.621   2.635 -1.0600 -0.5401  0.8794
 9948TIP3    H251260   6.282   2.670   2.659 -0.9193  0.3364 -0.0536
 9949TIP3   OH251261   6.042   3.046   3.625 -0.1577 -0.0432 -0.6418
 9949TIP3    H151262   6.068   2.964   3.666 -0.9329 -0.6241 -1.2790
 9949TIP3    H251263   6.073   3.114   3.685 -0.3777 -0.8246  0.3803
 9950TIP3   OH251264   1.435   3.274   1.873  0.3261 -0.2496  0.3253
 9950TIP3    H151265   1.458   3.237   1.959 -1.2683  1.1649  1.4212
 9950TIP3    H251266   1.434   3.368   1.887 -1.1295 -0.0466 -0.9287
 9951TIP3   OH251267   5.081   0.200   5.096 -0.2543  0.2657  0.1430
 9951TIP3    H151268   5.124   0.115   5.106 -0.1817  0.4586  1.9785
 9951TIP3    H251269   5.137   0.261   5.146 -0.3032  1.4001 -1.1360
 9952TIP3   OH251270   6.516   0.723   4.483  0.0287  0.0198  0.5103
 9952TIP3    H151271   6.565   0.669   4.421  1.3867  0.9874  0.7021
 9952TIP3    H251272   6.510   0.670   4.562 -0.3695 -0.6130  0.0634
 9953TIP3   OH251273   3.061   6.642   4.130  0.6639 -0.2657  0.1650
 9953TIP3    H151274   3.082   6.706   4.198  2.9401 -0.2447 -0.4859
 9953TIP3    H251275   3.107   6.562   4.156  2.1439 -0.0603 -1.6357
 9954TIP3   OH251276   1.781   1.024  13.949 -0.4001  0.4139 -0.3886
 9954TIP3    H151277   1.834   0.952  13.983 -0.3548  0.8071  0.3857
 9954TIP3    H251278   1.716   1.040  14.017  0.5830  2.1781  0.1960
 9955TIP3   OH251279   5.598   5.077   1.994 -0.0388  1.1070  0.1389
 9955TIP3    H151280   5.662   5.117   2.053  0.7854 -0.4974  0.4077
 9955TIP3    H251281   5.553   5.013   2.048  1.5476 -1.2568 -1.1469
 9956TIP3   OH251282   4.943   2.928   5.248  0.1538 -0.5048  0.1088
 9956TIP3    H151283   4.937   2.875   5.168  0.8046 -0.7520  0.2147
 9956TIP3    H251284   5.037   2.934   5.266  0.0585  0.2333  0.4063
 9957TIP3   OH251285   4.797   1.063  13.931 -0.4869 -0.0797  0.0995
 9957TIP3    H151286   4.729   1.112  13.977  0.4956  0.9509  0.5043
 9957TIP3    H251287   4.759   1.044  13.845 -1.7449 -0.6384  0.7429
 9958TIP3   OH251288   0.371   0.062  14.580 -0.4762 -0.6364 -0.0551
 9958TIP3    H151289   0.314   0.091  14.509  0.2479 -0.8221 -0.7307
 9958TIP3    H251290   0.401  -0.025  14.553  1.4199  0.1061 -0.5396
 9959TIP3   OH251291   3.069   4.521  14.799  0.5464 -0.1867 -0.0578
 9959TIP3    H151292   3.145   4.509  14.742 -0.7162 -1.5508 -1.5381
 9959TIP3    H251293   3.017   4.442  14.788 -2.4877  1.7718 -1.3125
 9960TIP3   OH251294   3.256   1.049  11.796  0.3140  0.1036 -0.4782
 9960TIP3    H151295   3.338   1.001  11.782  0.7094  0.7625 -0.4322
 9960TIP3    H251296   3.195   1.008  11.735  0.0624 -1.8381  0.9521
 9961TIP3   OH251297   5.766   0.147  15.649  0.8948  0.2161  0.6820
 9961TIP3    H151298   5.742   0.064  15.607  3.7037 -0.5762  0.4328
 9961TIP3    H251299   5.856   0.134  15.678  0.5039  2.2587  3.1748
 9962TIP3   OH251300   5.251   3.750   0.156 -0.2345 -0.5068  0.1664
 9962TIP3    H151301   5.240   3.802   0.236 -0.1173  1.4580 -1.0078
 9962TIP3    H251302   5.326   3.791   0.112 -0.3056 -1.5361 -0.9642
 9963TIP3   OH251303   5.617   2.661   4.001  0.1128 -0.5365 -0.0760
 9963TIP3    H151304   5.565   2.741   3.991 -1.6200 -1.6149  0.0230
 9963TIP3    H251305   5.704   2.693   4.028  0.1978  1.4422 -2.3077
 9964TIP3   OH251306   2.520   5.321   0.243 -0.2033  0.1943 -0.6147
 9964TIP3    H151307   2.590   5.382   0.221 -0.1810  0.9684  1.3348
 9964TIP3    H251308   2.445   5.351   0.191  0.0199  1.4362 -0.2682
 9965TIP3   OH251309   1.855   4.920   2.711  0.1302  0.2211  0.0263
 9965TIP3    H151310   1.829   4.882   2.627  0.6678  1.3657 -0.6858
 9965TIP3    H251311   1.793   4.992   2.725 -1.1592 -1.1092  1.5716
 9966TIP3   OH251312   2.029   3.548   5.012  0.1648  0.6985  0.1513
 9966TIP3    H151313   1.984   3.464   5.016  1.1234  0.1848  0.7509
 9966TIP3    H251314   1.965   3.609   4.975 -0.9575 -0.0238  0.8426
 9967TIP3   OH251315   2.041   6.313   3.982  0.2032  0.1943 -0.7606
 9967TIP3    H151316   2.097   6.385   3.954 -0.4249  0.7442 -0.6042
 9967TIP3    H251317   2.088   6.274   4.056  0.7717  0.1397 -1.1395
 9968TIP3   OH251318   2.136   6.197  12.439 -0.3174  0.5701  0.4023
 9968TIP3    H151319   2.094   6.121  12.399 -3.6240  3.0239 -1.2107
 9968TIP3    H251320   2.198   6.227  12.373  0.5632 -0.2899  0.8033
 9969TIP3   OH251321   2.391   4.639  15.024  0.0526 -0.6368 -0.2869
 9969TIP3    H151322   2.400   4.553  14.984  0.9583  0.2480 -2.1518
 9969TIP3    H251323   2.346   4.692  14.958  1.4206  0.8518 -0.1023
 9970TIP3   OH251324   3.651   5.998  12.162 -0.0307 -0.0833 -0.4348
 9970TIP3    H151325   3.615   6.081  12.193  1.8613  1.0427 -1.1202
 9970TIP3    H251326   3.679   5.953  12.242 -0.1853  0.3438 -0.1369
 9971TIP3   OH251327   1.331   2.769  15.646 -0.0939  0.5580 -0.1329
 9971TIP3    H151328   1.301   2.859  15.655  1.4793  1.0884  0.1769
 9971TIP3    H251329   1.358   2.743  15.734  1.1301  0.4323 -0.5205
 9972TIP3   OH251330   1.713   3.237  14.124  0.2748  0.5759  0.2223
 9972TIP3    H151331   1.689   3.262  14.035  2.6367  1.7144 -0.1692
 9972TIP3    H251332   1.756   3.152  14.114 -0.0001  0.4177  0.3724
 9973TIP3   OH251333   0.961   4.765  17.436 -0.0985 -0.3397  0.4209
 9973TIP3    H151334   1.000   4.821  17.502  0.0430 -1.0614  0.9606
 9973TIP3    H251335   1.030   4.703  17.412 -0.8536 -1.5994  1.3576
 9974TIP3   OH251336   3.955   2.354   0.025  0.8470  0.3255  0.6193
 9974TIP3    H151337   3.991   2.383   0.109  1.7792 -1.6533  0.9619
 9974TIP3    H251338   3.931   2.262   0.039 -0.5546  0.4146 -0.8180
 9975TIP3   OH251339   0.831   1.474   2.644  0.0429 -0.0044 -0.4327
 9975TIP3    H151340   0.829   1.518   2.560  1.3268 -1.7508 -1.4628
 9975TIP3    H251341   0.812   1.382   2.624  1.8579 -0.7456  0.9136
 9976TIP3   OH251342   2.291   1.498   4.888  0.5012 -0.2280  0.2194
 9976TIP3    H151343   2.250   1.443   4.954  0.5689  1.2641  1.5622
 9976TIP3    H251344   2.367   1.537   4.932 -0.0320  1.5942 -0.3827
 9977TIP3   OH251345   1.557   0.780   5.486  0.1539 -0.0539 -0.3535
 9977TIP3    H151346   1.469   0.805   5.514 -0.2469 -0.7975 -0.9034
 9977TIP3    H251347   1.547   0.690   5.454  1.4703 -0.8570  1.3122
 9978TIP3   OH251348   3.845   1.752   0.299 -0.3342 -0.4262 -0.4869
 9978TIP3    H151349   3.902   1.792   0.364 -0.6856  1.0347 -1.0380
 9978TIP3    H251350   3.898   1.749   0.219 -1.0549  1.1099 -1.0508
 9979TIP3   OH251351   4.510   0.547  17.171  0.0590 -0.2144  0.3684
 9979TIP3    H151352   4.588   0.591  17.137 -0.4155  0.8768  0.6745
 9979TIP3    H251353   4.440   0.574  17.113 -0.3186 -0.2319  0.8127
 9980TIP3   OH251354   3.429   5.675   4.624 -0.3721  0.0058  0.0732
 9980TIP3    H151355   3.485   5.752   4.628 -0.4393  0.0476  0.2073
 9980TIP3    H251356   3.422   5.655   4.531  2.2441 -1.7353  0.1494
 9981TIP3   OH251357   1.888   1.565   5.891  0.4649 -0.2738 -0.1010
 9981TIP3    H151358   1.972   1.536   5.856  0.0702 -0.6732 -0.7415
 9981TIP3    H251359   1.853   1.623   5.823 -0.0712 -0.6317 -0.1319
 9982TIP3   OH251360   3.770   1.408  17.474 -0.3518 -0.3997 -0.6888
 9982TIP3    H151361   3.805   1.485  17.428  0.6206 -0.8567 -0.7463
 9982TIP3    H251362   3.774   1.339  17.408 -0.0372 -0.7920 -0.2540
 9983TIP3   OH251363   0.205   2.188   1.072  0.2569 -0.0334 -0.3653
 9983TIP3    H151364   0.173   2.242   1.144 -1.1663 -1.4560  0.1133
 9983TIP3    H251365   0.300   2.191   1.081  0.1316  0.4818  1.0554
 9984TIP3   OH251366   3.363   1.527  16.166 -0.0837 -0.5201 -0.2926
 9984TIP3    H151367   3.381   1.604  16.219 -0.1921 -1.1352  0.6675
 9984TIP3    H251368   3.274   1.540  16.134 -0.2567 -0.4431  0.2123
 9985TIP3   OH251369   6.139   2.030   4.176 -0.3950  0.1885 -0.5454
 9985TIP3    H151370   6.209   1.966   4.185 -0.0536  0.5630 -0.5232
 9985TIP3    H251371   6.128   2.066   4.264 -0.4256  0.3284 -0.6060
 9986TIP3   OH251372   5.724   3.932   6.238  1.1136 -0.2514 -0.3868
 9986TIP3    H151373   5.679   4.013   6.214  1.4079 -0.0885 -0.4014
 9986TIP3    H251374   5.655   3.867   6.248  0.8218  0.1432  0.2036
 9987TIP3   OH251375   5.534   0.881  11.132  0.1402  0.0560 -0.1981
 9987TIP3    H151376   5.508   0.921  11.049  3.0136  0.2525 -1.1013
 9987TIP3    H251377   5.552   0.955  11.190 -0.0962 -0.0534  0.0165
 9988TIP3   OH251378   2.043   4.700   3.693 -0.7084  0.1487 -0.3372
 9988TIP3    H151379   1.977   4.753   3.648 -2.7666  0.0697  2.3689
 9988TIP3    H251380   2.068   4.753   3.769  0.1266 -1.1305  0.3126
 9989TIP3   OH251381   1.363   4.555  14.386 -0.2516 -0.3515  0.2272
 9989TIP3    H151382   1.411   4.528  14.465  1.8467  1.3225 -0.3833
 9989TIP3    H251383   1.330   4.473  14.350  1.2897 -1.5117  1.2823
 9990TIP3   OH251384   4.963   5.624  17.020 -0.6251 -0.3208 -0.0618
 9990TIP3    H151385   4.909   5.647  16.945  0.1200 -0.5847 -0.6953
 9990TIP3    H251386   5.052   5.643  16.992 -0.2963 -0.8442  0.5978
 9991TIP3   OH251387   6.068   2.784   2.537  0.2888 -0.0307  0.3384
 9991TIP3    H151388   6.105   2.827   2.459  1.2632  1.6809  1.6786
 9991TIP3    H251389   6.058   2.854   2.601 -1.7010 -1.1754  1.3743
 9992TIP3   OH251390   2.375   5.889  11.232 -0.1946  0.0384 -0.3490
 9992TIP3    H151391   2.294   5.939  11.246 -0.7057 -0.4074 -1.6299
 9992TIP3    H251392   2.431   5.948  11.182 -0.0991 -0.0052 -0.2917
 9993TIP3   OH251393   6.095   2.746   5.634 -0.2335 -0.3019 -0.3422
 9993TIP3    H151394   6.042   2.822   5.657  3.2842  2.1352  0.4810
 9993TIP3    H251395   6.127   2.764   5.546 -0.8409 -1.8467 -0.9213
 9994TIP3   OH251396   3.176   1.279   4.986  0.0806  0.3304  0.2333
 9994TIP3    H151397   3.138   1.342   5.048 -0.6857  1.6285 -1.4786
 9994TIP3    H251398   3.102   1.229   4.953  0.2912  0.5787 -0.6354
 9995TIP3   OH251399   1.284   2.360   2.758 -0.1526 -0.3725 -0.6485
 9995TIP3    H151400   1.339   2.295   2.713  0.9070  1.2727 -1.8165
 9995TIP3    H251401   1.297   2.341   2.851  1.3080 -0.9302 -0.9276
 9996TIP3   OH251402   5.806   0.053  13.622  0.2750  0.0379  0.7913
 9996TIP3    H151403   5.878   0.095  13.575  1.5866 -1.5528  1.2543
 9996TIP3    H251404   5.798   0.104  13.703  2.8128 -1.2765  2.0196
 9997TIP3   OH251405   0.653   2.633  13.375  0.0924 -0.2685  0.2253
 9997TIP3    H151406   0.646   2.559  13.315 -0.7043  0.4853 -0.6449
 9997TIP3    H251407   0.737   2.674  13.354 -0.7370  0.7468 -1.3226
 9998TIP3   OH251408   4.202   5.769   3.758 -0.0749 -0.3841  0.1870
 9998TIP3    H151409   4.269   5.771   3.690 -0.7939  0.7934 -0.5230
 9998TIP3    H251410   4.149   5.847   3.742 -0.4216 -0.2101  1.9505
 9999TIP3   OH251411   5.097   0.294  12.569  0.4448 -0.2941  0.7606
 9999TIP3    H151412   5.049   0.356  12.513  0.4712  0.8526  1.9591
 9999TIP3    H251413   5.164   0.257  12.511 -0.5662 -0.3873 -0.3910
10000TIP3   OH251414   0.512   1.169   0.067 -0.0371 -0.3531  0.4375
10000TIP3    H151415   0.512   1.112  -0.011 -0.8542  0.7235 -0.3779
10000TIP3    H251416   0.562   1.246   0.040 -1.3111  0.5517  0.5476
10001TIP3   OH251417   1.874   1.852  11.049 -0.4257  0.1504  0.4910
10001TIP3    H151418   1.959   1.874  11.011  0.0674  1.3720  2.1416
10001TIP3    H251419   1.813   1.853  10.975  0.0405  4.6938 -0.1330
10002TIP3   OH251420   2.361   2.552   3.330  0.8075 -0.1086 -0.2232
10002TIP3    H151421   2.385   2.636   3.290  2.5035  0.0924  1.1087
10002TIP3    H251422   2.332   2.575   3.419  0.7527 -0.8672 -0.0343
10003TIP3   OH251423   2.541   1.223  13.158 -0.0077 -0.4940 -0.3771
10003TIP3    H151424   2.522   1.189  13.246  0.7514 -0.1023 -0.0490
10003TIP3    H251425   2.606   1.292  13.173  0.9368 -1.1443 -1.3531
10004TIP3   OH251426   2.304   1.367  16.772  0.0948 -0.0549  0.7565
10004TIP3    H151427   2.323   1.453  16.734  0.4573  0.8308  2.8298
10004TIP3    H251428   2.309   1.381  16.866 -4.4173 -1.2288  1.4107
10005TIP3   OH251429   1.224   3.484  13.759  0.0384  0.2818 -0.4579
10005TIP3    H151430   1.303   3.538  13.758  0.9188 -0.9693 -0.8748
10005TIP3    H251431   1.256   3.394  13.746 -1.2851 -0.4903  1.2499
10006TIP3   OH251432   3.090   5.112   3.850  0.1921  0.0723  0.0082
10006TIP3    H151433   3.001   5.076   3.850 -0.3341  1.2556  1.2519
10006TIP3    H251434   3.115   5.113   3.943  1.8420 -0.9856 -0.3822
10007TIP3   OH251435   2.528   5.501  14.586  0.2471  0.1440 -0.0075
10007TIP3    H151436   2.614   5.520  14.547 -0.3466  2.3085 -0.3794
10007TIP3    H251437   2.466   5.507  14.514 -0.2317 -1.8917  0.1613
10008TIP3   OH251438   0.031   6.249  11.036 -0.0747  0.2905 -0.3048
10008TIP3    H151439   0.057   6.330  10.991  0.8428  0.0224 -0.2657
10008TIP3    H251440   0.022   6.185  10.965  0.3951  0.1206 -0.2121
10009TIP3   OH251441   3.125   5.900  12.490 -0.2788  0.1757 -0.0110
10009TIP3    H151442   3.157   5.862  12.572  1.1809  0.1491 -0.5659
10009TIP3    H251443   3.093   5.987  12.514  1.9146  0.9396  0.3055
10010TIP3   OH251444   3.339   1.759   3.865 -0.2295  0.0398  0.3383
10010TIP3    H151445   3.255   1.775   3.908 -0.4339 -1.0950  0.4012
10010TIP3    H251446   3.386   1.703   3.926  0.3621  0.2290  0.0580
10011TIP3   OH251447   5.110   5.750  16.181 -0.6405  0.4012 -0.6284
10011TIP3    H151448   5.131   5.715  16.094 -0.0074  1.3032 -0.8536
10011TIP3    H251449   5.052   5.684  16.220  1.5257 -1.5538 -0.5156
10012TIP3   OH251450   4.326   1.649   6.548 -0.0706  0.6714 -0.2334
10012TIP3    H151451   4.365   1.729   6.584  1.9133 -0.1478 -0.4129
10012TIP3    H251452   4.240   1.643   6.590  0.3852  2.0422  0.9997
10013TIP3   OH251453   6.444   6.217   5.588 -0.5001  0.3065 -0.2217
10013TIP3    H151454   6.404   6.248   5.507 -1.2836  1.0501  0.4198
10013TIP3    H251455   6.429   6.123   5.589 -1.4242  0.4419 -0.4511
10014TIP3   OH251456   2.854   4.362   4.156 -0.4095  0.0010 -0.3476
10014TIP3    H151457   2.878   4.328   4.069 -0.5154  0.2838 -0.4896
10014TIP3    H251458   2.896   4.303   4.217 -1.0121 -0.6966 -0.5882
10015TIP3   OH251459   6.410   0.667   0.947 -0.0688  0.3016  0.1451
10015TIP3    H151460   6.385   0.585   0.904 -0.3974  0.5760 -0.1925
10015TIP3    H251461   6.327   0.704   0.976 -0.1004  1.3266 -1.1620
10016TIP3   OH251462   4.467   1.609  15.613 -0.3114 -0.1712 -0.6282
10016TIP3    H151463   4.533   1.577  15.552  2.0896 -0.8725  2.1376
10016TIP3    H251464   4.419   1.530  15.640 -0.4928 -0.0542 -0.6026
10017TIP3   OH251465   4.539   4.278   3.577 -0.0887  0.8110 -0.7844
10017TIP3    H151466   4.535   4.285   3.481 -0.6649  0.6037 -0.7792
10017TIP3    H251467   4.496   4.195   3.597  0.1090  0.8099 -0.3473
10018TIP3   OH251468   5.786   5.316  17.112 -0.1406  0.1628 -0.3042
10018TIP3    H151469   5.854   5.248  17.114 -1.2884 -1.0554 -0.9165
10018TIP3    H251470   5.753   5.320  17.202  1.4835  1.5968  0.2803
10019TIP3   OH251471   0.206   0.411   3.799 -0.6058 -0.1224 -0.3835
10019TIP3    H151472   0.289   0.366   3.812 -1.0368 -0.5133  1.1364
10019TIP3    H251473   0.164   0.411   3.885 -1.8768  0.6814 -0.9688
10020TIP3   OH251474   3.195   0.689  11.747 -0.0212  0.5240  0.2482
10020TIP3    H151475   3.233   0.737  11.673 -1.0920  1.3625  0.2197
10020TIP3    H251476   3.166   0.606  11.709 -0.1465  0.7575 -0.1729
10021TIP3   OH251477   5.657   0.350   2.939 -0.1741  0.3291  0.1555
10021TIP3    H151478   5.716   0.426   2.937  3.0114 -1.9381 -0.2308
10021TIP3    H251479   5.628   0.340   2.848  1.8473 -0.5469 -0.4595
10022TIP3   OH251480   3.735   2.467  13.929 -0.1747 -0.2566 -0.3350
10022TIP3    H151481   3.820   2.446  13.968 -0.1437  0.0785 -0.2137
10022TIP3    H251482   3.701   2.383  13.898 -0.3987 -0.6053  0.8021
10023TIP3   OH251483   2.573   0.354   4.230 -0.5601 -0.3441  0.4148
10023TIP3    H151484   2.498   0.379   4.176  0.2661  2.6642  0.4753
10023TIP3    H251485   2.649   0.373   4.177  0.2347  1.2523  2.0128
10024TIP3   OH251486   4.098   2.275  14.997 -0.1021 -0.2033  0.4275
10024TIP3    H151487   4.071   2.201  14.943 -0.3624  1.0682 -1.3049
10024TIP3    H251488   4.040   2.346  14.970  0.9911  0.9666  1.0495
10025TIP3   OH251489   0.503   0.002   2.817 -0.2127 -0.2542 -0.4761
10025TIP3    H151490   0.514  -0.093   2.822 -1.1684 -0.3289  3.2767
10025TIP3    H251491   0.587   0.037   2.847 -1.0923 -0.1048  1.9918
10026TIP3   OH251492   0.388   2.478   0.569  0.5922 -1.0031 -0.3397
10026TIP3    H151493   0.356   2.568   0.566 -0.3216 -1.2510  1.1695
10026TIP3    H251494   0.468   2.483   0.621  2.0443 -0.7044 -2.4447
10027TIP3   OH251495   5.716   4.296  13.049 -0.0873  0.1751  0.3870
10027TIP3    H151496   5.645   4.351  13.016 -0.8827 -1.4579 -0.7550
10027TIP3    H251497   5.698   4.288  13.143 -0.5550  0.9607  0.3782
10028TIP3   OH251498   6.499   0.159  12.289  0.0779 -0.3135 -0.1076
10028TIP3    H151499   6.407   0.182  12.300  0.2290  0.7484 -0.9582
10028TIP3    H251500   6.539   0.236  12.248  1.1882 -1.0378 -0.4371
10029TIP3   OH251501   2.738   1.865  16.968  0.0234  0.1781  0.0251
10029TIP3    H151502   2.811   1.890  16.912 -0.1493 -1.1505 -0.8446
10029TIP3    H251503   2.776   1.803  17.030 -0.0500  0.6643  0.5559
10030TIP3   OH251504   6.199   0.045   3.603  0.2964  0.0709  0.1619
10030TIP3    H151505   6.250   0.032   3.684  2.3156  1.4617 -0.7775
10030TIP3    H251506   6.150   0.126   3.619  0.9349  0.5160 -0.0877
10031TIP3   OH251507   4.925   6.463  15.500 -0.1445  0.5222  0.5954
10031TIP3    H151508   4.998   6.434  15.447  0.0751  1.8562  0.1253
10031TIP3    H251509   4.851   6.468  15.439  0.3069  2.8814  0.1444
10032TIP3   OH251510   1.815   5.744  13.427 -0.5281  0.2700  0.0747
10032TIP3    H151511   1.903   5.707  13.431 -0.8217 -0.5298 -0.6141
10032TIP3    H251512   1.811   5.805  13.501  0.6461  0.4241  0.0279
10033TIP3   OH251513   6.503   3.798  12.473 -0.0839  0.0219  0.7338
10033TIP3    H151514   6.540   3.856  12.540  0.4885  0.6786 -0.1197
10033TIP3    H251515   6.506   3.850  12.393  1.3352 -1.5020 -0.2765
10034TIP3   OH251516   3.843   3.674   6.388  0.2627  0.5389  0.0020
10034TIP3    H151517   3.923   3.637   6.350 -0.5149 -0.4278 -0.7644
10034TIP3    H251518   3.851   3.768   6.375  1.2350  0.4418 -0.1496
10035TIP3   OH251519   6.188   4.472  17.155 -0.1551  0.4350 -0.1601
10035TIP3    H151520   6.134   4.480  17.076 -1.0469  0.3870  0.4257
10035TIP3    H251521   6.183   4.380  17.179  2.7342 -0.2668 -1.8077
10036TIP3   OH251522   4.984   4.169   4.139  0.0055 -0.1597  0.5283
10036TIP3    H151523   4.905   4.132   4.099 -0.5758 -0.3173  1.7886
10036TIP3    H251524   5.004   4.247   4.086 -1.9119  0.7788  1.1078
10037TIP3   OH251525   4.085   4.613  14.758 -0.1771  0.1173  0.2433
10037TIP3    H151526   4.064   4.522  14.739 -0.9415  0.5022 -0.8996
10037TIP3    H251527   4.132   4.611  14.841 -1.3787 -1.1925  0.9343
10038TIP3   OH251528   2.824   3.922   4.891 -0.2633 -0.5226  0.4491
10038TIP3    H151529   2.918   3.909   4.889 -0.3185 -0.8962  0.2759
10038TIP3    H251530   2.803   3.935   4.984  0.0496  0.2665  0.4199
10039TIP3   OH251531   2.640   2.837  16.022 -0.5635  0.3659  0.2463
10039TIP3    H151532   2.641   2.770  16.090  1.5787  0.9256  0.8717
10039TIP3    H251533   2.733   2.852  16.003 -1.0653  1.4791 -1.5681
10040TIP3   OH251534   4.905   4.290  16.166  0.1045 -0.1105  0.1162
10040TIP3    H151535   4.921   4.287  16.071 -1.3961  0.2456 -0.1793
10040TIP3    H251536   4.810   4.306  16.173 -0.1166 -1.9019  1.6911
10041TIP3   OH251537   4.652   6.108   4.976 -0.1255  0.0653  0.3302
10041TIP3    H151538   4.604   6.028   4.957 -0.6920 -0.1099  2.3691
10041TIP3    H251539   4.681   6.099   5.066  1.9332  1.1110 -0.1539
10042TIP3   OH251540   4.871   5.156   3.759  0.2703  0.5964  0.1092
10042TIP3    H151541   4.798   5.099   3.784  0.7215 -0.8171 -1.5603
10042TIP3    H251542   4.937   5.140   3.826  0.3372 -0.7925 -0.2589
10043TIP3   OH251543   0.178   2.502  15.753  0.1423  0.5874 -0.2132
10043TIP3    H151544   0.206   2.559  15.824 -0.1775  0.3426  0.1113
10043TIP3    H251545   0.213   2.543  15.674  0.6075  0.7927  0.0958
10044TIP3   OH251546   2.347   0.280   1.384 -0.2148  0.0800 -0.6412
10044TIP3    H151547   2.346   0.224   1.306  1.2418 -0.8782 -0.0102
10044TIP3    H251548   2.265   0.261   1.429 -0.9377  0.4293 -1.7655
10045TIP3   OH251549   4.605   5.319   4.252 -0.4238 -0.1154  0.0384
10045TIP3    H151550   4.682   5.306   4.196  0.3707 -0.3783  1.1526
10045TIP3    H251551   4.560   5.395   4.215  0.4648  0.1446 -0.5313
10046TIP3   OH251552   5.942   6.515   0.805  0.0529  0.2046 -0.0082
10046TIP3    H151553   5.885   6.587   0.778  1.8226  1.9715  0.7213
10046TIP3    H251554   5.884   6.439   0.813 -1.8679  1.5300 -0.8268
10047TIP3   OH251555   4.334   4.538  16.014  0.5117 -0.3119  0.1260
10047TIP3    H151556   4.315   4.627  16.043 -1.2149 -0.7600  0.4613
10047TIP3    H251557   4.393   4.550  15.939  0.3729  1.0982  0.2159
10048TIP3   OH251558   1.492   5.933   5.068  0.4619 -0.1628  0.1103
10048TIP3    H151559   1.494   6.023   5.100 -0.2822 -0.1211  0.0604
10048TIP3    H251560   1.465   5.940   4.976  0.9737 -0.3946 -0.0600
10049TIP3   OH251561   4.090   0.363  13.116 -0.5731 -0.0916  0.2818
10049TIP3    H151562   4.167   0.347  13.062 -0.0842  2.0309  0.2753
10049TIP3    H251563   4.125   0.383  13.203 -1.2883 -1.9743  1.0592
10050TIP3   OH251564   2.104   1.842   3.627  0.0818 -0.2344 -0.2645
10050TIP3    H151565   2.016   1.804   3.614 -1.3668  2.4519  0.8493
10050TIP3    H251566   2.147   1.782   3.687 -0.6551 -2.0411 -1.4339
10051TIP3   OH251567   5.561   6.225   1.015 -0.4859 -0.0430 -0.4668
10051TIP3    H151568   5.623   6.276   1.066  2.4057 -3.3065 -0.3364
10051TIP3    H251569   5.511   6.176   1.081 -1.1372  0.3748 -0.6461
10052TIP3   OH251570   6.483   0.634   2.858  0.2717 -0.4936  0.5658
10052TIP3    H151571   6.517   0.679   2.781 -1.1806 -0.6620 -0.2109
10052TIP3    H251572   6.517   0.685   2.932  0.8227  0.3013 -0.2105
10053TIP3   OH251573   3.310   1.018  12.680 -0.2156 -0.5639 -0.1575
10053TIP3    H151574   3.275   1.019  12.769 -0.8000 -0.7000 -0.3812
10053TIP3    H251575   3.234   1.036  12.625 -0.0910 -1.6677 -0.7131
10054TIP3   OH251576   0.427   2.940   4.009 -0.3041  0.3088 -0.3693
10054TIP3    H151577   0.479   2.864   4.034  1.7505  2.0419  1.0605
10054TIP3    H251578   0.472   2.975   3.932 -1.2463  0.1032 -1.0335
10055TIP3   OH251579   5.063   0.204  13.581 -0.1556  0.5450 -0.1849
10055TIP3    H151580   4.996   0.268  13.560  0.0628  0.2302 -2.0286
10055TIP3    H251581   5.121   0.248  13.644 -0.0026  2.1674 -1.4042
10056TIP3   OH251582   6.236   3.883   3.824  0.8514  0.2244 -0.1380
10056TIP3    H151583   6.310   3.860   3.879 -0.2739 -1.6676  0.7119
10056TIP3    H251584   6.218   3.974   3.844  1.2366 -0.0787  1.7544
10057TIP3   OH251585   6.480   2.155   0.345  0.2500  0.6670 -0.2027
10057TIP3    H151586   6.473   2.166   0.440  2.7856 -0.3117  0.1801
10057TIP3    H251587   6.400   2.109   0.320 -0.6698  1.3460  1.3676
10058TIP3   OH251588   4.373   6.053   3.412  0.3586 -0.6724  0.3755
10058TIP3    H151589   4.396   6.020   3.499 -1.2229 -0.2432  0.9869
10058TIP3    H251590   4.350   6.145   3.427  0.2223 -0.5557 -0.5282
10059TIP3   OH251591   6.025   4.262   1.765 -0.0179  0.1653 -0.0483
10059TIP3    H151592   6.030   4.355   1.788  2.9813 -0.1257  0.8357
10059TIP3    H251593   5.999   4.261   1.673  0.3251  1.8854 -0.1916
10060TIP3   OH251594   5.475   3.772  11.923  0.4962  0.0783  0.5769
10060TIP3    H151595   5.522   3.692  11.943 -0.0949 -0.3951  0.1043
10060TIP3    H251596   5.386   3.744  11.904  0.3852  0.7904 -0.0197
10061TIP3   OH251597   4.492   6.667  13.619 -0.0670  0.3068  0.5369
10061TIP3    H151598   4.451   6.593  13.575 -0.1267  0.4595  0.3329
10061TIP3    H251599   4.551   6.704  13.553 -0.0090  0.4179  0.6510
10062TIP3   OH251600   3.098   3.193  15.647 -0.2778 -0.3972 -1.1529
10062TIP3    H151601   3.175   3.226  15.601  0.0291 -0.3625 -0.6265
10062TIP3    H251602   3.122   3.196  15.740 -1.2060  0.4181 -0.9077
10063TIP3   OH251603   1.134   2.755  14.194  0.4292  0.7210  0.5694
10063TIP3    H151604   1.176   2.806  14.125  1.1184 -0.7286 -0.1239
10063TIP3    H251605   1.052   2.801  14.212  0.7041  1.6684 -0.5171
10064TIP3   OH251606   3.476   2.242   1.134  0.4985 -1.0382  0.4234
10064TIP3    H151607   3.552   2.301   1.133  1.6166 -2.4153 -0.3536
10064TIP3    H251608   3.515   2.155   1.138 -1.0755 -1.7772  0.1300
10065TIP3   OH251609   1.943   2.942   1.261 -0.2754  0.0867 -0.1204
10065TIP3    H151610   2.013   2.997   1.226  0.3447 -0.7586 -0.2431
10065TIP3    H251611   1.986   2.860   1.285 -1.3390 -0.7193 -0.8621
10066TIP3   OH251612   4.678   4.742   0.323 -0.3534 -0.0605 -0.0099
10066TIP3    H151613   4.610   4.806   0.345  0.4782  0.3960  1.3424
10066TIP3    H251614   4.662   4.721   0.231 -1.0223  1.6238 -0.3120
10067TIP3   OH251615   5.493   5.158  11.268  0.4459  0.1069 -0.1149
10067TIP3    H151616   5.413   5.202  11.239 -0.2361 -1.7270 -1.2080
10067TIP3    H251617   5.471   5.122  11.354 -0.2244 -1.0397 -0.7328
10068TIP3   OH251618   5.801   1.135   4.738  0.2732  0.0727 -0.2918
10068TIP3    H151619   5.861   1.068   4.772  1.4547  1.5179  0.6218
10068TIP3    H251620   5.857   1.213   4.726 -1.0254  0.8686 -1.4162
10069TIP3   OH251621   6.554   1.704   3.778  0.1470  1.0255  0.1626
10069TIP3    H151622   6.543   1.610   3.768 -2.6433  1.2080  0.6722
10069TIP3    H251623   6.594   1.714   3.865 -0.0852  0.3318  0.3562
10070TIP3   OH251624   0.448   2.830  16.667  0.1404 -0.3700  0.0388
10070TIP3    H151625   0.359   2.849  16.638 -0.0202 -1.1608  0.0010
10070TIP3    H251626   0.467   2.898  16.732  0.3908  1.2567 -1.6446
10071TIP3   OH251627   4.874   0.005  17.160  0.0384  0.9766  0.0580
10071TIP3    H151628   4.859   0.099  17.150  0.9215  1.0019 -1.4156
10071TIP3    H251629   4.884  -0.027  17.070 -3.7745 -1.1845  0.1677
10072TIP3   OH251630   5.357   0.099   5.512  0.0576  0.3642  0.3732
10072TIP3    H151631   5.369   0.193   5.496  1.0469  0.6000  2.1862
10072TIP3    H251632   5.433   0.058   5.471 -0.9100  0.2204 -1.3249
10073TIP3   OH251633   1.066   5.661   2.242  0.6832  0.0701  0.2309
10073TIP3    H151634   1.054   5.754   2.224  1.1100  0.0060 -0.4087
10073TIP3    H251635   0.977   5.627   2.252  0.5388  0.6364  1.0002
10074TIP3   OH251636   4.176   3.565   0.628  0.1307  0.0663  0.3774
10074TIP3    H151637   4.249   3.605   0.675 -0.4110  0.1026  1.1971
10074TIP3    H251638   4.193   3.587   0.536  2.7707 -2.4189  0.0947
10075TIP3   OH251639   1.921   3.763   5.220 -0.1750  0.5361 -0.6557
10075TIP3    H151640   1.848   3.800   5.269 -0.5553 -0.9221 -0.0562
10075TIP3    H251641   1.883   3.740   5.135  0.1426  1.7830 -1.1506
10076TIP3   OH251642   2.862   1.175  11.879 -0.2027  0.3083  0.1735
10076TIP3    H151643   2.835   1.261  11.849  3.3677  1.3417 -0.5876
10076TIP3    H251644   2.885   1.128  11.799 -1.2414 -1.0728  0.6446
10077TIP3   OH251645   2.433   2.460  14.620 -0.5011  0.6766  0.4689
10077TIP3    H151646   2.503   2.470  14.556 -0.1712 -0.1168  0.6954
10077TIP3    H251647   2.383   2.384  14.590 -0.9598  0.9193  0.5981
10078TIP3   OH251648   6.094   4.497   5.872  0.7398 -0.0235  0.3158
10078TIP3    H151649   6.168   4.530   5.923  0.9957 -1.3670  0.8642
10078TIP3    H251650   6.027   4.566   5.878  2.2644  1.6933 -1.0470
10079TIP3   OH251651   1.948   2.277  13.201 -0.0185 -0.7553  0.1127
10079TIP3    H151652   2.000   2.208  13.161  1.9549  1.3359 -1.1969
10079TIP3    H251653   2.009   2.351  13.207 -2.1766  1.0448  0.9099
10080TIP3   OH251654   4.927   3.713   4.332 -0.0113 -0.0859 -0.1421
10080TIP3    H151655   4.888   3.642   4.282  0.3024  1.0813 -2.1563
10080TIP3    H251656   4.934   3.786   4.270 -2.8301  2.7222  2.4080
10081TIP3   OH251657   6.122   2.876  16.783 -0.3358 -0.0925  0.0662
10081TIP3    H151658   6.155   2.958  16.820 -0.5394  0.0521 -0.0673
10081TIP3    H251659   6.032   2.896  16.757  0.1747  0.1404 -1.5830
10082TIP3   OH251660   6.065   0.441   5.605  0.1710  0.3917 -0.0576
10082TIP3    H151661   5.985   0.391   5.588 -0.3311  1.3162 -0.4712
10082TIP3    H251662   6.055   0.521   5.553  1.2067  0.6794  0.1627
10083TIP3   OH251663   0.268   5.416   3.254  0.3836  0.7938 -0.4071
10083TIP3    H151664   0.357   5.389   3.278  0.3889 -0.4975 -1.6956
10083TIP3    H251665   0.221   5.416   3.337  1.2655  0.1337  0.1256
10084TIP3   OH251666   2.627   3.787  15.286 -0.1150 -0.3854  0.5171
10084TIP3    H151667   2.548   3.786  15.233  0.5948 -0.0220 -0.5852
10084TIP3    H251668   2.600   3.753  15.371 -0.8615 -2.9558 -0.6630
10085TIP3   OH251669   4.987   5.699   1.381  0.1054 -0.3552 -0.1068
10085TIP3    H151670   4.910   5.754   1.369  1.0480  0.8212 -1.1235
10085TIP3    H251671   4.953   5.615   1.411 -1.5244  0.2565 -0.1659
10086TIP3   OH251672   2.609   3.677  13.833  0.2930 -0.3586  0.1613
10086TIP3    H151673   2.612   3.583  13.846 -1.1426 -0.6044 -1.0836
10086TIP3    H251674   2.539   3.691  13.769  0.9958  1.4890 -0.2693
10087TIP3   OH251675   2.127   0.765  16.765 -0.0320  0.6810  0.2748
10087TIP3    H151676   2.113   0.680  16.807 -0.0218 -0.1341 -1.2690
10087TIP3    H251677   2.117   0.829  16.835 -0.7739 -0.5506  1.3392
10088TIP3   OH251678   2.024   2.095   2.180 -0.1820  0.4698 -0.4965
10088TIP3    H151679   1.995   2.186   2.174 -1.1799  0.3123  1.2384
10088TIP3    H251680   2.114   2.101   2.211  0.3759  0.8827 -2.1190
10089TIP3   OH251681   3.970   4.409   6.192  0.7345 -0.6120  0.8852
10089TIP3    H151682   3.948   4.405   6.099  0.5123 -0.5530  0.9356
10089TIP3    H251683   3.943   4.324   6.227  2.3301 -1.2921  0.5713
10090TIP3   OH251684   0.852   1.618  10.520 -0.3006 -0.0525  0.3323
10090TIP3    H151685   0.818   1.705  10.538  0.2519  0.1743  0.2770
10090TIP3    H251686   0.947   1.628  10.519 -0.2521 -0.4562 -0.6394
10091TIP3   OH251687   6.293   4.148  16.265 -0.4132  0.0551 -0.1766
10091TIP3    H151688   6.338   4.087  16.324  0.6822 -1.6888 -2.6356
10091TIP3    H251689   6.221   4.184  16.317  1.7914  0.3868  2.8816
10092TIP3   OH251690   2.783   2.929  14.796 -0.3963  0.2148 -0.5849
10092TIP3    H151691   2.704   2.934  14.849  0.2756  1.4153  0.3599
10092TIP3    H251692   2.751   2.930  14.706 -1.4402  1.6316 -0.2354
10093TIP3   OH251693   3.613   3.284   0.499  0.4121  0.5208 -0.1220
10093TIP3    H151694   3.676   3.315   0.564  0.6125  1.2637 -0.6482
10093TIP3    H251695   3.552   3.357   0.488 -0.0861  0.1006 -0.1894
10094TIP3   OH251696   3.118   4.571   0.553 -0.0613 -0.3723 -0.0464
10094TIP3    H151697   3.123   4.667   0.560 -0.4784 -0.3010 -0.6244
10094TIP3    H251698   3.162   4.551   0.470 -0.9012 -0.5769 -0.4570
10095TIP3   OH251699   4.832   6.340  13.705  0.8278  0.1142 -0.2405
10095TIP3    H151700   4.899   6.299  13.650  0.6941  2.6761 -2.5933
10095TIP3    H251701   4.870   6.424  13.731 -0.4879  0.4879  0.6080
10096TIP3   OH251702   5.954   2.380   2.351  0.2918 -0.2137 -0.3362
10096TIP3    H151703   5.957   2.438   2.275  0.8719  0.1064 -0.0711
10096TIP3    H251704   5.950   2.292   2.313 -1.2440  0.0001 -0.7442
10097TIP3   OH251705   5.822   3.542   1.799 -0.1006 -0.7552  0.2497
10097TIP3    H151706   5.783   3.586   1.723 -0.2212 -0.8757  0.2432
10097TIP3    H251707   5.860   3.614   1.851 -0.3370 -0.6390  0.2612
10098TIP3   OH251708   6.012   0.226  13.832  0.2286 -0.3389  0.5001
10098TIP3    H151709   6.056   0.143  13.811  1.3632  0.4128 -0.2432
10098TIP3    H251710   5.994   0.221  13.926  2.0476 -0.6331  0.8645
10099TIP3   OH251711   6.602   0.475   6.003 -0.4844  0.6026 -0.2427
10099TIP3    H151712   6.508   0.461   5.988 -0.6443  0.6067  0.6763
10099TIP3    H251713   6.611   0.472   6.098  0.3120  1.5359 -0.2797
10100TIP3   OH251714   1.286   1.482   1.962  0.6063 -0.3609  0.2345
10100TIP3    H151715   1.269   1.394   1.929  0.4680 -0.2032 -0.1257
10100TIP3    H251716   1.373   1.477   2.002  0.0357 -1.0003  1.4488
10101TIP3   OH251717   6.719   4.417   6.217 -0.2990  0.0777  0.0054
10101TIP3    H151718   6.629   4.439   6.194 -0.6298 -3.3671 -2.7823
10101TIP3    H251719   6.770   4.446   6.141  0.8493  0.9313  1.0579
10102TIP3   OH251720   5.949   5.358  16.818 -0.0341 -0.0327 -0.0597
10102TIP3    H151721   5.925   5.271  16.786 -0.1225 -0.3354  0.8146
10102TIP3    H251722   5.884   5.377  16.885  0.6552  0.2302  0.5437
10103TIP3   OH251723   4.676   5.704  17.126 -0.6617 -0.5008 -0.2854
10103TIP3    H151724   4.768   5.700  17.100 -0.7864 -0.2639 -0.7648
10103TIP3    H251725   4.679   5.705  17.222 -0.1340  0.3926 -0.3041
10104TIP3   OH251726   4.130   0.427  16.534  0.3559  0.0156  0.2707
10104TIP3    H151727   4.035   0.425  16.547  0.4519  1.3711  1.3978
10104TIP3    H251728   4.148   0.352  16.477 -1.3109 -0.6054  0.5061
10105TIP3   OH251729   2.481   0.318  16.299 -0.3216 -0.6710  0.0717
10105TIP3    H151730   2.540   0.388  16.327 -0.9794 -0.0827  0.0152
10105TIP3    H251731   2.397   0.362  16.284 -0.2522 -1.1443 -1.8656
10106TIP3   OH251732   6.266   6.242   4.957 -0.0670  0.4135  0.3785
10106TIP3    H151733   6.187   6.191   4.971 -0.1213  0.5801  0.6935
10106TIP3    H251734   6.274   6.249   4.862  0.4782 -1.0089  0.3059
10107TIP3   OH251735   2.276   5.533   0.076 -0.1041  0.1252 -0.4728
10107TIP3    H151736   2.339   5.601   0.102 -0.1623  0.3943 -1.0196
10107TIP3    H251737   2.258   5.551  -0.016 -0.5969 -0.2597 -0.4562
10108TIP3   OH251738   0.504   2.392  11.447 -0.7464  0.5579  0.0589
10108TIP3    H151739   0.535   2.309  11.412  0.3973  0.6785  0.7129
10108TIP3    H251740   0.425   2.412  11.397 -2.0494 -1.7571  1.0473
10109TIP3   OH251741   2.337   0.339  11.232 -0.2356 -0.2204  0.3150
10109TIP3    H151742   2.358   0.323  11.140 -0.9885 -4.3425  0.6478
10109TIP3    H251743   2.242   0.345  11.235 -0.1844  0.5568  0.7882
10110TIP3   OH251744   2.340   2.372  12.262  0.3945  0.0296 -0.1632
10110TIP3    H151745   2.380   2.315  12.197 -0.9294  0.0928 -1.0904
10110TIP3    H251746   2.270   2.417  12.214 -1.3195 -0.6967  1.5312
10111TIP3   OH251747   5.571   0.370   1.356 -0.6444  0.0801  0.2407
10111TIP3    H151748   5.508   0.404   1.293  0.0475 -0.0215 -0.5365
10111TIP3    H251749   5.531   0.291   1.391 -0.6694 -0.3688 -0.7623
10112TIP3   OH251750   3.041   1.002   1.206 -0.1393 -0.0935 -0.3007
10112TIP3    H151751   2.949   1.022   1.193 -0.0563  0.7420  0.2836
10112TIP3    H251752   3.083   1.088   1.215  0.6420 -0.4685 -0.2523
10113TIP3   OH251753   0.552   4.980  16.514 -0.2161  0.4621 -0.1688
10113TIP3    H151754   0.604   4.910  16.553 -0.8089  0.4077  0.5467
10113TIP3    H251755   0.596   5.061  16.542 -0.4415  0.4132  0.3319
10114TIP3   OH251756   4.111   3.674   2.857 -0.4336 -0.2547 -0.4305
10114TIP3    H151757   4.051   3.677   2.931 -1.0274 -2.9411 -0.7057
10114TIP3    H251758   4.073   3.735   2.793 -0.4264  1.3677  1.0181
10115TIP3   OH251759   5.815   6.321  11.931 -0.3629 -1.0617  0.2350
10115TIP3    H151760   5.783   6.299  11.844 -0.1401 -0.6109  0.0385
10115TIP3    H251761   5.857   6.406  11.921 -0.1291 -1.1127  0.7333
10116TIP3   OH251762   0.417   0.606   4.089 -0.1508 -0.2013 -0.2255
10116TIP3    H151763   0.384   0.678   4.143 -1.8216 -1.1224  0.0634
10116TIP3    H251764   0.412   0.529   4.146  1.2959 -0.6151 -0.6273
10117TIP3   OH251765   5.156   2.597  15.472 -0.7696  0.0585 -0.0174
10117TIP3    H151766   5.152   2.562  15.383  1.3389  0.1970 -0.2026
10117TIP3    H251767   5.141   2.521  15.529  1.4246 -0.7802 -0.4624
10118TIP3   OH251768   5.403   3.611   3.348  0.2770 -0.2684  0.1295
10118TIP3    H151769   5.334   3.585   3.408  0.3801 -2.4928 -0.6080
10118TIP3    H251770   5.409   3.539   3.285 -1.6097  2.8774 -4.2271
10119TIP3   OH251771   2.635   3.254  16.604  0.0215 -0.0037  0.5788
10119TIP3    H151772   2.691   3.208  16.666 -0.7021  0.1120  1.3284
10119TIP3    H251773   2.585   3.315  16.658  1.2426  1.9841 -0.4164
10120TIP3   OH251774   1.438   2.745  10.946 -0.3713  0.2276 -0.2224
10120TIP3    H151775   1.417   2.782  10.860 -2.3284 -0.2990 -0.0209
10120TIP3    H251776   1.391   2.662  10.948  0.2932 -0.1288  1.0682
10121TIP3   OH251777   5.905   4.206   5.287 -0.3502  0.1438 -0.8215
10121TIP3    H151778   5.864   4.257   5.356  0.8637 -0.2242  0.1951
10121TIP3    H251779   5.850   4.127   5.280 -0.0834 -0.1467  0.2258
10122TIP3   OH251780   6.515   0.603   1.596 -0.0439 -0.8132  0.3113
10122TIP3    H151781   6.567   0.534   1.636  0.4408 -1.5903 -1.5490
10122TIP3    H251782   6.457   0.557   1.535 -1.0494  0.2721  0.4183
10123TIP3   OH251783   4.641   6.345   2.899  0.1060 -0.2003  0.3678
10123TIP3    H151784   4.563   6.400   2.912  0.9737  0.9361  1.0000
10123TIP3    H251785   4.710   6.390   2.949  1.5000 -0.4269 -1.2787
10124TIP3   OH251786   0.646   0.413   4.846 -0.3780 -0.5233 -0.4165
10124TIP3    H151787   0.676   0.450   4.763  2.7080 -2.7330 -0.4579
10124TIP3    H251788   0.698   0.459   4.912 -1.2740 -0.2597  0.1107
10125TIP3   OH251789   0.997   4.080   0.692  0.2291  0.7102 -0.0044
10125TIP3    H151790   1.049   4.012   0.650 -0.1419 -1.1893  2.3881
10125TIP3    H251791   0.912   4.038   0.708 -0.3528  2.0696  0.5965
10126TIP3   OH251792   4.313   5.222  12.191 -0.1767 -0.8536 -0.9297
10126TIP3    H151793   4.236   5.219  12.134 -0.1374 -1.2537 -0.9615
10126TIP3    H251794   4.386   5.207  12.132 -0.1893 -2.0000 -0.6656
10127TIP3   OH251795   2.573   4.778   0.784 -0.3823 -0.2658  0.4525
10127TIP3    H151796   2.643   4.804   0.844  0.9053 -2.3221 -0.0601
10127TIP3    H251797   2.499   4.758   0.842 -0.0091  0.3088  1.1458
10128TIP3   OH251798   3.873   1.909   2.517  0.2610  0.3275 -0.3349
10128TIP3    H151799   3.904   1.857   2.442 -1.2846  0.5909 -1.1942
10128TIP3    H251800   3.818   1.849   2.567  0.8734  0.3029  0.3243
10129TIP3   OH251801   6.141   5.670  11.349 -0.0586 -0.1849  0.5010
10129TIP3    H151802   6.173   5.605  11.287 -1.7039  0.1049 -0.7278
10129TIP3    H251803   6.101   5.619  11.419 -0.2317 -0.5053  0.1728
10130TIP3   OH251804   3.242   2.402  15.227  0.6209  0.4516  0.2612
10130TIP3    H151805   3.334   2.377  15.218  0.8817  1.5626 -0.3046
10130TIP3    H251806   3.214   2.358  15.307  1.4395 -0.4731  0.0663
10131TIP3   OH251807   0.096   6.576   0.568  0.5255  0.0639  0.3343
10131TIP3    H151808   0.185   6.548   0.592  1.0989  1.6587  0.2016
10131TIP3    H251809   0.094   6.670   0.589 -0.0094  0.8498 -2.7531
10132TIP3   OH251810   0.236   6.643  12.640  0.0892 -0.3381  0.0345
10132TIP3    H151811   0.285   6.639  12.558 -1.4460 -1.3917 -0.8838
10132TIP3    H251812   0.211   6.553  12.658 -1.5568  0.1561  0.4193
10133TIP3   OH251813   0.984   2.167   3.802 -0.0908 -0.2470 -0.5589
10133TIP3    H151814   0.916   2.223   3.766  0.3193 -0.0426 -1.0236
10133TIP3    H251815   1.058   2.177   3.742  0.4909 -0.1559  0.1652
10134TIP3   OH251816   5.328   3.663   5.422  0.1004  0.3823  0.1098
10134TIP3    H151817   5.353   3.591   5.363  1.2377  0.5297  0.3980
10134TIP3    H251818   5.327   3.623   5.509 -0.8027  0.3570  0.0977
10135TIP3   OH251819   0.646   6.324   4.842 -0.3029  0.5002  0.0779
10135TIP3    H151820   0.654   6.247   4.786 -1.8257  0.8613 -0.6710
10135TIP3    H251821   0.622   6.289   4.928 -0.4612  0.1128 -0.1243
10136TIP3   OH251822   4.567   0.792  13.571 -0.1556 -0.1763 -0.6785
10136TIP3    H151823   4.510   0.838  13.632 -0.6673 -1.2421 -0.3169
10136TIP3    H251824   4.560   0.842  13.489 -0.6300  0.4162 -0.2838
10137TIP3   OH251825   3.266   0.879   3.146 -0.4217 -0.2741 -0.0829
10137TIP3    H151826   3.203   0.829   3.199  0.8222 -2.1346 -0.2472
10137TIP3    H251827   3.349   0.869   3.192  0.3044 -0.3236 -1.3688
10138TIP3   OH251828   4.486   6.139  13.160 -0.3708  0.4779  0.3086
10138TIP3    H151829   4.447   6.081  13.225 -0.5005  0.4706  0.2256
10138TIP3    H251830   4.486   6.226  13.201 -0.1876  0.4200  0.4280
10139TIP3   OH251831   5.906   0.365   1.736  0.0763 -0.6453  0.2291
10139TIP3    H151832   5.989   0.317   1.734  2.1670  2.6519 -2.3766
10139TIP3    H251833   5.841   0.301   1.705  2.1718 -2.5086 -0.6190
10140TIP3   OH251834   2.740   4.026  14.042 -0.3118  0.1363  0.6329
10140TIP3    H151835   2.773   4.093  13.983 -0.5532 -0.0150  0.3199
10140TIP3    H251836   2.817   3.975  14.067 -0.2155  0.1707  0.4078
10141TIP3   OH251837   4.815   1.045  15.979 -0.4938  0.5842 -0.3764
10141TIP3    H151838   4.776   1.028  15.893 -1.0291 -0.0790 -0.0045
10141TIP3    H251839   4.741   1.063  16.036 -0.2889 -0.8167  0.3635
10142TIP3   OH251840   1.726   0.492   2.448 -0.4210 -0.2918  0.1316
10142TIP3    H151841   1.710   0.552   2.374  0.0257 -0.2548  0.0619
10142TIP3    H251842   1.773   0.419   2.409 -0.4349 -0.4057  0.3313
10143TIP3   OH251843   2.158   2.907  14.150 -0.1365  0.0217 -0.8985
10143TIP3    H151844   2.116   2.824  14.127 -2.2437  0.8526 -0.2507
10143TIP3    H251845   2.224   2.920  14.082 -1.9019 -0.6379 -2.8471
10144TIP3   OH251846   0.325   5.596   4.752  0.0338 -0.1369 -0.0616
10144TIP3    H151847   0.259   5.530   4.770  0.5493 -0.7146 -0.2542
10144TIP3    H251848   0.405   5.546   4.737  0.3510  0.5129 -0.5657
10145TIP3   OH251849   0.097   5.932   3.753  0.6231  0.1272 -0.1432
10145TIP3    H151850   0.172   5.958   3.700  0.6464  2.2513  0.8205
10145TIP3    H251851   0.081   6.007   3.810 -0.5750 -1.3282  1.5425
10146TIP3   OH251852   3.176   5.936   5.179  0.0924 -0.0260 -0.8066
10146TIP3    H151853   3.224   5.969   5.102  1.3108  0.1923  0.0246
10146TIP3    H251854   3.178   5.841   5.169  2.5543 -0.1472  0.2497
10147TIP3   OH251855   0.393   1.082   0.953 -0.1088  0.1668 -0.2733
10147TIP3    H151856   0.373   1.024   0.879 -2.6089 -0.5996  0.8870
10147TIP3    H251857   0.458   1.033   1.004  0.5229  0.0445 -1.1638
10148TIP3   OH251858   4.732   1.895  15.651  0.4826 -0.3334 -0.0169
10148TIP3    H151859   4.681   1.907  15.571  0.8340  1.7042  0.0163
10148TIP3    H251860   4.776   1.979  15.664  1.3948 -1.0280  1.6607
10149TIP3   OH251861   2.305   2.907  16.973  0.4366 -0.5470 -0.3246
10149TIP3    H151862   2.241   2.900  16.902  0.7498  0.1651 -0.6913
10149TIP3    H251863   2.253   2.936  17.049 -0.0215 -1.9909 -0.0506
10150TIP3   OH251864   0.844   4.235  14.405 -0.0091  0.4786  0.0604
10150TIP3    H151865   0.863   4.162  14.463  1.0753 -0.9001 -1.8898
10150TIP3    H251866   0.929   4.274  14.387 -0.5070  1.8194  0.5412
10151TIP3   OH251867   4.203   5.668  14.759 -0.0634 -0.2287 -0.1295
10151TIP3    H151868   4.226   5.580  14.790 -1.4340 -0.3960  0.4697
10151TIP3    H251869   4.253   5.727  14.816 -0.0292 -0.6025  0.2345
10152TIP3   OH251870   1.849   3.795  15.069  0.0388 -0.1111 -0.1121
10152TIP3    H151871   1.887   3.828  14.987  0.3614 -0.1022  0.0390
10152TIP3    H251872   1.913   3.820  15.136 -1.4682  2.2782  0.5382
10153TIP3   OH251873   2.510   3.707   5.325  0.6619 -0.3976  0.0841
10153TIP3    H151874   2.569   3.670   5.390 -0.6469 -1.1498  0.8807
10153TIP3    H251875   2.472   3.783   5.368 -0.2380 -0.9200  0.2270
10154TIP3   OH251876   0.404   6.548   1.388  0.2709 -0.0619 -0.0879
10154TIP3    H151877   0.397   6.556   1.293  0.7681 -1.1102 -0.2279
10154TIP3    H251878   0.363   6.463   1.408  0.4244  0.0195  0.6011
10155TIP3   OH251879   0.975   2.091  14.984  0.4435 -0.2394  0.3365
10155TIP3    H151880   1.048   2.143  15.015 -1.0274  1.2394  1.4811
10155TIP3    H251881   0.923   2.073  15.062 -1.4161  0.4050 -0.6826
10156TIP3   OH251882   4.640   6.671   4.427  0.0107  0.7765  0.3594
10156TIP3    H151883   4.554   6.638   4.398 -0.0805 -1.6154  2.9108
10156TIP3    H251884   4.654   6.751   4.375 -2.4793 -0.2160 -2.0913
10157TIP3   OH251885   4.174   1.048  14.326  0.0316 -0.3447 -0.1934
10157TIP3    H151886   4.080   1.028  14.328  0.0880 -0.6156 -0.2131
10157TIP3    H251887   4.204   1.018  14.241 -0.7095  3.7134 -2.1222
10158TIP3   OH251888   1.564   0.763  14.130 -0.2717 -0.4357  0.6487
10158TIP3    H151889   1.524   0.752  14.216 -0.7415 -1.7332  0.2909
10158TIP3    H251890   1.643   0.814  14.147 -0.7068 -0.0941  1.7446
10159TIP3   OH251891   0.812   5.688  12.714  0.3713 -0.1699  0.3105
10159TIP3    H151892   0.858   5.676  12.797  0.1706  1.5073  0.7106
10159TIP3    H251893   0.721   5.703  12.739  0.5715  1.9966 -0.0229
10160TIP3   OH251894   5.350   4.374  16.058 -0.2425  0.2380  0.5735
10160TIP3    H151895   5.275   4.395  16.113 -0.1650  1.9166  0.0888
10160TIP3    H251896   5.351   4.442  15.991 -0.5056 -1.8741 -1.7443
10161TIP3   OH251897   4.623   0.806  12.544 -0.4085 -0.1649  0.0944
10161TIP3    H151898   4.590   0.719  12.523  0.5418 -0.5858  0.2692
10161TIP3    H251899   4.718   0.794  12.553 -0.4764  0.4941  2.0459
10162TIP3   OH251900   0.738   5.141   1.090 -0.1216  0.0554 -0.1122
10162TIP3    H151901   0.777   5.199   1.156 -0.9825 -1.2620  1.6582
10162TIP3    H251902   0.801   5.141   1.018  0.2442  2.5691  0.1102
10163TIP3   OH251903   6.645   2.043   1.572  0.1908 -0.3552  0.2046
10163TIP3    H151904   6.593   2.090   1.508  0.1972  0.4424  0.7740
10163TIP3    H251905   6.580   1.996   1.625  0.0225  0.6655  0.9361
10164TIP3   OH251906   3.507   3.825   1.749 -0.1682  0.3097 -0.3065
10164TIP3    H151907   3.481   3.758   1.686 -0.9910  0.3903 -0.0621
10164TIP3    H251908   3.597   3.846   1.725 -0.5625  0.5598 -1.6467
10165TIP3   OH251909   4.342   2.014  11.507 -0.1412 -0.4086  0.2247
10165TIP3    H151910   4.324   1.936  11.559 -2.9821 -1.6510 -2.3447
10165TIP3    H251911   4.382   1.981  11.426 -2.7942  0.4765 -1.5747
10166TIP3   OH251912   6.657   5.504  12.925  0.4078  0.2117 -0.3294
10166TIP3    H151913   6.724   5.499  12.857  0.6184 -2.1926 -0.0427
10166TIP3    H251914   6.579   5.467  12.885  0.3046 -0.4412  0.4355
10167TIP3   OH251915   3.815   5.771   1.110 -0.1897 -0.4388 -0.2428
10167TIP3    H151916   3.734   5.746   1.156  0.0814  0.8423  1.0098
10167TIP3    H251917   3.786   5.796   1.022 -0.6494 -3.5839 -1.1181
10168TIP3   OH251918   1.341   2.794  14.630  0.5506  0.2543 -0.3739
10168TIP3    H151919   1.349   2.839  14.546 -1.4698 -0.1500 -0.8481
10168TIP3    H251920   1.422   2.743  14.637  1.0749  0.8315 -1.7330
10169TIP3   OH251921   0.365   0.129   0.953  0.0238 -0.1123 -0.3939
10169TIP3    H151922   0.337   0.075   1.027  0.0905  1.4332  0.8115
10169TIP3    H251923   0.317   0.211   0.963 -0.2032  0.0120 -2.2736
10170TIP3   OH251924   6.415   0.119   2.377  0.3731  0.0156 -0.4107
10170TIP3    H151925   6.470   0.197   2.366  1.3197 -0.2322  1.9409
10170TIP3    H251926   6.377   0.129   2.464 -0.3448 -1.6407 -0.4991
10171TIP3   OH251927   2.623   2.260   2.105 -0.3679 -0.0004  0.2686
10171TIP3    H151928   2.632   2.261   2.200 -0.9568  0.1560  0.3276
10171TIP3    H251929   2.545   2.207   2.089  0.3273 -0.9199 -0.1846
10172TIP3   OH251930   2.482   0.764   1.183 -0.4903  0.3693  0.6053
10172TIP3    H151931   2.422   0.828   1.221 -1.1361  0.3795 -0.3913
10172TIP3    H251932   2.428   0.712   1.123  0.5942  0.7834 -0.8131
10173TIP3   OH251933   6.100   4.906  14.800 -0.1603 -0.5950 -0.0524
10173TIP3    H151934   6.091   4.970  14.729  0.4301  1.8146  1.8788
10173TIP3    H251935   6.010   4.883  14.823 -0.4114  0.0811 -0.3372
10174TIP3   OH251936   4.877   5.151   5.409 -0.3565  0.2405 -0.3113
10174TIP3    H151937   4.900   5.193   5.491 -1.6862 -0.7790  0.6390
10174TIP3    H251938   4.959   5.114   5.377  0.5750  2.3403 -0.5127
10175TIP3   OH251939   5.754   0.428  15.055 -0.6835 -0.2417  0.0502
10175TIP3    H151940   5.789   0.371  14.986 -0.7834  1.1814 -1.2260
10175TIP3    H251941   5.798   0.512  15.042 -1.4274  0.3403  1.1198
10176TIP3   OH251942   6.744   0.162  13.367  0.4248  0.2825 -0.0844
10176TIP3    H151943   6.783   0.081  13.401 -1.8575 -0.7989  0.1283
10176TIP3    H251944   6.711   0.207  13.445  0.2702  0.6241 -0.3464
10177TIP3   OH251945   1.318   0.706  15.655  0.1895 -0.0153  0.4400
10177TIP3    H151946   1.274   0.648  15.592 -0.9014  1.0890  0.1374
10177TIP3    H251947   1.406   0.718  15.619 -0.6454  1.2332 -1.3794
10178TIP3   OH251948   2.565   5.537   3.684 -0.1834 -0.5027  0.0099
10178TIP3    H151949   2.648   5.535   3.732  0.2011 -1.2092 -0.6821
10178TIP3    H251950   2.584   5.588   3.606 -0.8863  0.8872  0.7073
10179TIP3   OH251951   5.253   2.115   1.660  0.3557  0.0667  0.3249
10179TIP3    H151952   5.311   2.180   1.620  0.8967 -0.0658  0.8889
10179TIP3    H251953   5.203   2.079   1.586 -0.2667  1.4314  0.0524
10180TIP3   OH251954   3.362   6.665  10.829  0.0500 -0.4022 -0.3322
10180TIP3    H151955   3.305   6.740  10.843 -0.2488 -0.8349  0.9026
10180TIP3    H251956   3.425   6.695  10.764 -0.6936  0.5678 -0.6342
10181TIP3   OH251957   1.225   0.108   5.390  0.2114  0.1977  0.6270
10181TIP3    H151958   1.307   0.077   5.351  1.1016  0.9505  1.8126
10181TIP3    H251959   1.183   0.158   5.321  1.5443  1.1384  0.4454
10182TIP3   OH251960   5.778   3.715  14.688 -0.3833  0.3299  0.0988
10182TIP3    H151961   5.873   3.723  14.679 -0.3793 -0.5211 -0.8636
10182TIP3    H251962   5.752   3.793  14.737  0.6184  1.3788 -0.9725
10183TIP3   OH251963   1.211   3.001  16.087  0.3812 -0.3693 -0.2347
10183TIP3    H151964   1.177   3.088  16.066  0.9442 -0.2347 -0.5901
10183TIP3    H251965   1.208   2.997  16.183  0.0680 -0.0755 -0.2302
10184TIP3   OH251966   3.908   0.946  14.378  0.4719 -0.2500  0.4694
10184TIP3    H151967   3.817   0.974  14.390  0.0621 -1.1169 -0.4711
10184TIP3    H251968   3.916   0.868  14.433  0.8060  0.0908  0.9212
10185TIP3   OH251969   4.957   2.069  13.063  0.0806  0.7085 -0.0831
10185TIP3    H151970   4.979   2.095  13.153 -1.8392  0.6422  0.4530
10185TIP3    H251971   4.957   1.974  13.064  2.4696  0.6419 -0.8342
10186TIP3   OH251972   2.330   6.613   5.937  0.2813 -0.2768 -0.1324
10186TIP3    H151973   2.409   6.628   5.989  0.4645 -1.2323 -0.1216
10186TIP3    H251974   2.258   6.629   5.998  0.4669  0.4721 -0.1072
10187TIP3   OH251975   2.314   6.325  15.998 -0.2030 -0.0653 -0.4101
10187TIP3    H151976   2.330   6.324  16.092 -0.7763 -0.5161 -0.3044
10187TIP3    H251977   2.300   6.417  15.976  2.1606  0.3348 -0.4770
10188TIP3   OH251978   6.522   5.872   3.708 -0.0507  0.4850  0.3536
10188TIP3    H151979   6.491   5.961   3.697  1.0624  0.8931  0.3550
10188TIP3    H251980   6.593   5.863   3.645  1.9611  0.6642  2.4508
10189TIP3   OH251981   6.065   6.110   0.567  0.1930 -0.6144  0.6943
10189TIP3    H151982   6.034   6.089   0.655 -0.7346  0.5182  0.6611
10189TIP3    H251983   6.160   6.097   0.571  0.1469 -0.6757  1.8253
10190TIP3   OH251984   6.379   5.391  12.122 -0.7433 -0.4469 -0.1785
10190TIP3    H151985   6.298   5.434  12.094  0.9009  1.8049 -1.9385
10190TIP3    H251986   6.411   5.346  12.044  0.4922  0.0889 -0.0065
10191TIP3   OH251987   1.566   0.962   1.654  0.2353 -0.7625 -0.3689
10191TIP3    H151988   1.484   1.010   1.638  0.5275 -0.3185 -0.5716
10191TIP3    H251989   1.563   0.940   1.747  0.1892 -0.1586 -0.2214
10192TIP3   OH251990   4.425   5.686   5.836 -0.3891 -0.2383 -0.1025
10192TIP3    H151991   4.513   5.658   5.812 -0.2773 -1.0665  1.1399
10192TIP3    H251992   4.419   5.665   5.930 -2.6866 -2.3774 -0.6205
10193TIP3   OH251993   3.697   0.556   6.281  0.0494  0.1034  0.6271
10193TIP3    H151994   3.665   0.521   6.198  1.8204 -2.1027  0.7650
10193TIP3    H251995   3.766   0.617   6.256 -1.5051  1.8551  0.4463
10194TIP3   OH251996   6.206   2.858  16.266 -0.2765 -0.5797  0.0731
10194TIP3    H151997   6.168   2.843  16.180 -1.1516  0.0956  0.3270
10194TIP3    H251998   6.133   2.890  16.319  0.7778  1.4292  0.3986
10195TIP3   OH251999   3.509   0.490  11.684  0.1158  0.0173 -0.0954
10195TIP3    H152000   3.545   0.404  11.707 -0.1841  0.0243  0.4047
10195TIP3    H252001   3.414   0.478  11.687  0.0377 -0.0706 -1.6744
10196TIP3   OH252002   0.117   1.142   3.928  0.3611 -0.2588  0.3162
10196TIP3    H152003   0.067   1.202   3.983  0.6771 -1.0298  1.5020
10196TIP3    H252004   0.053   1.104   3.868  0.1997  1.3921 -0.6043
10197TIP3   OH252005   3.138   1.070   0.621  0.1840  0.3639  0.0643
10197TIP3    H152006   3.215   1.127   0.612  0.7279 -0.1349  1.3627
10197TIP3    H252007   3.170   0.983   0.597  0.5220 -0.1655  2.2086
10198TIP3   OH252008   4.885   1.516  16.243  0.1011  0.2549 -0.1575
10198TIP3    H152009   4.871   1.423  16.223 -0.4256  0.3885 -0.4379
10198TIP3    H252010   4.979   1.523  16.262  0.6352  0.0810 -2.4807
10199TIP3   OH252011   2.095   0.211   4.756  0.1543 -0.1959 -0.0565
10199TIP3    H152012   2.183   0.181   4.732  0.2589 -0.9368  1.1736
10199TIP3    H252013   2.104   0.306   4.767  0.7161 -0.2196 -0.2866
10200TIP3   OH252014   0.959   1.456   5.822 -0.2996 -0.1313 -0.0862
10200TIP3    H152015   0.866   1.442   5.843 -0.6611  1.2577 -0.6264
10200TIP3    H252016   0.957   1.521   5.752  1.0876 -0.2223 -0.2226
10201TIP3   OH252017   3.155   0.899   7.005 -0.5728  0.1003 -0.2491
10201TIP3    H152018   3.084   0.951   6.967 -0.7452  0.9676  1.1779
10201TIP3    H252019   3.235   0.939   6.970 -0.7050 -1.9792 -3.2805
10202TIP3   OH252020   5.236   4.922   4.905  0.2245  0.8934  0.1385
10202TIP3    H152021   5.169   4.980   4.868  0.8884  2.4391  1.2577
10202TIP3    H252022   5.239   4.848   4.845 -2.3042  0.8781 -0.0967
10203TIP3   OH252023   0.184   0.334  15.012 -0.0040  0.2775  0.4835
10203TIP3    H152024   0.184   0.238  15.010 -0.8067  0.2477  1.2286
10203TIP3    H252025   0.091   0.358  15.011  0.1613  1.0116  1.3392
10204TIP3   OH252026   2.375   5.882  12.160 -0.3862 -0.1869 -0.2785
10204TIP3    H152027   2.452   5.854  12.208 -0.5545 -0.4181 -0.1390
10204TIP3    H252028   2.304   5.878  12.223 -0.4779  0.2156 -0.3552
10205TIP3   OH252029   4.273   0.406   2.274 -0.0202  0.4198 -0.7390
10205TIP3    H152030   4.327   0.419   2.196  0.2623 -0.3380 -0.6755
10205TIP3    H252031   4.312   0.331   2.318  0.5106  1.5148  0.7276
10206TIP3   OH252032   3.662   4.345  10.718  0.1485  0.5234 -0.3708
10206TIP3    H152033   3.569   4.358  10.736  0.1482  0.8913 -0.6263
10206TIP3    H252034   3.686   4.270  10.772 -0.1294  0.8676  0.2450
10207TIP3   OH252035   4.747   1.580  14.543  0.0911  0.1328  0.3088
10207TIP3    H152036   4.768   1.491  14.572 -0.1148 -0.2890 -0.7871
10207TIP3    H252037   4.689   1.568  14.468 -2.4620  1.2382  1.9772
10208TIP3   OH252038   4.404   5.075   0.971 -0.2743 -0.5923  0.5105
10208TIP3    H152039   4.478   5.098   0.916 -0.2026 -1.6534  0.1423
10208TIP3    H252040   4.347   5.152   0.968 -0.1313 -0.5140 -0.8005
10209TIP3   OH252041   3.755   1.695   4.064 -0.5209  0.1012  0.0888
10209TIP3    H152042   3.729   1.759   3.998 -1.4205  1.6901  1.8706
10209TIP3    H252043   3.775   1.616   4.014 -0.1582  1.5098 -2.1396
10210TIP3   OH252044   5.313   5.206  16.817 -0.1234  0.4485 -0.1388
10210TIP3    H152045   5.259   5.133  16.846 -0.1097  0.5104  0.0466
10210TIP3    H252046   5.250   5.278  16.804 -0.2649  0.1396 -1.2444
10211TIP3   OH252047   1.720   2.509   6.334  0.5214  0.0940  0.3959
10211TIP3    H152048   1.655   2.452   6.374  0.5748 -1.0982 -1.1347
10211TIP3    H252049   1.742   2.573   6.402 -0.8903 -0.5961  1.5315
10212TIP3   OH252050   1.648   5.511   4.723 -0.8535  0.0006 -0.2597
10212TIP3    H152051   1.657   5.600   4.759 -0.4534 -0.6066  1.2247
10212TIP3    H252052   1.579   5.471   4.776 -0.1934 -0.9490 -0.1034
10213TIP3   OH252053   4.660   4.143   0.651 -0.0097  0.6359 -0.2906
10213TIP3    H152054   4.740   4.155   0.702  0.1836  2.7014 -0.9542
10213TIP3    H252055   4.650   4.225   0.603 -2.3756  0.3170 -0.4814
10214TIP3   OH252056   0.338   0.429   5.264 -0.3457  0.0813  0.6879
10214TIP3    H152057   0.337   0.353   5.323  0.5966 -0.4940 -0.0233
10214TIP3    H252058   0.364   0.393   5.179 -1.5533  0.9296 -0.0586
10215TIP3   OH252059   4.405   0.833   3.349 -0.1070 -0.7060 -0.2241
10215TIP3    H152060   4.445   0.888   3.416 -0.5879 -1.1860  0.4668
10215TIP3    H252061   4.320   0.873   3.332 -0.7598 -1.6264  0.8002
10216TIP3   OH252062   3.393   4.026   3.500  0.8145  0.7889  0.0804
10216TIP3    H152063   3.436   4.066   3.424  0.8049  0.0743 -0.3030
10216TIP3    H252064   3.416   4.084   3.573  1.7385  0.8800 -0.2669
10217TIP3   OH252065   0.551   2.389   5.780 -1.0925  0.2487 -0.1896
10217TIP3    H152066   0.636   2.353   5.755 -1.1896  0.4020 -0.7382
10217TIP3    H252067   0.522   2.333   5.852 -0.7221 -0.0640 -0.2808
10218TIP3   OH252068   2.469   1.677   1.700 -0.2490  0.4480  0.4041
10218TIP3    H152069   2.431   1.763   1.680  0.5743  0.9253  0.8356
10218TIP3    H252070   2.445   1.622   1.625 -1.3479  0.8641  0.4329
10219TIP3   OH252071   2.847   0.907   5.525  0.5377  0.1376  0.3814
10219TIP3    H152072   2.861   0.877   5.435  2.6388 -0.8558  0.9746
10219TIP3    H252073   2.781   0.976   5.517 -0.4614 -0.9625 -1.7102
10220TIP3   OH252074   6.493   2.931  14.582  0.3293  0.4399  0.3251
10220TIP3    H152075   6.497   3.003  14.519  0.1468 -0.0894 -0.3021
10220TIP3    H252076   6.549   2.863  14.545 -1.3674 -0.6753 -0.3226
10221TIP3   OH252077   4.438   1.908   6.666  0.2795 -0.1890 -0.2902
10221TIP3    H152078   4.486   1.991   6.668 -0.0276 -0.0067  1.7816
10221TIP3    H252079   4.469   1.861   6.743  0.1219 -1.8305 -1.2009
10222TIP3   OH252080   4.453   6.046   0.019 -0.6388  0.0182  0.8586
10222TIP3    H152081   4.497   6.118   0.064  0.7522 -0.8844  1.0034
10222TIP3    H252082   4.487   5.967   0.061 -1.2637 -0.7632 -0.0539
10223TIP3   OH252083   0.310   0.517   0.302 -0.1563 -0.1886  0.0258
10223TIP3    H152084   0.225   0.485   0.333 -1.8100  1.6890 -2.1685
10223TIP3    H252085   0.301   0.519   0.206  2.3629  0.1106 -0.2679
10224TIP3   OH252086   3.914   0.530   0.278 -0.1172 -0.4100  0.2954
10224TIP3    H152087   3.927   0.545   0.184 -2.3569  0.4080  0.0545
10224TIP3    H252088   3.854   0.599   0.305  0.0653 -0.9556  2.2466
10225TIP3   OH252089   6.659   1.221  14.059 -0.5206  0.3245  0.0177
10225TIP3    H152090   6.602   1.194  14.131 -0.9228  0.5697 -0.2010
10225TIP3    H252091   6.748   1.209  14.092 -0.6918 -0.4091  0.2410
10226TIP3   OH252092   0.870   4.751   6.061  0.2584 -0.1245  0.0785
10226TIP3    H152093   0.835   4.732   5.974 -0.6534 -0.9257  0.6026
10226TIP3    H252094   0.815   4.823   6.094  1.4835  1.1437 -0.5234
10227TIP3   OH252095   4.249   5.566  17.389 -0.1156 -0.8596  1.0455
10227TIP3    H152096   4.161   5.579  17.425 -0.0694  0.5990  0.7249
10227TIP3    H252097   4.246   5.610  17.304  1.5727  1.4539  2.0499
10228TIP3   OH252098   2.192   5.680  12.291 -0.1936  0.1216 -0.3913
10228TIP3    H152099   2.256   5.631  12.240 -1.2636 -0.3986 -1.2804
10228TIP3    H252100   2.188   5.634  12.375 -0.9367 -1.1469 -1.0921
10229TIP3   OH252101   4.213   5.819   1.213 -0.4030  0.2213  0.2559
10229TIP3    H152102   4.227   5.833   1.119  1.1096  1.8297  0.6449
10229TIP3    H252103   4.132   5.866   1.232 -0.1864  0.7542 -0.0931
10230TIP3   OH252104   3.409   4.251   4.758  0.2566  0.4437 -0.8810
10230TIP3    H152105   3.453   4.219   4.679 -0.7064 -0.8531 -0.9256
10230TIP3    H252106   3.357   4.177   4.788 -1.2536  1.6691 -0.3546
10231TIP3   OH252107   3.660   3.252   0.923 -0.2236 -0.3245  0.5138
10231TIP3    H152108   3.569   3.281   0.935  1.0808  4.0064  1.8140
10231TIP3    H252109   3.697   3.255   1.012  1.4727 -0.7926 -0.1536
10232TIP3   OH252110   2.291   3.720  14.310 -0.5358  0.0038  0.1637
10232TIP3    H152111   2.344   3.719  14.230  0.3605  1.6286  0.6867
10232TIP3    H252112   2.209   3.762  14.284 -0.7019 -0.4933 -0.1384
10233TIP3   OH252113   1.033   2.505   2.687  0.6161  0.3693  0.2564
10233TIP3    H152114   1.111   2.559   2.701  1.0239  0.5773 -2.2753
10233TIP3    H252115   1.066   2.428   2.639 -0.7050  0.4732 -0.8686
10234TIP3   OH252116   4.129   2.989   3.742 -0.3671  0.2294 -0.3481
10234TIP3    H152117   4.210   2.989   3.793  0.1104  0.6884 -1.0855
10234TIP3    H252118   4.111   3.081   3.726 -1.7069  0.1898  0.8262
10235TIP3   OH252119   1.739   4.662   3.835 -0.4215 -0.2693 -0.2672
10235TIP3    H152120   1.795   4.600   3.789  0.6002 -0.0296  0.6101
10235TIP3    H252121   1.663   4.672   3.779 -0.3108 -1.8143 -0.7425
10236TIP3   OH252122   2.475   6.151  13.155 -0.1420  0.0525 -0.2656
10236TIP3    H152123   2.388   6.115  13.137  1.1196 -2.9011 -1.2324
10236TIP3    H252124   2.523   6.138  13.074  1.8999 -0.8453  1.0056
10237TIP3   OH252125   3.702   0.721  12.313 -0.4687  0.3709 -0.4224
10237TIP3    H152126   3.786   0.759  12.337 -0.4617  0.6561 -0.8796
10237TIP3    H252127   3.678   0.666  12.387  2.4360 -3.6827 -2.1030
10238TIP3   OH252128   6.445   5.545   3.657 -0.8966  0.1023 -0.1779
10238TIP3    H152129   6.421   5.562   3.748 -2.1684 -0.0587 -0.4681
10238TIP3    H252130   6.386   5.601   3.606 -1.3699 -1.0754 -0.9552
10239TIP3   OH252131   5.881   4.913  13.730  0.2239 -0.7983 -0.4153
10239TIP3    H152132   5.857   4.946  13.816 -0.7469  0.9817 -1.3279
10239TIP3    H252133   5.972   4.885  13.740  0.7079  1.0378  0.7281
10240TIP3   OH252134   4.578   1.326  16.648  0.1385  0.1797 -0.3807
10240TIP3    H152135   4.503   1.342  16.590 -0.1619  0.1170 -0.0084
10240TIP3    H252136   4.569   1.390  16.718  0.6441  0.4224 -0.5346
10241TIP3   OH252137   0.641   3.759   3.900  0.1275 -0.5480  0.3358
10241TIP3    H152138   0.551   3.770   3.930 -0.0219 -0.7337 -0.0386
10241TIP3    H252139   0.641   3.674   3.854  0.5726 -0.7168  0.6380
10242TIP3   OH252140   6.098   5.998  12.395  0.1187  0.5322 -0.4980
10242TIP3    H152141   6.092   5.991  12.490 -1.6679  1.9080 -0.4483
10242TIP3    H252142   6.182   5.958  12.373  0.0920 -0.7849  1.5330
10243TIP3   OH252143   4.716   2.687   0.251  0.0857  0.6014 -0.1840
10243TIP3    H152144   4.767   2.710   0.173  1.6479  0.6362  0.8057
10243TIP3    H252145   4.779   2.690   0.323 -0.9982 -0.8080  0.8966
10244TIP3   OH252146   3.022   6.029  11.157  0.8131 -0.0464  0.6226
10244TIP3    H152147   2.972   6.030  11.239  0.8645  0.6934  0.6488
10244TIP3    H252148   2.956   6.035  11.088  0.7780 -0.5366  0.6112
10245TIP3   OH252149   5.918   2.006   0.447  0.0610  0.0318  0.0874
10245TIP3    H152150   5.874   1.924   0.421  0.5396 -0.6358  1.3028
10245TIP3    H252151   5.968   1.982   0.525  1.6254  1.0756 -0.5572
10246TIP3   OH252152   2.517   2.311  17.033  0.7109 -0.6495 -0.1286
10246TIP3    H152153   2.434   2.265  17.033  0.6458 -0.6712  2.2937
10246TIP3    H252154   2.580   2.248  16.998 -0.2401 -0.6769 -1.8415
10247TIP3   OH252155   1.881   4.801  16.560  0.2618  1.1603  0.4042
10247TIP3    H152156   1.801   4.749  16.551 -0.1499  2.1316 -2.2938
10247TIP3    H252157   1.878   4.834  16.650 -0.8065 -1.2162  1.3193
10248TIP3   OH252158   4.121   5.770  11.397 -0.8911 -0.3267 -0.4858
10248TIP3    H152159   4.143   5.682  11.368 -3.1095 -0.8525 -0.7911
10248TIP3    H252160   4.108   5.820  11.316 -0.3907  0.0961 -0.3166
10249TIP3   OH252161   0.072   6.469   3.251  0.1742  0.3969  0.2015
10249TIP3    H152162   0.082   6.553   3.207  2.3334  0.6704  1.1043
10249TIP3    H252163  -0.020   6.467   3.278  0.0590  2.4139  0.0955
10250TIP3   OH252164   0.427   3.920  16.180  0.5860  0.1510  0.5258
10250TIP3    H152165   0.389   3.833  16.171  0.0572  0.5656 -2.0815
10250TIP3    H252166   0.521   3.904  16.193  0.7365 -0.8625 -1.3940
10251TIP3   OH252167   1.253   5.226  10.913  0.3785 -0.6060  0.2118
10251TIP3    H152168   1.260   5.320  10.895  1.7136 -0.4631  1.2407
10251TIP3    H252169   1.220   5.222  11.003  1.8663 -1.0569  0.7621
10252TIP3   OH252170   2.807   2.762  12.507 -0.1795  0.4568  0.1558
10252TIP3    H152171   2.823   2.841  12.558 -1.2837  0.1718  1.0058
10252TIP3    H252172   2.851   2.693  12.557 -1.6695  0.1003  1.0319
10253TIP3   OH252173   4.473   4.971   2.131 -0.6670 -0.1848  0.5760
10253TIP3    H152174   4.434   4.914   2.065  0.1963 -0.3010  0.1433
10253TIP3    H252175   4.436   4.942   2.214 -1.2073 -0.5229  0.2213
10254TIP3   OH252176   2.765   0.146   3.009  0.1260 -0.1551 -0.4114
10254TIP3    H152177   2.737   0.079   2.946  0.5554  1.0353 -1.9264
10254TIP3    H252178   2.726   0.227   2.977  2.7098  1.0078 -0.8728
10255TIP3   OH252179   3.514   0.901  15.847 -1.2248 -0.2962  0.2444
10255TIP3    H152180   3.490   0.862  15.763 -1.2348  0.9388 -0.3547
10255TIP3    H252181   3.608   0.921  15.838 -1.2308 -0.1377  0.5155
10256TIP3   OH252182   6.320   6.413  16.986  0.0458 -0.3555  0.0514
10256TIP3    H152183   6.263   6.488  16.974 -0.3237 -0.1320  2.6407
10256TIP3    H252184   6.264   6.344  17.022  0.7241 -1.3124 -0.6529
10257TIP3   OH252185   3.138   2.363  12.148 -0.3576  0.2213  0.1397
10257TIP3    H152186   3.107   2.274  12.130  0.2072 -0.2967  1.5746
10257TIP3    H252187   3.229   2.352  12.175 -0.0593  1.3206 -0.3554
10258TIP3   OH252188   5.780   0.140  11.356 -0.3189  0.6431 -0.1057
10258TIP3    H152189   5.778   0.154  11.261 -0.8466  2.2015  0.1173
10258TIP3    H252190   5.869   0.165  11.381 -0.1906  0.2649 -0.1714
10259TIP3   OH252191   3.873   3.001  14.803  0.0134 -0.4241  0.0398
10259TIP3    H152192   3.968   3.007  14.817 -0.2807  2.8376  1.4491
10259TIP3    H252193   3.862   3.028  14.711  0.3121  3.3296  0.9462
10260TIP3   OH252194   3.435   5.794  15.675 -0.3230  0.7164  0.0298
10260TIP3    H152195   3.411   5.798  15.767  1.5870 -0.1031  0.6235
10260TIP3    H252196   3.516   5.743  15.674 -0.5317  0.3331 -2.1551
10261TIP3   OH252197   3.054   2.452   4.237 -0.3571  0.4858 -0.2997
10261TIP3    H152198   3.105   2.529   4.214  1.0742 -0.7468 -1.4941
10261TIP3    H252199   3.065   2.442   4.331  1.2469  0.5346 -0.4655
10262TIP3   OH252200   3.699   0.165   6.368  0.7486 -0.5291  0.5239
10262TIP3    H152201   3.790   0.162   6.341  1.2119 -0.7578  2.0323
10262TIP3    H252202   3.690   0.094   6.431 -0.0992  0.4116  1.5042
10263TIP3   OH252203   0.831   3.235   5.682 -0.3056 -0.2585 -0.5875
10263TIP3    H152204   0.849   3.304   5.618 -0.4075 -1.7616 -2.3061
10263TIP3    H252205   0.739   3.213   5.669 -0.8982  0.6972  1.4525
10264TIP3   OH252206   3.683   5.020   5.770 -0.3616  0.0752 -0.5777
10264TIP3    H152207   3.595   5.035   5.737 -0.7550  0.2791  0.5009
10264TIP3    H252208   3.722   4.959   5.708 -1.3656 -0.2392 -0.9244
10265TIP3   OH252209   6.153   1.841  16.246  0.5347  0.8672 -0.2591
10265TIP3    H152210   6.091   1.913  16.235  0.0518  0.5777  0.4188
10265TIP3    H252211   6.150   1.821  16.340  1.3910  0.6058 -0.2777
10266TIP3   OH252212   4.991   6.431  13.179  0.1595 -0.5096  0.1579
10266TIP3    H152213   5.044   6.355  13.157 -0.5993 -1.0938  0.2977
10266TIP3    H252214   5.015   6.452  13.270  1.2061  0.1442 -0.2510
10267TIP3   OH252215   2.111   1.277  15.116 -0.0647  0.1072 -0.3720
10267TIP3    H152216   2.068   1.349  15.070 -1.8774 -0.3262  0.5335
10267TIP3    H252217   2.082   1.285  15.207  0.2471 -1.3501 -0.1098
10268TIP3   OH252218   3.589   4.942   4.434 -0.1818  0.0481  0.1728
10268TIP3    H152219   3.517   4.897   4.478 -0.3509 -0.8790 -1.0054
10268TIP3    H252220   3.646   4.872   4.403 -0.2461  0.6389 -1.3612
10269TIP3   OH252221   4.549   0.474   4.593 -0.2184  0.4291  0.5180
10269TIP3    H152222   4.565   0.486   4.499 -0.2987 -2.9022 -0.0380
10269TIP3    H252223   4.624   0.514   4.636  0.8234  0.2677 -1.0827
10270TIP3   OH252224   0.136   3.354  13.441  0.6001  0.2573 -0.2123
10270TIP3    H152225   0.185   3.373  13.521  1.5382 -0.0295 -0.6992
10270TIP3    H252226   0.199   3.307  13.385  0.1952  1.0803 -1.3976
10271TIP3   OH252227   0.146   5.706  14.437  0.1103 -0.6331  0.2006
10271TIP3    H152228   0.071   5.747  14.392  1.4097 -0.5012 -1.9925
10271TIP3    H252229   0.172   5.771  14.502 -2.2521 -1.1134  1.7771
10272TIP3   OH252230   3.616   3.591  17.354 -0.1996  1.1986 -0.6639
10272TIP3    H152231   3.531   3.577  17.394  0.9508  1.1056  1.9674
10272TIP3    H252232   3.677   3.542  17.409  1.3772 -0.6038 -3.7186
10273TIP3   OH252233   5.486   4.933  16.840  0.2351 -0.3591 -0.4565
10273TIP3    H152234   5.512   4.953  16.930  0.5926 -0.4704 -0.5319
10273TIP3    H252235   5.440   5.012  16.810  0.3298 -0.2283 -0.2585
10274TIP3   OH252236   4.121   1.612  14.969  0.4792  0.3713 -0.4461
10274TIP3    H152237   4.117   1.650  15.057 -1.3409 -0.6075 -0.0526
10274TIP3    H252238   4.070   1.531  14.976  1.8616 -0.6971 -1.9516
10275TIP3   OH252239   0.955   2.047  11.637  0.5382  0.2024 -0.4656
10275TIP3    H152240   1.041   2.061  11.595  0.2411  2.3425 -0.4805
10275TIP3    H252241   0.965   2.086  11.724 -0.2828 -0.0185 -0.2692
10276TIP3   OH252242   3.457   3.542   0.766  0.3003 -0.6998 -0.0805
10276TIP3    H152243   3.483   3.634   0.758  1.1485 -0.7565  1.6227
10276TIP3    H252244   3.411   3.523   0.684  0.2360  1.1909 -0.5260
10277TIP3   OH252245   4.074   4.789  12.466 -0.5657  0.5336  0.3914
10277TIP3    H152246   4.105   4.827  12.548 -0.5678 -1.0504  1.1610
10277TIP3    H252247   4.074   4.695  12.481 -0.1342  0.1670 -1.5936
10278TIP3   OH252248   5.138   1.343  11.350 -0.3382  0.4918  0.4343
10278TIP3    H152249   5.184   1.293  11.417 -0.0345 -0.8190 -0.7065
10278TIP3    H252250   5.203   1.355  11.281 -0.3205  2.7343  0.7672
10279TIP3   OH252251   0.390   0.872   5.149  0.2276  0.0050 -0.0678
10279TIP3    H152252   0.340   0.812   5.204  2.5830 -1.8294  0.2283
10279TIP3    H252253   0.453   0.913   5.209 -0.7596  2.1693 -0.4373
10280TIP3   OH252254   3.269   3.930   1.667  0.3131  0.5068 -0.1928
10280TIP3    H152255   3.295   3.972   1.585 -2.0601 -0.0861 -1.3048
10280TIP3    H252256   3.343   3.874   1.689  2.0189  2.4613 -0.5833
10281TIP3   OH252257   4.928   4.593   5.874  0.6421  0.1519 -0.0588
10281TIP3    H152258   4.897   4.520   5.928  2.1402 -0.8649 -0.5152
10281TIP3    H252259   5.023   4.583   5.872  0.9744  2.5495  0.4411
10282TIP3   OH252260   4.185   0.376  15.830  0.7536  0.4095  0.6367
10282TIP3    H152261   4.136   0.306  15.872 -1.3725  1.7360  0.5010
10282TIP3    H252262   4.223   0.426  15.902  0.2843  0.4813  0.8387
10283TIP3   OH252263   0.013   4.878  17.269 -0.0557  0.0920  0.4801
10283TIP3    H152264   0.029   4.971  17.252 -0.7245  0.2698  0.7856
10283TIP3    H252265  -0.030   4.846  17.190  0.0377  0.0798  0.4343
10284TIP3   OH252266   1.527   6.594  17.369  0.1338 -0.3644  0.1398
10284TIP3    H152267   1.496   6.512  17.408  2.3256 -1.2445  0.1982
10284TIP3    H252268   1.623   6.586  17.369  0.4069  2.0316 -0.2454
10285TIP3   OH252269   0.940   2.757   1.578 -0.1210 -0.9238 -0.2881
10285TIP3    H152270   0.962   2.727   1.489  0.5296 -1.8551  0.1727
10285TIP3    H252271   0.999   2.831   1.593 -0.0150 -0.9589 -0.5174
10286TIP3   OH252272   2.059   3.264  13.746 -0.3682  0.3238 -0.2238
10286TIP3    H152273   1.970   3.254  13.714  0.1897 -0.0500 -1.7406
10286TIP3    H252274   2.077   3.358  13.737 -0.1011  0.1769 -1.4092
10287TIP3   OH252275   3.504   2.035   0.804 -0.1303  0.6198  0.4035
10287TIP3    H152276   3.578   2.056   0.861  1.9214 -2.9067 -0.6662
10287TIP3    H252277   3.532   2.065   0.717 -0.5989  0.5016  0.2078
10288TIP3   OH252278   5.593   1.007  14.512 -0.3151  0.1507  0.1697
10288TIP3    H152279   5.556   0.962  14.436 -0.6512 -0.7089  0.8227
10288TIP3    H252280   5.634   0.938  14.564  1.0279  0.9113  0.1436
10289TIP3   OH252281   6.096   5.021  16.796 -0.0448 -0.7236 -0.0854
10289TIP3    H152282   6.158   5.084  16.833 -0.9489  0.1208  0.0516
10289TIP3    H252283   6.052   4.984  16.873 -1.9839  1.0911 -0.2256
10290TIP3   OH252284   2.164   1.219  15.572 -0.1233 -0.4615  0.1001
10290TIP3    H152285   2.219   1.271  15.631 -0.5987  1.6837 -1.2280
10290TIP3    H252286   2.209   1.224  15.488 -0.5532 -1.6840 -0.2163
10291TIP3   OH252287   5.615   5.378   3.250  0.1761 -0.8529  0.7283
10291TIP3    H152288   5.583   5.356   3.162 -0.1277  1.1925  0.2654
10291TIP3    H252289   5.710   5.370   3.243  0.2067  0.0125 -0.0366
10292TIP3   OH252290   1.599   6.184  14.163  0.3556 -0.0482 -0.0891
10292TIP3    H152291   1.675   6.206  14.218  1.3011 -0.3599 -1.2135
10292TIP3    H252292   1.609   6.240  14.086  0.2792 -1.1347 -0.9121
10293TIP3   OH252293   2.243   2.905  11.628 -0.1426 -0.1078  0.6698
10293TIP3    H152294   2.161   2.933  11.667 -0.7701 -0.4561 -0.3421
10293TIP3    H252295   2.224   2.817  11.594  0.3057  0.2443 -0.5406
10294TIP3   OH252296   2.730   5.966  12.519  0.1525  0.0586  0.1587
10294TIP3    H152297   2.753   5.973  12.426 -1.3976  2.0218 -0.1522
10294TIP3    H252298   2.805   6.004  12.565  0.4528  0.1218 -0.3731
10295TIP3   OH252299   3.446   3.606  14.571 -0.6407 -0.1478  0.5736
10295TIP3    H152300   3.474   3.690  14.535 -2.2571  0.4779  0.7197
10295TIP3    H252301   3.474   3.542  14.506  1.2487  0.3907  0.7926
10296TIP3   OH252302   4.433   4.453  13.149  0.2715  0.1626  0.8723
10296TIP3    H152303   4.386   4.417  13.224  0.9582 -1.0922  0.7261
10296TIP3    H252304   4.459   4.376  13.098  0.7973  0.9380 -0.0671
10297TIP3   OH252305   3.192   5.359   3.929  0.0341 -0.1312  0.5670
10297TIP3    H152306   3.156   5.307   3.858 -0.6636  1.5879 -0.3924
10297TIP3    H252307   3.130   5.431   3.942  0.7913  0.3260  2.0429
10298TIP3   OH252308   2.392   0.163  12.124 -0.6179 -0.2315  0.2567
10298TIP3    H152309   2.442   0.175  12.204 -0.9568 -2.1240  0.7985
10298TIP3    H252310   2.326   0.231  12.126 -0.4985 -0.1329  1.4901
10299TIP3   OH252311   1.507   5.896  12.445  0.5579  0.6543 -0.2784
10299TIP3    H152312   1.502   5.961  12.374 -0.0907 -0.5566 -1.4003
10299TIP3    H252313   1.454   5.823  12.413  0.2017  0.0963  1.5178
10300TIP3   OH252314   3.392   3.199   0.685 -0.0160 -0.2642  0.3611
10300TIP3    H152315   3.352   3.181   0.600  1.2762  0.4949 -0.4498
10300TIP3    H252316   3.486   3.207   0.666  0.3714 -0.6124  1.9538
10301TIP3   OH252317   0.405   2.726  13.533 -0.2531  0.6960  0.3669
10301TIP3    H152318   0.426   2.819  13.528  0.1188  0.5674 -1.0758
10301TIP3    H252319   0.472   2.683  13.480 -2.1398 -0.0743 -1.5722
10302TIP3   OH252320   3.425   5.512   1.538 -0.4627  0.2277  0.3704
10302TIP3    H152321   3.357   5.453   1.571  1.3552 -1.2248  1.7435
10302TIP3    H252322   3.491   5.513   1.607  0.6481  2.0842 -0.6438
10303TIP3   OH252323   0.801   2.333   4.404 -0.1175 -0.3146  0.6050
10303TIP3    H152324   0.894   2.343   4.427 -0.0850  1.6441 -0.1404
10303TIP3    H252325   0.802   2.296   4.315  0.0356  1.2126 -0.0621
10304TIP3   OH252326   5.180   5.310  16.122  0.2911 -0.0815 -0.3722
10304TIP3    H152327   5.108   5.257  16.090 -0.5960  0.5509  0.5171
10304TIP3    H252328   5.249   5.246  16.143 -1.8214 -1.3976  3.6768
10305TIP3   OH252329   1.496   5.739   6.082 -0.0289 -0.7301 -0.3406
10305TIP3    H152330   1.564   5.767   6.021 -0.9879  0.1643 -1.0386
10305TIP3    H252331   1.532   5.759   6.168  0.3533  0.3092 -0.7265
10306TIP3   OH252332   3.371   0.342   2.109  0.4699 -0.1917  0.1498
10306TIP3    H152333   3.350   0.414   2.050  1.7832  0.2991  0.2564
10306TIP3    H252334   3.466   0.345   2.119  0.6461 -2.3046 -0.2940
10307TIP3   OH252335   3.884   0.693   2.679  0.8070 -0.2710  0.6206
10307TIP3    H152336   3.839   0.682   2.762  1.7323 -2.2345  0.9320
10307TIP3    H252337   3.919   0.606   2.659  0.9398  0.2233 -1.6376
10308TIP3   OH252338   5.544   2.158  11.809  0.4446  0.3964 -0.0293
10308TIP3    H152339   5.509   2.247  11.802 -1.2692  0.0511  2.6070
10308TIP3    H252340   5.505   2.112  11.736  0.2848  1.4909 -0.6623
10309TIP3   OH252341   5.765   1.776   0.922  0.1744  0.6679 -0.0598
10309TIP3    H152342   5.736   1.859   0.958 -0.5726  0.0225  0.8805
10309TIP3    H252343   5.722   1.710   0.976 -1.0463 -0.3613 -2.1669
10310TIP3   OH252344   6.623   3.155  11.436 -0.1576 -0.3710 -0.4000
10310TIP3    H152345   6.634   3.245  11.467 -0.4037 -0.9889  1.6066
10310TIP3    H252346   6.584   3.109  11.510 -1.2843 -1.8413 -1.8528
10311TIP3   OH252347   5.201   1.330   2.208  0.2049 -0.4647  0.2896
10311TIP3    H152348   5.116   1.374   2.200  0.5422  0.0132 -1.0814
10311TIP3    H252349   5.184   1.253   2.262 -0.4998  1.0718  2.3452
10312TIP3   OH252350   0.451   4.217   2.279 -0.0190 -0.2336  0.0572
10312TIP3    H152351   0.504   4.184   2.207  1.5990 -0.5322  1.3330
10312TIP3    H252352   0.368   4.171   2.270  0.0550 -0.1022 -1.7154
10313TIP3   OH252353   5.926   4.706   2.603 -0.1968 -0.0115  0.2234
10313TIP3    H152354   5.925   4.798   2.575  0.2376 -0.4686 -1.4184
10313TIP3    H252355   5.978   4.662   2.536  0.0782 -1.3770  1.2967
10314TIP3   OH252356   5.404   2.284   0.078 -0.0457 -0.4489 -0.1939
10314TIP3    H152357   5.472   2.223   0.049  1.3752 -0.0221  1.9662
10314TIP3    H252358   5.448   2.340   0.142 -1.8677  1.4253 -0.4581
10315TIP3   OH252359   6.072   3.056  17.336 -0.1145 -0.0111 -0.1859
10315TIP3    H152360   6.155   3.073  17.291 -0.6465 -0.7751 -1.5100
10315TIP3    H252361   6.074   3.114  17.412  1.7513 -0.2306 -0.0322
10316TIP3   OH252362   1.776   3.221   2.340  0.0796 -0.4627 -0.4928
10316TIP3    H152363   1.800   3.289   2.402 -0.3782 -1.9421  1.3891
10316TIP3    H252364   1.775   3.140   2.391 -3.1936 -1.3525 -1.6898
10317TIP3   OH252365   1.871   1.928   3.108  0.5234  0.1631 -0.0544
10317TIP3    H152366   1.902   1.905   3.195  0.7333  1.0466  0.1196
10317TIP3    H252367   1.879   1.847   3.057  1.0604 -0.1843  0.5627
10318TIP3   OH252368   6.357   5.103  10.695 -0.0556 -0.3320 -0.3300
10318TIP3    H152369   6.345   5.069  10.606 -0.3719  0.1327 -0.4714
10318TIP3    H252370   6.273   5.086  10.738 -0.7971  1.6555 -0.8853
10319TIP3   OH252371   6.142   3.311  14.442  0.3892  0.1334 -0.3157
10319TIP3    H152372   6.059   3.342  14.405 -0.0747 -0.3867  0.2624
10319TIP3    H252373   6.120   3.230  14.487  1.4344 -0.6136 -1.0970
10320TIP3   OH252374   5.585   1.110   1.134  0.1225  0.3270  0.4276
10320TIP3    H152375   5.614   1.021   1.112 -1.5706 -0.0016 -0.6616
10320TIP3    H252376   5.657   1.166   1.107  2.2352 -0.8161  3.2173
10321TIP3   OH252377   4.689   1.862   4.228  0.4885  0.0800  0.0768
10321TIP3    H152378   4.662   1.948   4.196  1.2104  0.1944 -0.2395
10321TIP3    H252379   4.658   1.801   4.161  1.2839  0.2431 -0.4532
10322TIP3   OH252380   1.414   0.008  14.001  0.3061  0.2116 -0.0639
10322TIP3    H152381   1.358   0.084  13.981  1.4792  1.2948  0.5761
10322TIP3    H252382   1.429   0.014  14.095  0.4787 -0.7980 -0.0170
10323TIP3   OH252383   1.190   6.570  13.638  0.1321  0.0772 -0.5437
10323TIP3    H152384   1.280   6.602  13.641  0.2144 -0.0765 -1.1981
10323TIP3    H252385   1.137   6.646  13.662  0.3377  0.6831 -1.9070
10324TIP3   OH252386   3.329   0.954  13.834  0.1528  0.1916  0.0891
10324TIP3    H152387   3.235   0.949  13.854 -0.0111  0.8604 -0.5066
10324TIP3    H252388   3.342   0.889  13.765  0.1319  0.0974  0.1732
10325TIP3   OH252389   3.779   3.344  17.088  0.5218  0.6677  0.2570
10325TIP3    H152390   3.844   3.305  17.029  2.9423  1.6019  2.1059
10325TIP3    H252391   3.723   3.396  17.031  0.6573 -1.0328 -1.5701
10326TIP3   OH252392   3.139   1.831   5.443 -0.6184  0.0876  0.4564
10326TIP3    H152393   3.184   1.785   5.372  1.1590  1.0324  0.9169
10326TIP3    H252394   3.090   1.763   5.488  1.9076 -1.4541  1.1061
10327TIP3   OH252395   6.549   3.928   5.658 -0.5918 -0.0924 -0.1115
10327TIP3    H152396   6.460   3.893   5.660  0.0674 -1.8856 -0.5610
10327TIP3    H252397   6.570   3.936   5.565 -0.0461 -0.3126 -0.0091
10328TIP3   OH252398   5.458   5.427   2.097  0.1841  0.4550  0.1049
10328TIP3    H152399   5.500   5.447   2.181  0.9362  0.6677 -0.3156
10328TIP3    H252400   5.425   5.512   2.066 -0.9039  0.2376  0.5995
10329TIP3   OH252401   2.715   2.860   0.635 -0.3898  0.6387  0.1836
10329TIP3    H152402   2.773   2.935   0.621 -0.0137  0.3530  0.1947
10329TIP3    H252403   2.682   2.871   0.724  0.2116  0.4226  0.4390
10330TIP3   OH252404   0.765   0.073  12.519 -0.5304 -0.0818  0.0202
10330TIP3    H152405   0.834   0.016  12.485 -1.2776 -0.0506 -1.6485
10330TIP3    H252406   0.795   0.162  12.499 -0.5916 -0.0173  0.2146
10331TIP3   OH252407   3.969   1.895   6.515 -0.3388  0.6329  0.0224
10331TIP3    H152408   4.039   1.961   6.512 -1.3124  1.6627 -0.7090
10331TIP3    H252409   3.984   1.849   6.597  0.6062  1.5036  0.3656
10332TIP3   OH252410   3.837   1.130   0.358 -0.1278 -0.3989  0.5571
10332TIP3    H152411   3.854   1.220   0.328  0.6581 -0.7155 -0.0134
10332TIP3    H252412   3.742   1.121   0.356 -0.3035  0.8520  1.9568
10333TIP3   OH252413   0.823   0.125  11.262  0.4726  0.2310  0.0636
10333TIP3    H152414   0.830   0.029  11.270 -1.1767 -0.0899 -1.7097
10333TIP3    H252415   0.737   0.146  11.298 -0.1077  0.7399 -1.5479
10334TIP3   OH252416   4.419   6.168   6.737  0.3922  0.5460 -0.1603
10334TIP3    H152417   4.351   6.224   6.775 -1.5803 -1.6262 -0.2219
10334TIP3    H252418   4.486   6.161   6.805  0.1954  2.1052  0.2291
10335TIP3   OH252419   5.091   6.022   3.254  0.2804 -0.4845 -0.4812
10335TIP3    H152420   5.082   6.099   3.198  1.8067  1.7092  2.0305
10335TIP3    H252421   5.009   6.019   3.304  0.5414  0.0817  0.0022
10336TIP3   OH252422   2.874   2.954  13.307  0.0484 -0.9793  0.2249
10336TIP3    H152423   2.894   2.902  13.229 -1.7911 -1.4398  0.0188
10336TIP3    H252424   2.877   3.044  13.277 -0.2395 -1.1317 -0.2750
10337TIP3   OH252425   2.044   6.702   2.647 -0.3188 -0.4412  0.1065
10337TIP3    H152426   1.997   6.664   2.722  0.9253  0.9196  1.6599
10337TIP3    H252427   1.984   6.769   2.613 -1.5845 -2.1767 -1.2345
10338TIP3   OH252428   5.127   0.439   3.488 -0.5242  0.2590 -0.2389
10338TIP3    H152429   5.084   0.524   3.500  0.0414  0.7834 -1.7619
10338TIP3    H252430   5.077   0.396   3.419 -0.5110 -0.4610  0.1859
10339TIP3   OH252431   6.595   2.411  15.337  0.0292 -0.3588  0.0883
10339TIP3    H152432   6.630   2.365  15.413 -0.3098  0.0821  0.5089
10339TIP3    H252433   6.618   2.354  15.263 -2.4167 -2.4425  0.7852
10340TIP3   OH252434   2.501   5.448   1.052 -0.1607 -0.6214  0.1562
10340TIP3    H152435   2.568   5.418   0.990 -0.6309 -0.7491 -0.3012
10340TIP3    H252436   2.436   5.377   1.052 -0.1071 -0.6760  0.8881
10341TIP3   OH252437   1.723   1.487  13.741  0.2134  0.4254 -0.4299
10341TIP3    H152438   1.781   1.558  13.714  0.6171 -0.5986 -2.4867
10341TIP3    H252439   1.723   1.427  13.666 -1.6452 -0.7765  0.4687
10342TIP3   OH252440   6.293   6.082  11.592 -0.0524  0.1731  0.7742
10342TIP3    H152441   6.211   6.098  11.638 -0.4213  1.4102 -0.2641
10342TIP3    H252442   6.331   6.169  11.578  0.4314 -0.2201 -0.5374
10343TIP3   OH252443   0.277   0.568  14.917  0.5509 -0.4103 -0.0115
10343TIP3    H152444   0.258   0.488  14.967 -1.9153  0.8670  1.3322
10343TIP3    H252445   0.369   0.585  14.932  0.2651 -0.9270  2.9853
10344TIP3   OH252446   4.367   2.241  12.865  0.2032  0.0299  0.2944
10344TIP3    H152447   4.330   2.228  12.952 -0.7752  0.5249 -0.0352
10344TIP3    H252448   4.307   2.197  12.806  1.1580 -0.7840 -0.1027
10345TIP3   OH252449   0.129   5.878   5.134 -0.3386 -0.0442 -0.6765
10345TIP3    H152450   0.162   5.828   5.059  0.3041  2.2180 -1.9858
10345TIP3    H252451   0.140   5.970   5.108 -2.4928  0.8034  1.1641
10346TIP3   OH252452   1.297   1.109  14.182  0.1389 -0.2600  0.2397
10346TIP3    H152453   1.222   1.071  14.136  0.8981 -0.8972 -0.5159
10346TIP3    H252454   1.262   1.135  14.267 -0.9558 -0.4644 -0.1244
10347TIP3   OH252455   5.055   1.394  12.508 -0.3488  0.0357  0.8880
10347TIP3    H152456   5.010   1.310  12.515  0.1909 -0.2030  1.5861
10347TIP3    H252457   5.120   1.381  12.439 -0.2606 -0.1219  1.0006
10348TIP3   OH252458   3.065   1.313  17.319  0.6591  0.0008  0.2462
10348TIP3    H152459   3.145   1.318  17.266 -0.4700  1.1731 -1.4713
10348TIP3    H252460   3.096   1.310  17.409  2.7665 -3.5907 -0.3759
10349TIP3   OH252461   4.924   2.849  13.287  0.6738 -0.7247  0.2827
10349TIP3    H152462   4.835   2.823  13.313 -0.0934  1.0062 -0.4811
10349TIP3    H252463   4.946   2.788  13.216 -1.5650  1.1972 -2.2935
10350TIP3   OH252464   6.522   2.491   2.755 -0.4083 -0.0582  0.0623
10350TIP3    H152465   6.596   2.463   2.701  1.7528  0.7161  2.4420
10350TIP3    H252466   6.482   2.410   2.786  0.2499 -0.4975 -0.2224
10351TIP3   OH252467   3.320   4.567  14.664  0.6540  0.2772  0.6662
10351TIP3    H152468   3.370   4.588  14.585 -0.5512 -0.5057 -0.3525
10351TIP3    H252469   3.298   4.652  14.703 -0.1516  0.7584 -0.7717
10352TIP3   OH252470   1.639   6.501  11.450  0.5912  0.2646 -0.3264
10352TIP3    H152471   1.651   6.412  11.484 -3.3190  0.6506  2.7571
10352TIP3    H252472   1.639   6.490  11.355 -0.2141 -3.1457 -0.0616
10353TIP3   OH252473   2.241   5.137   5.816  0.4868 -0.2687  0.1701
10353TIP3    H152474   2.273   5.139   5.906  2.2985 -1.4931 -0.3887
10353TIP3    H252475   2.306   5.085   5.768 -0.4708  0.2622 -1.8348
10354TIP3   OH252476   0.334   2.912  11.799  0.0789 -0.5335 -0.2923
10354TIP3    H152477   0.329   2.874  11.887  1.2106  1.1308  0.5427
10354TIP3    H252478   0.383   2.993  11.811 -0.2339  0.0126 -2.3893
10355TIP3   OH252479   0.137   0.164  17.129  0.1855  0.2959  0.2179
10355TIP3    H152480   0.070   0.151  17.197  0.7633  1.0242  0.9468
10355TIP3    H252481   0.140   0.259  17.115  0.9079  0.2561  0.0386
10356TIP3   OH252482   4.149   2.167  15.692  0.5040  0.1684 -0.2791
10356TIP3    H152483   4.243   2.183  15.686  0.6230 -0.5559 -0.4999
10356TIP3    H252484   4.142   2.072  15.706 -0.1995  0.1878 -0.4656
10357TIP3   OH252485   3.919   5.112   1.883 -0.5827  0.2640 -0.7830
10357TIP3    H152486   3.884   5.200   1.886 -1.2754 -0.0030 -0.9166
10357TIP3    H252487   3.872   5.069   1.812 -1.5894 -0.7740  0.4530
10358TIP3   OH252488   2.610   4.814  13.143 -0.5957  0.1304  0.3334
10358TIP3    H152489   2.641   4.864  13.219  2.3409 -0.8889 -0.0562
10358TIP3    H252490   2.585   4.729  13.179 -0.0088 -0.0711  0.2664
10359TIP3   OH252491   2.748   0.202  14.038 -0.1812 -0.2624 -0.3278
10359TIP3    H152492   2.701   0.191  14.121 -0.7709  1.3775 -0.3983
10359TIP3    H252493   2.678   0.216  13.973  0.2631 -1.7542 -1.1613
10360TIP3   OH252494   6.190   3.667  11.959  0.5275  0.0384  1.0339
10360TIP3    H152495   6.114   3.708  11.917  1.0628  1.4006  1.3556
10360TIP3    H252496   6.217   3.598  11.897 -0.9879 -0.5111  0.9548
10361TIP3   OH252497   1.009   5.445   4.220 -0.3268 -0.0457 -0.2985
10361TIP3    H152498   0.921   5.465   4.186  0.1456  1.4798 -0.6966
10361TIP3    H252499   1.068   5.470   4.148  0.5401  0.8227  0.6797
10362TIP3   OH252500   1.603   2.699   1.367  0.1478 -0.4051  0.2493
10362TIP3    H152501   1.549   2.773   1.393  1.2882  0.2278  0.9354
10362TIP3    H252502   1.544   2.625   1.363 -1.0337  0.5419 -0.4785
10363TIP3   OH252503   5.949   5.549  17.396 -0.1561  0.1621 -0.4393
10363TIP3    H152504   5.919   5.544  17.305 -1.8071 -0.6851  0.1012
10363TIP3    H252505   5.949   5.642  17.417 -0.0331  0.3457 -1.2321
10364TIP3   OH252506   1.112   6.151   3.119 -0.4057 -0.3086 -0.3925
10364TIP3    H152507   1.095   6.106   3.202  0.9673 -0.6802 -0.2812
10364TIP3    H252508   1.076   6.092   3.052 -0.0013 -0.8355 -0.1538
10365TIP3   OH252509   1.274   3.866   0.787  0.1086 -0.2983 -0.4317
10365TIP3    H152510   1.261   3.905   0.874 -0.4831  0.0133 -0.6525
10365TIP3    H252511   1.207   3.798   0.781  2.0523 -2.4243  0.5273
10366TIP3   OH252512   0.068   5.209   3.927  0.0100 -0.1238 -0.1783
10366TIP3    H152513   0.043   5.272   3.859 -0.2470 -0.5012 -0.4385
10366TIP3    H252514   0.058   5.124   3.885  0.3962 -0.3378  0.1585
10367TIP3   OH252515   5.117   5.141   5.782 -0.2676  0.2168  0.4030
10367TIP3    H152516   5.035   5.171   5.821 -0.4054 -0.2189  0.4559
10367TIP3    H252517   5.090   5.081   5.713  0.0089  0.0034  0.4791
10368TIP3   OH252518   6.718   2.894   2.381 -0.4139 -0.0159  0.0435
10368TIP3    H152519   6.800   2.940   2.368 -0.2316  0.4618  2.4486
10368TIP3    H252520   6.688   2.873   2.292  1.3429  1.4263 -0.9635
10369TIP3   OH252521   5.630   0.628  13.353 -0.6675  0.4344 -0.4684
10369TIP3    H152522   5.629   0.568  13.428 -2.9964 -0.5110 -1.1643
10369TIP3    H252523   5.648   0.714  13.392 -0.0913 -0.2762  0.9295
10370TIP3   OH252524   6.429   4.171   0.366 -0.2339 -0.2271  0.5805
10370TIP3    H152525   6.510   4.221   0.358 -0.7529  0.5734  0.1495
10370TIP3    H252526   6.436   4.126   0.450  0.0408  0.9738  1.2099
10371TIP3   OH252527   0.717   3.476  14.064  0.1744 -0.2370  0.5040
10371TIP3    H152528   0.752   3.441  13.983  0.3062 -0.9794  0.8763
10371TIP3    H252529   0.780   3.451  14.131 -0.0358  0.1916  0.8717
10372TIP3   OH252530   0.268   6.732   3.776 -0.6351 -0.2310  0.2376
10372TIP3    H152531   0.279   6.659   3.836 -0.8760  0.6528  1.3856
10372TIP3    H252532   0.346   6.786   3.788  0.7246 -1.4249 -2.3187
10373TIP3   OH252533   5.414   4.802  11.838 -0.2199 -0.4695  0.0322
10373TIP3    H152534   5.408   4.761  11.752 -0.3889 -2.3265  0.8840
10373TIP3    H252535   5.503   4.837  11.842 -0.0597 -0.7832 -0.7048
10374TIP3   OH252536   3.433   1.825  15.382  0.4289 -0.2332 -0.0627
10374TIP3    H152537   3.495   1.818  15.454 -1.0193  1.5837  1.4825
10374TIP3    H252538   3.419   1.919  15.372 -0.6957 -0.5290 -1.5792
10375TIP3   OH252539   4.704   0.948   0.498 -0.0465 -0.0867 -0.2335
10375TIP3    H152540   4.639   0.888   0.535 -0.1974 -1.1841 -2.1521
10375TIP3    H252541   4.685   1.032   0.541 -1.4454 -0.8315  0.7019
10376TIP3   OH252542   2.435   3.578   5.892 -0.6579 -0.1768 -0.4167
10376TIP3    H152543   2.435   3.506   5.955  0.1339 -1.0972 -1.4212
10376TIP3    H252544   2.385   3.545   5.818 -0.3690  0.3435 -0.8520
10377TIP3   OH252545   0.625   5.690  12.946  0.0816  0.8766 -0.1252
10377TIP3    H152546   0.584   5.775  12.955  0.6541  1.1627 -0.1635
10377TIP3    H252547   0.678   5.680  13.025 -0.9222  0.0217  0.4612
10378TIP3   OH252548   1.304   0.439  16.338  0.1637  0.0255 -0.5843
10378TIP3    H152549   1.323   0.490  16.417  2.7740  0.3562 -1.3412
10378TIP3    H252550   1.268   0.503  16.276 -1.5806 -0.1721  0.1670
10379TIP3   OH252551   5.623   1.357  13.350  0.1500  0.5169 -0.5758
10379TIP3    H152552   5.614   1.272  13.309  0.1637 -0.3751  1.1741
10379TIP3    H252553   5.702   1.349  13.404 -1.4881  0.5563  1.9800
10380TIP3   OH252554   2.398   4.546  17.050  0.1567 -0.2791  0.2723
10380TIP3    H152555   2.330   4.528  17.115 -1.7985  2.3030 -0.8547
10380TIP3    H252556   2.373   4.494  16.974 -0.6470  0.6660 -0.1395
10381TIP3   OH252557   5.841   5.787   4.600  0.2161  0.0956 -0.2249
10381TIP3    H152558   5.833   5.842   4.678 -2.3760  1.0446 -1.0448
10381TIP3    H252559   5.916   5.823   4.553  1.7819 -0.4516  1.7448
10382TIP3   OH252560   5.559   5.592  15.618 -0.3075 -1.0113 -0.4129
10382TIP3    H152561   5.538   5.503  15.591  0.6139 -1.8138  1.2845
10382TIP3    H252562   5.655   5.597  15.612 -0.2300 -0.6219  0.7593
10383TIP3   OH252563   2.550   3.876   0.090 -0.5283 -0.2398  0.3203
10383TIP3    H152564   2.516   3.819   0.159 -2.5671  0.4502 -0.0541
10383TIP3    H252565   2.484   3.944   0.081  1.2760  1.5271 -0.0903
10384TIP3   OH252566   5.276   0.761  11.070  0.4747 -0.2227  0.0786
10384TIP3    H152567   5.283   0.745  10.976  0.3037 -0.5131  0.1142
10384TIP3    H252568   5.366   0.777  11.099  0.2768  2.6629 -0.6091
10385TIP3   OH252569   6.474   2.417   2.342 -0.3168  0.0314  0.2834
10385TIP3    H152570   6.458   2.479   2.271 -0.0838  0.4761  0.6131
10385TIP3    H252571   6.387   2.392   2.373 -0.5668 -2.2276 -1.8807
10386TIP3   OH252572   0.707   5.452  17.307  0.3560 -0.0135  0.3625
10386TIP3    H152573   0.792   5.425  17.339  0.3018  0.4768  0.9520
10386TIP3    H252574   0.724   5.533  17.258  0.5047 -0.9942 -1.2984
10387TIP3   OH252575   1.368   4.005  15.212  0.1838 -0.2699  0.0583
10387TIP3    H152576   1.369   4.026  15.118 -0.0557 -1.6463 -0.2783
10387TIP3    H252577   1.290   4.049  15.246 -0.4016 -0.7434 -0.6469
10388TIP3   OH252578   2.923   0.162   2.269 -0.0671  0.6017  0.4436
10388TIP3    H152579   2.934   0.183   2.176 -0.8099 -2.2882 -0.3999
10388TIP3    H252580   2.913   0.247   2.312  0.5853  2.0415 -2.0556
10389TIP3   OH252581   3.193   4.161  11.262 -0.1613  0.0669 -0.5396
10389TIP3    H152582   3.147   4.086  11.225 -0.8172  0.6393 -0.9024
10389TIP3    H252583   3.255   4.187  11.194  0.3281 -0.3603 -0.2681
10390TIP3   OH252584   5.915   4.075  13.867 -0.1719  0.0693 -0.2600
10390TIP3    H152585   5.858   4.149  13.888 -1.2680 -0.9624  0.5788
10390TIP3    H252586   5.928   4.080  13.773 -1.6005  0.3961 -0.4653
10391TIP3   OH252587   4.201   4.450   6.319 -0.1344 -0.1185  0.0473
10391TIP3    H152588   4.165   4.495   6.396 -1.3560  1.2188 -1.2406
10391TIP3    H252589   4.124   4.427   6.267  0.5526 -2.5808  0.0004
10392TIP3   OH252590   3.422   2.986  11.937 -0.3045 -0.2305 -0.3493
10392TIP3    H152591   3.484   2.929  11.892  0.4390 -1.8924  2.5541
10392TIP3    H252592   3.338   2.942  11.927 -0.0950 -0.7383  0.0690
10393TIP3   OH252593   2.045   0.653  12.550  0.0934 -0.4241  0.0753
10393TIP3    H152594   2.019   0.736  12.510  3.0625  0.2949 -0.6250
10393TIP3    H252595   2.063   0.674  12.641 -0.6358 -0.6752  0.2856
10394TIP3   OH252596   6.437   2.843  13.340  0.0602 -0.2926 -0.2438
10394TIP3    H152597   6.471   2.932  13.335  2.5530 -1.2139 -1.2067
10394TIP3    H252598   6.351   2.848  13.298  0.9390  1.3372 -2.0322
10395TIP3   OH252599   2.217   2.873  16.724  0.3700  0.9623  0.0239
10395TIP3    H152600   2.225   2.779  16.705 -1.3296  0.9347 -0.7826
10395TIP3    H252601   2.293   2.912  16.682  0.9304 -0.0294  0.0845
10396TIP3   OH252602   3.913   2.950  16.230 -0.5673  0.0985  0.6666
10396TIP3    H152603   3.854   2.987  16.164 -1.7150  0.2157  1.7109
10396TIP3    H252604   3.898   3.004  16.308  2.5926  1.6162  0.4081
10397TIP3   OH252605   2.971   5.652  11.928 -0.1580  0.1949  0.5630
10397TIP3    H152606   2.986   5.557  11.925  2.0842  0.3691  2.7154
10397TIP3    H252607   2.893   5.661  11.983  0.2909 -0.4106  1.3327
10398TIP3   OH252608   1.810   4.885   3.575 -0.4435  0.1538  0.7965
10398TIP3    H152609   1.821   4.948   3.504 -0.1231  0.6678  1.2884
10398TIP3    H252610   1.848   4.929   3.652 -1.8914  0.1066  1.5613
10399TIP3   OH252611   0.538   6.268   0.313  0.3459  0.1409  0.1396
10399TIP3    H152612   0.551   6.275   0.219  2.7517  0.6489  0.4548
10399TIP3    H252613   0.600   6.201   0.341 -0.6193 -0.3000  1.3361
10400TIP3   OH252614   6.494   3.129   1.563  0.1163 -0.0059 -0.4812
10400TIP3    H152615   6.454   3.204   1.608  2.0964  2.3012 -2.3195
10400TIP3    H252616   6.509   3.065   1.633 -0.6084  1.7527  1.3947
10401TIP3   OH252617   0.587   2.340  15.922 -0.0974 -0.0329 -0.5480
10401TIP3    H152618   0.660   2.290  15.886  0.1971  0.7109 -0.9856
10401TIP3    H252619   0.605   2.431  15.898 -0.5182  0.3256  0.4221
10402TIP3   OH252620   1.808   5.327  16.088  0.2938 -0.0587  0.4303
10402TIP3    H152621   1.736   5.295  16.035  0.3920  0.3003  0.0735
10402TIP3    H252622   1.767   5.353  16.171 -0.1479  1.0788 -0.1308
10403TIP3   OH252623   1.172   5.488  14.400  0.5270 -0.1181  0.1669
10403TIP3    H152624   1.158   5.403  14.359  0.5220  1.3954 -3.4187
10403TIP3    H252625   1.224   5.537  14.336  1.6026  2.2027  2.6178
10404TIP3   OH252626   2.844   0.035  15.396  0.5912 -0.6995 -0.2507
10404TIP3    H152627   2.929   0.078  15.406  0.5315 -0.4496 -0.7797
10404TIP3    H252628   2.782   0.107  15.384 -0.2315 -0.6371  3.2615
10405TIP3   OH252629   2.372   5.307   6.072  0.0015 -0.1550 -0.2551
10405TIP3    H152630   2.313   5.374   6.038  0.8005  0.4412 -0.5005
10405TIP3    H252631   2.344   5.294   6.163  0.3785  1.1656  0.0689
10406TIP3   OH252632   3.115   4.026  12.665  0.5907  0.3237 -0.1635
10406TIP3    H152633   3.147   4.108  12.704 -0.3248  0.5848  0.0531
10406TIP3    H252634   3.025   4.046  12.638  0.4158 -0.5667 -0.2517
10407TIP3   OH252635   4.102   4.918  12.719  0.2322  0.0824 -0.2945
10407TIP3    H152636   4.092   4.956  12.806 -0.7653  2.0640 -1.2193
10407TIP3    H252637   4.035   4.849  12.717 -1.6499  1.8019 -0.3558
10408TIP3   OH252638   6.653   0.531  16.169  0.1207 -0.5794  0.0039
10408TIP3    H152639   6.699   0.501  16.247  0.2215 -3.0074 -0.8972
10408TIP3    H252640   6.561   0.531  16.193 -0.0442 -3.3383 -0.4000
10409TIP3   OH252641   1.729   2.163   3.096  0.5385 -0.0052 -0.3938
10409TIP3    H152642   1.791   2.090   3.103  1.3017  0.7776  2.0417
10409TIP3    H252643   1.779   2.239   3.123 -1.0046  0.9781 -0.2065
10410TIP3   OH252644   1.490   0.778  12.663 -0.3353 -0.7241  0.3974
10410TIP3    H152645   1.524   0.862  12.693  1.8161 -1.0277 -0.9501
10410TIP3    H252646   1.458   0.735  12.742 -2.3958  1.6968  0.9941
10411TIP3   OH252647   1.392   2.078  16.028 -0.0366 -0.0393  0.1183
10411TIP3    H152648   1.329   2.008  16.046 -0.4807  0.1711 -0.5668
10411TIP3    H252649   1.338   2.150  15.993  0.4111  0.6506  0.8286
10412TIP3   OH252650   3.131   6.667   2.155 -0.5402 -0.0670  0.5017
10412TIP3    H152651   3.053   6.719   2.175 -0.4984  1.6893 -3.1335
10412TIP3    H252652   3.191   6.728   2.113  1.2650 -2.1868 -0.2020
10413TIP3   OH252653   2.796   3.152  14.330  0.0809  0.1341 -0.5334
10413TIP3    H152654   2.713   3.144  14.377  0.3080 -1.5060 -0.3540
10413TIP3    H252655   2.819   3.062  14.306  3.4606 -0.0360  2.3475
10414TIP3   OH252656   1.557   3.475  16.208  0.1576  0.0745 -0.2074
10414TIP3    H152657   1.517   3.400  16.163  0.4106 -0.0244 -0.2702
10414TIP3    H252658   1.484   3.519  16.251 -0.4466  1.3948 -2.4405
10415TIP3   OH252659   3.488   6.354   5.410  0.8640  0.6077 -0.2805
10415TIP3    H152660   3.457   6.445   5.418  2.0428  0.9094  1.5966
10415TIP3    H252661   3.581   6.362   5.388  0.1685 -0.2633 -4.2821
10416TIP3   OH252662   0.527   4.229  17.057  0.4557 -0.0483  0.0044
10416TIP3    H152663   0.502   4.320  17.076 -0.1872 -0.1457 -0.3677
10416TIP3    H252664   0.609   4.217  17.105  1.4488  1.2551 -1.2752
10417TIP3   OH252665   2.390   6.352  16.656 -0.1657 -0.0163 -0.0152
10417TIP3    H152666   2.395   6.413  16.582 -1.1655 -0.8345 -0.7792
10417TIP3    H252667   2.300   6.359  16.687 -0.3131 -1.1582 -0.1607
10418TIP3   OH252668   0.657   1.308  12.835  0.2198 -0.1759 -0.0834
10418TIP3    H152669   0.621   1.394  12.860 -0.9461 -0.4943 -0.6069
10418TIP3    H252670   0.733   1.330  12.780  0.3021  0.5237  0.2947
10419TIP3   OH252671   2.608   2.657  13.358 -0.1312 -0.1528 -0.6585
10419TIP3    H152672   2.672   2.704  13.411 -0.5700 -1.5462  1.2036
10419TIP3    H252673   2.568   2.595  13.418 -1.0673 -1.4457 -2.5167
10420TIP3   OH252674   5.253   0.199  14.167  0.0236 -0.0177  0.0055
10420TIP3    H152675   5.160   0.204  14.186  0.1477 -0.9264  0.9261
10420TIP3    H252676   5.285   0.289  14.180 -1.0507  0.7971 -2.3772
10421TIP3   OH252677   5.647   1.136   4.176 -0.5174  0.1145 -0.1408
10421TIP3    H152678   5.611   1.204   4.233 -0.3643 -0.1573  0.2765
10421TIP3    H252679   5.577   1.120   4.112 -0.5661  0.6396 -0.2219
10422TIP3   OH252680   3.380   0.889   4.902 -0.0691 -0.2756  0.3334
10422TIP3    H152681   3.345   0.818   4.956 -0.6133  1.6056  2.5926
10422TIP3    H252682   3.307   0.914   4.845 -0.8117  0.3072  1.5118
10423TIP3   OH252683   6.267   1.680  14.170 -0.2060  0.4144  0.3226
10423TIP3    H152684   6.246   1.771  14.149  0.0391  0.3700 -0.1227
10423TIP3    H252685   6.226   1.629  14.100 -1.2947  0.0929  1.1729
10424TIP3   OH252686   1.882   0.529  11.125  0.1972  0.5591  0.3707
10424TIP3    H152687   1.938   0.493  11.057  0.7515 -0.4630  1.3359
10424TIP3    H252688   1.796   0.537  11.084  0.3943 -0.5655 -0.2791
10425TIP3   OH252689   5.861   1.627   6.168  0.2326  0.3704  0.1320
10425TIP3    H152690   5.772   1.590   6.161  1.1292 -2.1310  0.7935
10425TIP3    H252691   5.863   1.668   6.254 -0.6864  1.7339 -0.4651
10426TIP3   OH252692   2.744   4.432  14.181  0.9033 -0.6652  0.0226
10426TIP3    H152693   2.824   4.381  14.186  1.3577  0.1034  0.9987
10426TIP3    H252694   2.679   4.380  14.228  1.7099  0.2132  2.2500
10427TIP3   OH252695   5.624   3.113  16.896  0.1634  0.8753  0.2683
10427TIP3    H152696   5.539   3.154  16.884 -0.3689 -0.0922  0.5865
10427TIP3    H252697   5.629   3.048  16.826  0.5151  0.7386  0.4204
10428TIP3   OH252698   2.033   4.976  14.916 -0.4480  0.1854  0.2850
10428TIP3    H152699   2.025   5.060  14.871  2.7940  0.2862 -0.3906
10428TIP3    H252700   2.075   4.998  15.000 -2.3357 -0.4976  1.4763
10429TIP3   OH252701   4.207   2.756   0.595  0.0576  0.6605 -0.1241
10429TIP3    H152702   4.260   2.824   0.553  1.3520  0.4012  1.0165
10429TIP3    H252703   4.266   2.716   0.659 -1.2148 -0.3591  0.4518
10430TIP3   OH252704   5.055   3.564   3.148  0.5205 -0.6452 -0.4030
10430TIP3    H152705   5.027   3.531   3.233 -1.8715  0.8931 -0.4857
10430TIP3    H252706   5.029   3.495   3.086  1.0891 -1.2053 -0.0260
10431TIP3   OH252707   3.303   4.571  17.136  0.3231  0.2046  0.1556
10431TIP3    H152708   3.260   4.555  17.051  1.8211 -0.6991 -0.4645
10431TIP3    H252709   3.233   4.605  17.192 -1.0862 -0.7604 -0.9510
10432TIP3   OH252710   6.685   6.557   4.191 -0.4198 -0.0474 -0.3194
10432TIP3    H152711   6.752   6.566   4.259 -0.1802  2.6105 -0.8029
10432TIP3    H252712   6.611   6.607   4.224 -1.1290 -0.5761 -1.0761
10433TIP3   OH252713   0.101   2.967  14.404 -0.2841  0.1375 -0.0056
10433TIP3    H152714   0.101   3.026  14.329  0.0674  0.3148  0.1336
10433TIP3    H252715   0.167   2.901  14.383 -1.1090 -0.5719 -0.4411
10434TIP3   OH252716   4.731   5.899  12.589 -0.3193 -0.0952  0.5096
10434TIP3    H152717   4.821   5.928  12.574 -0.0257 -1.4263 -0.5017
10434TIP3    H252718   4.678   5.978  12.578  0.5144  0.2670 -1.3091
10435TIP3   OH252719   3.171   4.687   3.146  0.0615 -0.2591 -0.4284
10435TIP3    H152720   3.184   4.732   3.229 -1.0954  0.0751 -0.4191
10435TIP3    H252721   3.206   4.599   3.160 -1.2670 -0.6171  0.8313
10436TIP3   OH252722   4.588   4.228   2.866 -0.0046  0.2618 -0.2329
10436TIP3    H152723   4.573   4.137   2.889 -2.0489 -0.3779 -3.5380
10436TIP3    H252724   4.505   4.272   2.886  0.0462  0.7936 -1.1262
10437TIP3   OH252725   0.290   3.600   3.344  0.0072  0.1132  0.1106
10437TIP3    H152726   0.294   3.683   3.295  0.1733 -0.0772 -0.2033
10437TIP3    H252727   0.233   3.619   3.419  0.7958  0.7732  0.5513
10438TIP3   OH252728   5.713   0.998  15.373  0.0132  0.4707 -0.3947
10438TIP3    H152729   5.646   0.941  15.411  0.2526  0.5078  0.0938
10438TIP3    H252730   5.791   0.943  15.368 -0.2224  0.2116 -1.6141
10439TIP3   OH252731   1.629   3.311   1.062  0.5116  0.0529 -0.1291
10439TIP3    H152732   1.652   3.218   1.071  1.2786  0.2536  0.0671
10439TIP3    H252733   1.687   3.342   0.992  0.9146  0.6048  0.4502
10440TIP3   OH252734   6.581   6.687  16.066 -0.3693  0.3755  0.2126
10440TIP3    H152735   6.569   6.753  16.134  0.8646 -0.0821  0.8986
10440TIP3    H252736   6.675   6.686  16.050 -0.4869 -0.5318 -0.4881
10441TIP3   OH252737   6.528   1.905   5.384  0.0341  0.3057 -0.1597
10441TIP3    H152738   6.459   1.924   5.321 -1.5074  1.8268  1.8952
10441TIP3    H252739   6.519   1.972   5.452  1.4147 -1.4156  1.8581
10442TIP3   OH252740   6.202   6.622   4.358 -0.3734 -0.2680 -0.2703
10442TIP3    H152741   6.221   6.697   4.416  0.4602 -0.6865  0.0122
10442TIP3    H252742   6.181   6.662   4.274 -0.3630  0.3023 -0.0096
10443TIP3   OH252743   6.249   2.445   2.130 -0.4307  0.0919 -0.2437
10443TIP3    H152744   6.181   2.385   2.102 -0.3523 -0.7914  1.3248
10443TIP3    H252745   6.331   2.405   2.100 -0.1996 -1.7331  2.4630
10444TIP3   OH252746   0.947   3.990   4.174  0.1282 -0.0581  0.3297
10444TIP3    H152747   0.930   3.931   4.100 -0.4858  1.3300 -0.6707
10444TIP3    H252748   0.865   3.991   4.223 -0.4653  1.2901 -0.6407
10445TIP3   OH252749   6.384   6.232  16.756 -0.0870  0.1004  0.0668
10445TIP3    H152750   6.417   6.319  16.780 -0.8738  0.4471 -0.0758
10445TIP3    H252751   6.412   6.175  16.828  0.2826  0.5013  0.2465
10446TIP3   OH252752   0.992   2.478   4.029 -0.2191 -0.3474 -0.1386
10446TIP3    H152753   1.078   2.456   4.064 -0.2118 -0.1405 -0.0251
10446TIP3    H252754   1.001   2.466   3.934 -0.3364 -1.2264 -0.0475
10447TIP3   OH252755   1.398   3.309   0.480  0.0036  0.6789 -0.7792
10447TIP3    H152756   1.480   3.259   0.478  1.6485  3.1755 -0.3515
10447TIP3    H252757   1.330   3.246   0.456  2.0826 -1.4141 -1.4591
10448TIP3   OH252758   4.871   3.418   0.190 -0.0884 -0.2044 -0.1086
10448TIP3    H152759   4.885   3.446   0.281 -1.7474  0.8997 -0.1302
10448TIP3    H252760   4.900   3.493   0.138 -0.1465 -0.3988 -0.4164
10449TIP3   OH252761   1.895   6.050  13.340 -0.5418 -0.3941 -0.1206
10449TIP3    H152762   1.832   6.044  13.412  1.3655  0.6613  1.7562
10449TIP3    H252763   1.869   6.128  13.291 -0.3763  0.3983  1.0160
10450TIP3   OH252764   1.860   2.172   5.082  0.4127 -0.0772  0.1978
10450TIP3    H152765   1.872   2.080   5.105 -0.4847 -0.1988  0.2440
10450TIP3    H252766   1.915   2.185   5.004  1.2256 -0.4126  0.7054
10451TIP3   OH252767   4.451   3.353  16.623  0.1578 -0.2664 -0.1261
10451TIP3    H152768   4.535   3.312  16.642  0.6801  0.0724 -1.5950
10451TIP3    H252769   4.419   3.383  16.709  0.7006 -1.9055  0.7054
10452TIP3   OH252770   0.639   4.651   1.187  0.5988  0.9812  0.1073
10452TIP3    H152771   0.641   4.602   1.269  1.7073 -1.7773 -1.4353
10452TIP3    H252772   0.579   4.602   1.131 -1.1808  3.5523 -0.4085
10453TIP3   OH252773   6.240   6.694  13.334 -0.1690 -0.0465  0.0176
10453TIP3    H152774   6.263   6.669  13.244  1.3112  0.6176  0.1818
10453TIP3    H252775   6.280   6.780  13.345 -0.2247 -0.1830  1.3655
10454TIP3   OH252776   0.944   5.061  15.590 -0.2235  0.2799  0.7168
10454TIP3    H152777   0.912   4.989  15.536 -1.0639  0.9442  0.3093
10454TIP3    H252778   0.892   5.137  15.563 -1.5543  0.4106  3.2829
10455TIP3   OH252779   0.971   3.090   1.373  0.5971 -0.7963 -0.3910
10455TIP3    H152780   1.002   3.174   1.408 -3.2182  0.4988  0.3539
10455TIP3    H252781   1.027   3.025   1.414  0.6066  1.1027  2.9630
10456TIP3   OH252782   6.597   5.578  16.808  0.2536  0.5833 -0.9180
10456TIP3    H152783   6.655   5.649  16.835  0.4606 -0.0437  0.3570
10456TIP3    H252784   6.655   5.503  16.794 -0.2935 -0.4939  1.8787
10457TIP3   OH252785   1.172   5.056   3.337 -0.2470 -0.4735  0.3135
10457TIP3    H152786   1.089   5.032   3.296 -0.7432 -1.2030  1.6493
10457TIP3    H252787   1.230   5.077   3.265 -1.4582 -0.4004 -0.6754
10458TIP3   OH252788   4.426   5.968   1.325  0.3785  0.0200  0.6886
10458TIP3    H152789   4.358   5.902   1.312 -0.4664  0.7176  1.3904
10458TIP3    H252790   4.379   6.046   1.355  1.0580  1.7296 -2.2573
10459TIP3   OH252791   4.317   3.272   4.988  0.0198 -0.1663 -1.1206
10459TIP3    H152792   4.259   3.254   5.061  0.9549  0.0403 -0.2964
10459TIP3    H252793   4.400   3.231   5.013  0.8196  1.2658 -1.3100
10460TIP3   OH252794   5.041   5.872   0.820 -0.7584 -0.2990  0.6927
10460TIP3    H152795   4.949   5.894   0.804  0.1800  1.8121 -2.9323
10460TIP3    H252796   5.085   5.957   0.827  1.1251 -1.2225  0.5802
10461TIP3   OH252797   1.423   0.201   3.854 -0.2139 -0.2195  0.2131
10461TIP3    H152798   1.383   0.264   3.915  0.5877  2.3256 -1.7085
10461TIP3    H252799   1.357   0.133   3.843 -1.2056  0.3172  2.2666
10462TIP3   OH252800   6.355   3.159  14.275  0.0727 -0.4089 -0.2162
10462TIP3    H152801   6.298   3.174  14.351  1.0953  0.9852  0.3154
10462TIP3    H252802   6.297   3.169  14.199 -0.6385 -0.1969  0.3420
10463TIP3   OH252803   0.988   0.028  16.551 -0.0051 -1.0671  0.2785
10463TIP3    H152804   0.942   0.110  16.567 -0.3525 -1.4377  1.2570
10463TIP3    H252805   0.951  -0.005  16.469 -0.5635 -0.7314  0.3931
10464TIP3   OH252806   4.104   3.600   6.329  0.4538  0.1807  0.0766
10464TIP3    H152807   4.152   3.517   6.333  1.1368  0.6047  1.1637
10464TIP3    H252808   4.170   3.664   6.302  0.2932  0.6109  0.6873
10465TIP3   OH252809   2.456   4.894   1.604  0.2874 -0.4492  0.3784
10465TIP3    H152810   2.457   4.989   1.610  1.9340 -0.1141 -3.0598
10465TIP3    H252811   2.382   4.873   1.547  1.4755 -0.9255 -1.0679
10466TIP3   OH252812   6.702   6.301   5.521  0.3759  0.2866  0.2227
10466TIP3    H152813   6.720   6.222   5.471 -0.1752  0.4436 -0.2274
10466TIP3    H252814   6.616   6.286   5.560 -0.8666  1.6319 -1.8346
10467TIP3   OH252815   5.375   5.495  12.823 -0.2871 -0.1158  0.1237
10467TIP3    H152816   5.348   5.587  12.828  0.0340 -0.0231  0.1419
10467TIP3    H252817   5.448   5.488  12.884 -0.6005 -0.4923  0.4633
10468TIP3   OH252818   2.432   1.703   3.412  0.3566  0.1297  0.3469
10468TIP3    H152819   2.517   1.661   3.398  0.0148 -0.7877  0.9454
10468TIP3    H252820   2.380   1.637   3.458 -0.3745  1.0185  0.8259
10469TIP3   OH252821   3.442   1.576   1.088 -0.8023 -0.0275  0.7315
10469TIP3    H152822   3.510   1.584   1.022 -2.3446 -2.5073 -1.3272
10469TIP3    H252823   3.371   1.632   1.057 -1.7349 -1.5918 -0.1179
10470TIP3   OH252824   4.381   4.878  12.288 -0.1953 -0.1542  0.2077
10470TIP3    H152825   4.327   4.823  12.231  0.3860 -0.1812 -0.3404
10470TIP3    H252826   4.470   4.868  12.252  0.0216  0.5951  0.5250
10471TIP3   OH252827   1.466   3.522   0.797  0.2724  0.1347  0.4559
10471TIP3    H152828   1.538   3.560   0.847  0.8340  0.0194 -0.2565
10471TIP3    H252829   1.457   3.580   0.721 -1.6351  1.2617  1.4555
10472TIP3   OH252830   4.003   6.721   3.976  0.1334  0.2710 -0.1941
10472TIP3    H152831   3.908   6.727   3.965  0.4192  1.6851 -2.8182
10472TIP3    H252832   4.036   6.699   3.889  2.1982 -0.9314  0.8144
10473TIP3   OH252833   3.024   3.709  11.729 -0.2926  0.1876 -0.3563
10473TIP3    H152834   3.113   3.706  11.764  0.1518 -0.9799 -1.4792
10473TIP3    H252835   3.036   3.715  11.634 -1.4420  2.6045 -0.4301
10474TIP3   OH252836   5.454   3.879   3.219  0.0535  0.2462 -0.2666
10474TIP3    H152837   5.382   3.940   3.234  0.3693  0.5281  0.1495
10474TIP3    H252838   5.450   3.819   3.294 -1.3248 -1.3440 -1.5308
10475TIP3   OH252839   2.522   2.583   0.794  0.5359  0.0572 -0.4991
10475TIP3    H152840   2.437   2.547   0.770 -0.2068  0.8940  0.7732
10475TIP3    H252841   2.507   2.677   0.803  1.6402  0.2437 -0.4625
10476TIP3   OH252842   2.151   1.528   2.432 -0.6719 -0.2265 -0.2955
10476TIP3    H152843   2.174   1.619   2.416  1.3476 -1.1200 -3.4892
10476TIP3    H252844   2.211   1.498   2.499 -1.6469  0.8274  1.1004
10477TIP3   OH252845   5.875   2.551   4.205  0.5349  0.1707 -0.1305
10477TIP3    H152846   5.928   2.576   4.129  0.1668  2.3840  0.2913
10477TIP3    H252847   5.926   2.578   4.281  1.1100 -2.4460  0.5215
10478TIP3   OH252848   1.331   3.277   6.754  0.0105 -0.2230 -0.5586
10478TIP3    H152849   1.422   3.303   6.739 -0.2269  2.6469  2.0028
10478TIP3    H252850   1.334   3.183   6.769  2.2428 -0.4980 -2.2769
10479TIP3   OH252851   3.696   5.787  14.945 -0.9231 -0.7335 -0.5046
10479TIP3    H152852   3.633   5.856  14.926 -0.3561 -0.0745 -0.0519
10479TIP3    H252853   3.769   5.832  14.988 -1.6067 -1.9378  2.1444
10480TIP3   OH252854   5.957   1.646  12.026 -0.6914  0.0434  0.0483
10480TIP3    H152855   6.047   1.614  12.032 -1.7682 -3.2236  0.9573
10480TIP3    H252856   5.923   1.608  11.944 -1.5706  0.2410  0.3060
10481TIP3   OH252857   4.030   1.503  14.157 -0.2115  0.3263 -0.0865
10481TIP3    H152858   3.965   1.556  14.202  0.7466  1.4066  0.0496
10481TIP3    H252859   4.092   1.478  14.225 -0.1443 -0.1868 -0.3297
10482TIP3   OH252860   4.337   6.737   4.674 -0.6249  0.0358 -0.0563
10482TIP3    H152861   4.394   6.661   4.688 -0.5285 -0.2648 -1.8985
10482TIP3    H252862   4.393   6.802   4.631 -1.0658  0.6670  0.2910
10483TIP3   OH252863   0.723   5.238  15.737 -0.0662  0.1096  0.1572
10483TIP3    H152864   0.708   5.331  15.719 -1.2147 -0.0984 -0.0573
10483TIP3    H252865   0.818   5.229  15.743  0.0674  1.2417 -0.1335
10484TIP3   OH252866   3.768   1.405   0.478 -0.7370  0.6982 -0.0188
10484TIP3    H152867   3.794   1.390   0.387  0.0725 -5.1931  0.7799
10484TIP3    H252868   3.685   1.451   0.471 -0.7373  0.5021 -3.7757
10485TIP3   OH252869   0.887   5.741   4.015 -0.2866  0.4171  0.1144
10485TIP3    H152870   0.872   5.657   4.059 -1.7285  0.6119  0.0715
10485TIP3    H252871   0.908   5.718   3.925 -1.3906  0.0865 -0.0805
10486TIP3   OH252872   3.210   3.713   5.955  0.2074 -0.4032  0.2211
10486TIP3    H152873   3.273   3.680   6.019 -0.4064 -0.5030  0.7796
10486TIP3    H252874   3.124   3.691   5.991 -0.3062  2.5813  1.1315
10487TIP3   OH252875   6.624   6.412  16.012  0.2909 -0.3570  0.0957
10487TIP3    H152876   6.584   6.492  16.046  0.0114 -0.7951  0.8286
10487TIP3    H252877   6.716   6.434  15.999  0.1822  0.1271  0.1470
10488TIP3   OH252878   0.618   0.763  16.493  0.3845 -0.4026  0.3446
10488TIP3    H152879   0.590   0.740  16.404  1.2676 -0.3172  0.0359
10488TIP3    H252880   0.602   0.858  16.499 -0.1332 -0.4930  0.4540
10489TIP3   OH252881   0.235   6.129   4.981  0.5698  0.2628 -0.0396
10489TIP3    H152882   0.247   6.206   5.037  2.4689  0.1130 -0.1885
10489TIP3    H252883   0.169   6.157   4.917 -0.5412  0.9345  1.3162
10490TIP3   OH252884   2.106   0.570   5.273 -0.3576  0.2242  0.0208
10490TIP3    H152885   2.200   0.561   5.257 -0.4720 -0.0224 -0.5788
10490TIP3    H252886   2.097   0.573   5.368  0.1997 -0.4761  0.1033
10491TIP3   OH252887   0.260   3.749   0.316 -0.1855  0.4313  0.0112
10491TIP3    H152888   0.184   3.798   0.285 -0.6565 -1.0116 -1.2555
10491TIP3    H252889   0.336   3.798   0.284 -0.6504 -0.2716 -2.3207
10492TIP3   OH252890   5.997   0.227  16.164  0.5118 -0.4590  0.1473
10492TIP3    H152891   5.914   0.204  16.206  0.7535  0.2339  1.0165
10492TIP3    H252892   5.971   0.262  16.078 -0.1649  0.5743  0.7547
10493TIP3   OH252893   6.517   3.786  15.659 -0.2460  0.0870  0.1412
10493TIP3    H152894   6.434   3.741  15.643 -0.8845  0.9620  0.9260
10493TIP3    H252895   6.493   3.878  15.670  0.7886  0.3041  0.7227
10494TIP3   OH252896   5.611   4.272  11.696  0.1219  0.1059  0.0725
10494TIP3    H152897   5.585   4.181  11.681 -0.9988  0.3283  0.5789
10494TIP3    H252898   5.697   4.265  11.738  1.2253 -0.6322 -2.1283
10495TIP3   OH252899   4.286   3.815  15.824 -0.0883  0.7742  0.1070
10495TIP3    H152900   4.203   3.843  15.862 -0.1533 -0.9588  1.3849
10495TIP3    H252901   4.352   3.870  15.865 -0.3055 -0.1155  1.7045
10496TIP3   OH252902   1.231   2.985  13.735  0.2858  0.6203 -0.1349
10496TIP3    H152903   1.309   2.978  13.680 -0.6542 -0.7324 -1.3807
10496TIP3    H252904   1.166   2.930  13.692 -1.3999  1.7441  0.8320
10497TIP3   OH252905   3.783   3.349   0.698  0.1566  0.5693  0.0337
10497TIP3    H152906   3.812   3.259   0.683 -2.8545 -0.8763  1.8627
10497TIP3    H252907   3.770   3.354   0.793 -2.2611  1.9787 -0.2827
10498TIP3   OH252908   4.093   5.185  12.370  0.1745 -0.0900 -0.2445
10498TIP3    H152909   4.172   5.206  12.320 -0.0194  2.3162  0.3370
10498TIP3    H252910   4.126   5.147  12.452  0.8543  1.7548  0.3992
10499TIP3   OH252911   2.689   3.482  16.101  0.0001 -0.2268  0.3647
10499TIP3    H152912   2.599   3.489  16.070  0.5255  3.1911 -0.8974
10499TIP3    H252913   2.682   3.480  16.196 -1.4311  0.7433  0.3191
10500TIP3   OH252914   4.852   4.996  16.196 -0.4504 -0.4830  0.3524
10500TIP3    H152915   4.774   5.012  16.142  0.0970 -1.1116 -0.6583
10500TIP3    H252916   4.855   4.901  16.206  0.7004 -0.5519 -0.4295
10501TIP3   OH252917   4.315   4.462  16.880  0.1211  0.0312  0.1107
10501TIP3    H152918   4.279   4.506  16.803 -1.1992 -1.4885 -0.1951
10501TIP3    H252919   4.238   4.440  16.933  0.6424 -2.3695 -0.0366
10502TIP3   OH252920   0.815   6.428   5.493 -0.2875  0.0960 -0.1553
10502TIP3    H152921   0.896   6.480   5.499  0.7896 -1.4332 -0.9038
10502TIP3    H252922   0.780   6.430   5.582  0.4487  0.9598  0.1437
10503TIP3   OH252923   3.804   2.881   4.467  0.7229 -0.1988  0.6720
10503TIP3    H152924   3.765   2.816   4.525  2.3848 -0.3767  1.6402
10503TIP3    H252925   3.732   2.906   4.408 -1.4817  1.0762  3.6576
10504TIP3   OH252926   0.110   3.375   0.294 -0.4074  0.1465 -0.4317
10504TIP3    H152927   0.079   3.288   0.320  1.8608  0.1448  2.8975
10504TIP3    H252928   0.030   3.428   0.290 -1.4909 -1.0545  2.3620
10505TIP3   OH252929   4.352   4.428  12.370 -0.4624 -0.5312 -0.0251
10505TIP3    H152930   4.421   4.373  12.334 -1.0229 -0.4915 -1.1939
10505TIP3    H252931   4.274   4.405  12.320 -1.1077  0.0358  0.6981
10506TIP3   OH252932   4.841   5.036  12.640  0.0780 -0.3523 -0.1236
10506TIP3    H152933   4.795   4.971  12.588 -0.6159 -1.1296  1.3933
10506TIP3    H252934   4.778   5.108  12.650  0.7209  0.4558 -1.5048
10507TIP3   OH252935   2.674   0.080   4.300  1.5583 -0.3892 -0.2430
10507TIP3    H152936   2.706   0.022   4.231  3.7778  1.4277 -0.8368
10507TIP3    H252937   2.654   0.162   4.256 -2.5618 -0.8397  0.3923
10508TIP3   OH252938   4.448   3.943  12.393  0.3741  0.2004 -0.0643
10508TIP3    H152939   4.362   3.981  12.413  1.1501  0.4399  3.6015
10508TIP3    H252940   4.433   3.848  12.392 -0.1312  0.2854 -0.5996
10509TIP3   OH252941   6.570   0.306  16.716  0.2413  0.6030  0.1506
10509TIP3    H152942   6.572   0.214  16.689 -0.9064  1.0849 -1.7796
10509TIP3    H252943   6.557   0.303  16.810  2.7156 -1.2018  0.5382
10510TIP3   OH252944   2.134   0.444   1.998 -0.1679  0.1353  0.1149
10510TIP3    H152945   2.161   0.451   1.906 -1.0617  2.0933 -0.0408
10510TIP3    H252946   2.153   0.530   2.036 -1.9665  0.1482  1.1283
10511TIP3   OH252947   2.032   5.529   4.494 -0.4731 -0.5243 -0.0312
10511TIP3    H152948   2.020   5.608   4.547 -3.0836  0.4189 -1.8522
10511TIP3    H252949   1.979   5.463   4.539  0.6153 -0.8969  0.7384
10512TIP3   OH252950   4.909   3.540  15.990  0.1971 -0.2673 -0.2549
10512TIP3    H152951   4.926   3.598  16.064  2.4532 -0.1426 -0.7852
10512TIP3    H252952   4.880   3.599  15.920 -0.8235 -0.2420  0.1779
10513TIP3   OH252953   5.044   2.847  12.656  0.3763  0.8486  0.6775
10513TIP3    H152954   4.991   2.845  12.736 -0.2523 -2.4336  0.3302
10513TIP3    H252955   5.109   2.778  12.669  0.1938  0.1447 -1.6266
10514TIP3   OH252956   3.253   1.385   1.573  0.2192  0.3854 -0.2672
10514TIP3    H152957   3.223   1.434   1.496  1.3639  3.7263  1.2557
10514TIP3    H252958   3.175   1.378   1.628  0.4504  2.4365  0.3964
10515TIP3   OH252959   1.743   4.122  12.912 -0.0832  0.4083 -0.1890
10515TIP3    H152960   1.835   4.145  12.908 -0.0417  0.2411 -0.1821
10515TIP3    H252961   1.701   4.198  12.953 -0.3069  1.5325 -2.3602
10516TIP3   OH252962   2.829   1.628  17.119 -0.8217 -0.0512  0.2614
10516TIP3    H152963   2.836   1.614  17.214 -1.5997  1.2168  0.5250
10516TIP3    H252964   2.918   1.616  17.087  0.0163  2.1021  1.5502
10517TIP3   OH252965   1.501   6.702   1.408  0.5476 -0.1995 -0.1741
10517TIP3    H152966   1.435   6.763   1.374 -0.2785 -2.6799 -3.5411
10517TIP3    H252967   1.451   6.625   1.434  1.8626 -0.7739  0.7732
10518TIP3   OH252968   5.987   3.495   1.517  0.2420 -0.0219 -0.5380
10518TIP3    H152969   5.898   3.481   1.484 -0.4918  3.3117 -0.3189
10518TIP3    H252970   5.982   3.578   1.564  3.4963  0.2368 -0.4564
10519TIP3   OH252971   5.141   2.628  16.890 -0.2921 -0.1762 -0.0424
10519TIP3    H152972   5.141   2.533  16.877  0.0439 -0.6526  2.8217
10519TIP3    H252973   5.065   2.658  16.841  0.5287 -1.6434 -2.4051
10520TIP3   OH252974   5.676   1.133  16.842 -0.0919 -0.2136 -0.3186
10520TIP3    H152975   5.718   1.086  16.914 -2.4520 -1.1884  0.5393
10520TIP3    H252976   5.661   1.067  16.775  0.4302  0.2979 -0.9590
10521TIP3   OH252977   0.969   4.225  10.427 -0.3737  0.0004  0.6211
10521TIP3    H152978   1.053   4.238  10.472  0.4498 -2.2525 -0.0971
10521TIP3    H252979   0.914   4.179  10.490 -0.1564 -0.7530  0.2824
10522TIP3   OH252980   5.510   1.614   4.517  0.3896  0.2901 -0.4892
10522TIP3    H152981   5.510   1.559   4.595  2.5480 -0.1949 -0.7682
10522TIP3    H252982   5.436   1.673   4.529  0.7810  0.3788  2.0276
10523TIP3   OH252983   4.335   5.053   4.539  0.6792  0.2838  0.0489
10523TIP3    H152984   4.363   5.006   4.618 -0.8725  0.5896  0.8197
10523TIP3    H252985   4.241   5.035   4.532  0.4238  1.7385 -0.6976
10524TIP3   OH252986   5.571   2.534  15.824 -0.1460  0.1063  0.2533
10524TIP3    H152987   5.512   2.593  15.778 -2.3052 -2.1355 -0.0027
10524TIP3    H252988   5.594   2.467  15.760  0.1198 -0.7966  1.2563
10525TIP3   OH252989   3.345   0.732  13.652  0.1792  0.0739  0.3172
10525TIP3    H152990   3.307   0.687  13.577 -1.1618 -0.0773  1.0535
10525TIP3    H252991   3.439   0.714  13.647  0.1689  0.4057 -1.5349
10526TIP3   OH252992   4.107   3.511  15.043 -0.5713 -0.2190 -0.1507
10526TIP3    H152993   4.139   3.463  15.120 -0.0872  1.5971  0.8469
10526TIP3    H252994   4.086   3.598  15.077 -1.1282  0.3749 -1.9370
10527TIP3   OH252995   6.737   5.403   4.450  0.1572 -0.2550 -0.0810
10527TIP3    H152996   6.698   5.359   4.526 -1.1526  1.2782  0.1928
10527TIP3    H252997   6.721   5.343   4.377 -1.2122 -0.4551  0.3503
10528TIP3   OH252998   3.686   5.219   5.966 -0.2362 -0.2532  0.1571
10528TIP3    H152999   3.692   5.134   5.922  1.1882  0.4387 -1.0909
10528TIP3    H253000   3.604   5.258   5.933 -0.2198 -0.5966 -0.2965
10529TIP3   OH253001   1.285   5.091   1.557 -0.4210 -0.0110  0.2738
10529TIP3    H153002   1.199   5.060   1.585 -0.5910  0.3712  0.1869
10529TIP3    H253003   1.327   5.119   1.638  0.0154 -1.1229  0.4521
10530TIP3   OH253004   6.276   6.276  12.262  0.1925 -0.0578  0.4227
10530TIP3    H153005   6.278   6.199  12.205  2.3021 -0.7245  1.2878
10530TIP3    H253006   6.187   6.310  12.254  0.0649 -0.8165 -2.3061
10531TIP3   OH253007   5.982   4.115  13.616 -0.4777 -0.7499 -0.3593
10531TIP3    H153008   6.001   4.203  13.648 -1.4070 -0.6091 -0.1516
10531TIP3    H253009   5.938   4.129  13.532 -0.3941 -1.0234 -0.4491
10532TIP3   OH253010   3.038   5.133  14.636 -0.5047 -0.3517  0.0942
10532TIP3    H153011   3.097   5.140  14.561  0.5196 -1.2551  0.7874
10532TIP3    H253012   2.951   5.128  14.598 -0.4503  3.5035 -0.9069
10533TIP3   OH253013   2.130   0.202  15.408  0.4558  0.4888  0.7746
10533TIP3    H153014   2.120   0.109  15.388  1.7783  0.6225 -0.7324
10533TIP3    H253015   2.046   0.241  15.386  0.3256 -0.1500  0.1140
10534TIP3   OH253016   4.459   2.493  12.772 -0.2606  0.0697 -0.1731
10534TIP3    H153017   4.383   2.549  12.758 -1.3305 -0.9110  1.4128
10534TIP3    H253018   4.421   2.409  12.799  1.2432 -1.5653 -2.7169
10535TIP3   OH253019   2.358   4.255   3.819 -0.4933  0.2961 -0.1847
10535TIP3    H153020   2.329   4.164   3.815 -0.0264  0.1134  0.3196
10535TIP3    H253021   2.297   4.303   3.763  0.8901 -0.7407 -2.7755
10536TIP3   OH253022   0.575   4.528  15.787 -0.0424 -0.0718  0.0584
10536TIP3    H153023   0.519   4.579  15.846 -1.4605 -2.3412  0.8410
10536TIP3    H253024   0.531   4.534  15.702  0.2826  0.7048 -0.0567
10537TIP3   OH253025   6.120   1.457   0.271 -0.0994 -0.1670  0.4994
10537TIP3    H153026   6.028   1.483   0.259 -0.6696 -2.3392 -0.2411
10537TIP3    H253027   6.146   1.418   0.188  1.6990  0.8644  0.5257
10538TIP3   OH253028   0.593   2.888  12.678  0.3892 -0.6822 -0.3610
10538TIP3    H153029   0.609   2.873  12.584 -0.1966  0.9673 -0.7581
10538TIP3    H253030   0.520   2.830  12.700 -0.7094  0.2483 -1.4082
10539TIP3   OH253031   0.363   1.717   1.433  0.0673  0.0805 -0.3600
10539TIP3    H153032   0.428   1.648   1.439 -0.7373 -0.7430 -0.9090
10539TIP3    H253033   0.282   1.677   1.464 -0.3634  0.8319 -0.4856
10540TIP3   OH253034   1.606   3.075   2.721  0.0730 -0.5238 -0.2107
10540TIP3    H153035   1.616   2.997   2.777 -0.8483  0.0100  0.7314
10540TIP3    H253036   1.534   3.124   2.761  0.6566  0.8364 -0.7782
10541TIP3   OH253037   4.269   1.452   6.320  0.2155  0.2942  0.0162
10541TIP3    H153038   4.276   1.360   6.345  0.5337 -0.0880 -1.4248
10541TIP3    H253039   4.175   1.466   6.308 -0.0000  0.6082  1.7565
10542TIP3   OH253040   5.022   0.966  13.564 -0.2832 -0.0372 -0.8389
10542TIP3    H153041   5.053   0.935  13.650  0.1244 -0.6760 -1.2086
10542TIP3    H253042   5.064   0.908  13.501 -0.9619  0.1233 -1.4525
10543TIP3   OH253043   6.468   1.219   2.139 -0.2249  0.0401 -0.2888
10543TIP3    H153044   6.427   1.302   2.115  0.1575  0.1327 -0.6298
10543TIP3    H253045   6.553   1.243   2.175 -0.5435 -0.1392  0.6203
10544TIP3   OH253046   1.355   4.618  15.412 -0.6870  0.1937 -0.0822
10544TIP3    H153047   1.284   4.566  15.374  0.4018 -1.6597  0.3056
10544TIP3    H253048   1.424   4.616  15.345 -0.2870  0.3711  0.3229
10545TIP3   OH253049   4.412   6.141  15.706 -0.0053  0.0307  0.3603
10545TIP3    H153050   4.423   6.200  15.781 -0.1558  0.7439 -0.1662
10545TIP3    H253051   4.482   6.077  15.714 -0.6682 -0.5554  1.7156
10546TIP3   OH253052   3.579   1.502  11.247  0.3587 -0.2374 -0.3196
10546TIP3    H153053   3.647   1.570  11.243 -1.7009  2.3167  3.0402
10546TIP3    H253054   3.506   1.538  11.197 -0.3356 -0.4948  0.4783
10547TIP3   OH253055   0.834   0.590  16.500  0.1619 -0.1553 -0.2488
10547TIP3    H153056   0.765   0.657  16.497 -0.1971 -0.4856 -4.2484
10547TIP3    H253057   0.887   0.615  16.576 -1.4903  3.0777  0.0443
10548TIP3   OH253058   3.542   0.500  17.127  0.0160 -0.1778 -0.3353
10548TIP3    H153059   3.607   0.523  17.194  0.0921 -0.7211 -0.2158
10548TIP3    H253060   3.472   0.457  17.175  0.4592 -1.3515 -0.6911
10549TIP3   OH253061   2.849   4.361   0.471 -0.8419  0.7115 -0.2765
10549TIP3    H153062   2.931   4.331   0.432 -0.4466  2.6705 -1.1226
10549TIP3    H253063   2.875   4.409   0.549 -1.4681 -1.2221  1.1872
10550TIP3   OH253064   2.297   4.172  12.209 -0.1153  0.0021  0.3716
10550TIP3    H153065   2.206   4.158  12.182 -0.5203  1.7928  0.6729
10550TIP3    H253066   2.347   4.162  12.128 -0.5020 -1.4668  0.2907
10551TIP3   OH253067   5.986   3.601  13.163 -0.1576  0.4746 -0.2865
10551TIP3    H153068   6.032   3.638  13.238 -1.1949 -0.0503  0.6296
10551TIP3    H253069   5.952   3.678  13.116 -0.5031  0.7789  0.4425
10552TIP3   OH253070   6.182   2.221  13.961  0.3658 -0.4653 -0.2587
10552TIP3    H153071   6.272   2.222  13.994 -0.2632  1.7953  1.6713
10552TIP3    H253072   6.137   2.157  14.016  0.6061 -1.0552 -0.7363
10553TIP3   OH253073   5.977   3.034  15.189 -0.2251  0.3624 -0.0497
10553TIP3    H153074   6.004   3.002  15.103 -1.5042  1.1205 -0.7578
10553TIP3    H253075   5.894   2.991  15.206 -0.7051  1.3371  0.1348
10554TIP3   OH253076   5.809   1.908  12.036 -0.5808  0.2377 -0.2107
10554TIP3    H153077   5.839   1.817  12.032 -3.2516 -0.7026 -3.0565
10554TIP3    H253078   5.757   1.912  12.116  0.9922 -0.1659  0.8792
10555TIP3   OH253079   0.024   0.996  11.492  0.4998  0.3100 -0.3174
10555TIP3    H153080   0.106   1.027  11.531  0.3157  0.4809 -0.0602
10555TIP3    H253081  -0.039   1.066  11.509 -0.2099 -0.6532  1.2833
10556TIP3   OH253082   1.366   5.607  14.191 -0.0772 -0.7176  0.7249
10556TIP3    H153083   1.418   5.680  14.224  0.3080 -1.3956  1.6488
10556TIP3    H253084   1.418   5.572  14.119  0.1458 -0.6115  0.8322
10557TIP3   OH253085   0.193   2.715  15.600 -0.5716  0.3190  0.3758
10557TIP3    H153086   0.261   2.759  15.651 -1.4745  0.3531  1.6130
10557TIP3    H253087   0.146   2.787  15.556 -0.3915  0.3650  0.2547
10558TIP3   OH253088   4.937   6.667  12.826  0.1236 -0.3480  0.4539
10558TIP3    H153089   4.848   6.634  12.810 -0.1410  0.6043 -0.1796
10558TIP3    H253090   4.926   6.732  12.895  0.0727  0.7903 -0.5906
10559TIP3   OH253091   3.337   4.012   4.189 -0.1821  0.0111 -0.5222
10559TIP3    H153092   3.297   4.033   4.273  1.5057 -0.3918  0.4436
10559TIP3    H253093   3.350   4.097   4.147 -0.4273  0.2808 -0.0622
10560TIP3   OH253094   4.022   3.323   2.677 -0.2187  0.4591  0.3325
10560TIP3    H153095   3.948   3.377   2.649 -0.7586  0.4431  1.6305
10560TIP3    H253096   4.061   3.291   2.596 -3.0794 -1.5384 -0.3979
10561TIP3   OH253097   1.223   4.224   1.216 -0.2239 -0.0208  0.3890
10561TIP3    H153098   1.224   4.197   1.307  0.4012  0.0870  0.4190
10561TIP3    H253099   1.292   4.291   1.210 -1.5077  1.3370  0.2551
10562TIP3   OH253100   2.413   6.614  14.128  0.0358 -0.2132 -0.1202
10562TIP3    H153101   2.398   6.687  14.188 -1.6475 -1.3034  0.8578
10562TIP3    H253102   2.434   6.540  14.185  0.8901 -0.7107 -1.0524
10563TIP3   OH253103   4.242   6.690   5.232  0.1264 -0.1500  0.3171
10563TIP3    H153104   4.199   6.610   5.204 -0.8742 -0.0491  1.4908
10563TIP3    H253105   4.180   6.760   5.210  0.5756  0.2078  0.1751
10564TIP3   OH253106   6.626   3.050   3.623  0.0307 -0.5524  0.3890
10564TIP3    H153107   6.578   3.012   3.550 -0.1868  1.5064 -0.5915
10564TIP3    H253108   6.710   3.076   3.587  0.6383 -1.1281  1.3239
10565TIP3   OH253109   0.158   0.605   4.346 -0.2804  0.2467  0.1547
10565TIP3    H153110   0.207   0.682   4.315  1.0072  0.0487  1.5884
10565TIP3    H253111   0.216   0.531   4.329  0.1474  0.0469  2.2327
10566TIP3   OH253112   3.703   5.389   3.408  0.7696  0.3271  0.3991
10566TIP3    H153113   3.722   5.483   3.399  0.5959  0.2761 -0.6302
10566TIP3    H253114   3.625   5.387   3.464  0.0171  0.8893 -0.5765
10567TIP3   OH253115   5.658   5.650  12.650  0.2290 -0.2391  0.2308
10567TIP3    H153116   5.588   5.684  12.707  1.5666  3.9063 -0.2855
10567TIP3    H253117   5.621   5.654  12.562  0.9929  1.8880 -0.0348
10568TIP3   OH253118   2.059   5.245  17.369 -0.0082 -0.0713  0.5390
10568TIP3    H153119   2.026   5.324  17.413  0.7983 -0.2057  1.4142
10568TIP3    H253120   2.053   5.266  17.275  0.0142  0.9602  0.7518
10569TIP3   OH253121   0.054   4.280   4.127 -0.1589 -0.5802  0.4852
10569TIP3    H153122   0.119   4.289   4.057 -1.2391  2.5783 -0.2704
10569TIP3    H253123  -0.030   4.277   4.081 -0.7543 -0.9588  1.5752
10570TIP3   OH253124   6.665   3.792  15.142  0.2403 -0.2521 -0.0320
10570TIP3    H153125   6.656   3.730  15.215 -2.0517 -0.5884 -0.5030
10570TIP3    H253126   6.617   3.751  15.070 -0.4334  1.5738 -0.6886
10571TIP3   OH253127   0.301   2.090  12.698  0.0838 -0.2284 -0.2164
10571TIP3    H153128   0.238   2.099  12.627  0.4576  1.0455 -0.4003
10571TIP3    H253129   0.359   2.019  12.669  0.9410  1.0477 -1.7465
10572TIP3   OH253130   2.932   3.723   2.033 -0.3724  0.2139  0.3642
10572TIP3    H153131   2.842   3.742   2.062  0.2962  1.0489  1.9950
10572TIP3    H253132   2.954   3.640   2.075 -0.2106  0.2483  0.3475
10573TIP3   OH253133   6.552   4.846  16.319  0.1071 -0.5458 -0.1713
10573TIP3    H153134   6.477   4.905  16.321  2.5689  2.9022  1.0821
10573TIP3    H253135   6.595   4.865  16.235  1.3856  0.1877  0.6134
10574TIP3   OH253136   0.697   2.331   2.506  1.3580  0.2531  0.2072
10574TIP3    H153137   0.775   2.283   2.478  1.0613 -0.5247  0.7029
10574TIP3    H253138   0.627   2.299   2.448  1.1681  0.1176  0.5116
10575TIP3   OH253139   1.274   4.262   5.627  0.2228  0.1838  0.1712
10575TIP3    H153140   1.205   4.228   5.683 -1.2700  0.6138 -1.3240
10575TIP3    H253141   1.345   4.284   5.687 -0.7498 -0.7122  1.7077
10576TIP3   OH253142   6.069   6.251  11.703 -0.3909 -0.0474 -0.2962
10576TIP3    H153143   5.982   6.260  11.666  0.3450  1.5501 -1.8292
10576TIP3    H253144   6.112   6.334  11.681  1.2459 -0.4740  1.1207
10577TIP3   OH253145   3.374   4.438  11.779  0.6209 -0.1259 -0.2676
10577TIP3    H153146   3.288   4.423  11.819  1.0131  0.6736  0.9375
10577TIP3    H253147   3.400   4.524  11.811  1.4876  0.0313 -1.3503
10578TIP3   OH253148   3.661   5.681   2.928  0.2872  0.1881 -0.2538
10578TIP3    H153149   3.610   5.759   2.910  0.1492  0.0158 -0.6128
10578TIP3    H253150   3.647   5.624   2.852  0.3555 -0.2007  0.0178
10579TIP3   OH253151   4.158   4.771   1.500  0.0341  0.0577  0.0738
10579TIP3    H153152   4.210   4.699   1.464  0.4812  0.5540 -0.2888
10579TIP3    H253153   4.145   4.746   1.591 -0.7998 -1.0382 -0.3189
10580TIP3   OH253154   2.764   4.774   5.583  0.8201 -0.2162 -0.1758
10580TIP3    H153155   2.762   4.747   5.491 -2.6681  0.4833 -0.4647
10580TIP3    H253156   2.734   4.696   5.631  0.0133  0.2003  0.0205
10581TIP3   OH253157   3.189   5.602   5.786 -0.0880  0.0439 -0.7145
10581TIP3    H153158   3.127   5.666   5.821  0.7038 -0.5546  1.9705
10581TIP3    H253159   3.272   5.649   5.782  0.6724 -0.8977  1.9976
10582TIP3   OH253160   6.437   4.906  11.784  0.3598 -0.2300  0.5992
10582TIP3    H153161   6.443   4.939  11.874  0.0376  2.3830 -0.2429
10582TIP3    H253162   6.355   4.944  11.751  2.5304  2.6529 -2.0744
10583TIP3   OH253163   1.845   2.396   5.235 -0.1777  0.4151  0.0071
10583TIP3    H153164   1.868   2.340   5.161 -0.2553 -1.8734  1.6147
10583TIP3    H253165   1.778   2.347   5.283  2.5705 -0.1700  3.7130
10584TIP3   OH253166   5.024   4.681   1.886  0.0452 -0.5584 -0.6687
10584TIP3    H153167   4.964   4.630   1.832 -1.9735  1.4494 -0.4608
10584TIP3    H253168   5.017   4.642   1.973 -0.4119 -0.7949 -0.8089
10585TIP3   OH253169   3.624   5.229   0.445  0.7783  0.5810 -0.0017
10585TIP3    H153170   3.625   5.191   0.533  0.3841  0.2166 -0.1488
10585TIP3    H253171   3.538   5.205   0.410  0.6772  1.2948 -0.2413
10586TIP3   OH253172   3.435   2.510   4.840  0.4695  0.3703 -0.6261
10586TIP3    H153173   3.354   2.491   4.888  0.4972 -0.1513 -0.7799
10586TIP3    H253174   3.496   2.541   4.907 -0.3945  2.5335 -0.7560
10587TIP3   OH253175   4.494   5.730   0.248  0.7011  0.0045  0.1526
10587TIP3    H153176   4.470   5.654   0.195  0.7468  0.9741 -1.3475
10587TIP3    H253177   4.582   5.753   0.217  0.1178  1.5081 -0.4934
10588TIP3   OH253178   1.564   1.017  14.782 -0.7160 -0.0606  0.1810
10588TIP3    H153179   1.551   0.927  14.813 -1.6771  0.5265  1.5729
10588TIP3    H253180   1.651   1.041  14.812 -0.7510 -0.2782  0.4603
10589TIP3   OH253181   1.540   4.977  11.177 -0.2167  0.4061 -0.3163
10589TIP3    H153182   1.541   5.037  11.252 -1.9925 -0.1565  0.2236
10589TIP3    H253183   1.592   4.902  11.205  0.1960  0.7558 -0.1428
10590TIP3   OH253184   1.826   4.697   1.432 -0.0195 -0.3191 -0.0585
10590TIP3    H153185   1.850   4.787   1.411 -0.1809 -0.6810 -2.0028
10590TIP3    H253186   1.732   4.692   1.416 -0.1967 -0.6013  0.9928
10591TIP3   OH253187   6.406   4.865   3.546  0.1183 -0.2514  0.3153
10591TIP3    H153188   6.470   4.848   3.477 -1.3330 -1.2670 -0.8590
10591TIP3    H253189   6.431   4.950   3.582  0.1647  0.9496 -2.3489
10592TIP3   OH253190   0.241   4.145   0.350 -0.5698 -0.5528  0.1976
10592TIP3    H153191   0.196   4.228   0.332  0.0208 -0.0823  0.7849
10592TIP3    H253192   0.173   4.086   0.382 -0.9205 -0.1381  0.2248
10593TIP3   OH253193   2.552   5.743   4.945 -0.0484 -0.8889  0.0811
10593TIP3    H153194   2.603   5.781   5.017  0.3237 -1.1240 -0.0508
10593TIP3    H253195   2.616   5.732   4.874 -0.3570 -0.8910 -0.1971
10594TIP3   OH253196   5.717   5.304  13.702  0.2282  0.1014 -0.3372
10594TIP3    H153197   5.643   5.341  13.654 -0.1776  1.4983  1.2530
10594TIP3    H253198   5.720   5.213  13.674 -0.5926  0.6019 -2.2202
10595TIP3   OH253199   4.924   1.020   3.658 -0.0975 -0.2916  0.0785
10595TIP3    H153200   4.959   0.987   3.741  0.0922 -0.5735 -0.1135
10595TIP3    H253201   4.912   1.114   3.673 -0.1291 -0.3530  0.4474
10596TIP3   OH253202   6.361   1.852  16.889 -0.1743 -0.4180  0.9468
10596TIP3    H153203   6.437   1.832  16.835  1.2209  0.2466  2.5600
10596TIP3    H253204   6.292   1.795  16.855  0.7697 -0.4128 -1.1293
10597TIP3   OH253205   5.166   3.034  16.908  0.3247 -0.2586 -0.0701
10597TIP3    H153206   5.135   3.023  16.998 -0.8130 -2.2035 -0.6484
10597TIP3    H253207   5.236   2.968  16.899  1.6040  1.0563 -0.1488
10598TIP3   OH253208   1.820   4.594   2.248 -0.1544 -0.2738 -0.0342
10598TIP3    H153209   1.770   4.629   2.174  1.7623  1.5914 -0.5507
10598TIP3    H253210   1.808   4.660   2.317 -0.2565 -0.9756  0.6328
10599TIP3   OH253211   2.876   5.283   3.027  0.0924  0.0561  0.3548
10599TIP3    H153212   2.925   5.283   3.109  0.3477 -1.2948  0.2189
10599TIP3    H253213   2.942   5.300   2.960  0.1226 -0.2732  0.3018
10600TIP3   OH253214   2.604   1.500  16.923 -0.5072  0.2837  0.0521
10600TIP3    H153215   2.643   1.573  16.970 -3.1345  1.1444  1.1007
10600TIP3    H253216   2.537   1.541  16.868 -1.9218 -1.2918  0.5311
10601TIP3   OH253217   1.895   5.075  12.757 -0.0429  0.3573 -0.3125
10601TIP3    H153218   1.803   5.048  12.747 -0.0167  0.3702 -0.5982
10601TIP3    H253219   1.898   5.164  12.721  0.7108 -0.7540 -3.2360
10602TIP3   OH253220   6.578   1.346  15.784 -0.2801 -0.3843 -0.1357
10602TIP3    H153221   6.667   1.365  15.814 -0.4409  1.8229 -0.7947
10602TIP3    H253222   6.588   1.333  15.689 -0.6206 -0.2349 -0.1939
10603TIP3   OH253223   6.558   2.656   6.108 -0.4362 -0.0969  0.2995
10603TIP3    H153224   6.484   2.674   6.050  0.0675 -0.7164 -0.5642
10603TIP3    H253225   6.520   2.613   6.184 -1.2242  1.5458  0.8709
10604TIP3   OH253226   2.384   5.439   3.499 -0.7607  0.6753 -0.5421
10604TIP3    H153227   2.431   5.474   3.575  0.9718 -1.7994 -0.3628
10604TIP3    H253228   2.446   5.446   3.427 -1.5266  0.8137 -1.2020
10605TIP3   OH253229   0.039   4.009  11.130  0.0110 -0.3131  0.2564
10605TIP3    H153230   0.034   3.960  11.048  2.3316  1.3371 -1.0241
10605TIP3    H253231   0.092   4.086  11.108 -0.0441  0.6697  3.1123
10606TIP3   OH253232   6.208   6.592   1.873 -0.2934 -0.1676  0.2836
10606TIP3    H153233   6.170   6.584   1.960 -0.4062 -0.6479  0.1949
10606TIP3    H253234   6.145   6.548   1.815 -0.2872  0.2646 -0.0557
10607TIP3   OH253235   2.203   6.116  13.178  0.2108  0.0629  0.2824
10607TIP3    H153236   2.183   6.181  13.111  3.5738  0.0548 -0.8668
10607TIP3    H253237   2.202   6.166  13.260 -1.8442  0.4905  0.0688
10608TIP3   OH253238   3.129   4.422  12.564 -0.4454 -0.2107 -0.6277
10608TIP3    H153239   3.140   4.387  12.653 -1.7842  0.3005 -0.2293
10608TIP3    H253240   3.051   4.377  12.531 -1.5664  1.5556 -0.5103
10609TIP3   OH253241   3.820   0.435  16.570  0.1315  0.1656 -0.2032
10609TIP3    H153242   3.825   0.529  16.552 -0.6935  0.4708  0.9967
10609TIP3    H253243   3.773   0.430  16.653 -0.4580 -1.3545 -0.6100
10610TIP3   OH253244   1.976   1.147  12.350 -0.5120  0.0813  0.1811
10610TIP3    H153245   1.887   1.159  12.315  0.1169 -0.2667 -1.6516
10610TIP3    H253246   2.032   1.196  12.290  0.7484 -1.4442  0.0372
10611TIP3   OH253247   5.255   2.969  16.556  0.1958  0.5744 -0.6201
10611TIP3    H153248   5.192   2.922  16.502 -0.7624  1.4246 -0.2967
10611TIP3    H253249   5.231   3.061  16.546 -0.7826  0.7224  2.0788
10612TIP3   OH253250   4.113   0.759  15.485  0.3705 -0.1573 -0.1200
10612TIP3    H153251   4.180   0.796  15.427  0.2557  0.2380 -0.0083
10612TIP3    H253252   4.042   0.735  15.426 -0.1573  1.1602 -0.0721
10613TIP3   OH253253   3.733   3.574   4.866  0.0771  0.2769 -0.6889
10613TIP3    H153254   3.712   3.494   4.913 -0.4087  1.1250  0.6001
10613TIP3    H253255   3.788   3.624   4.928 -0.6766  1.4719 -0.9546
10614TIP3   OH253256   1.577   0.249   3.349 -0.3144 -0.2904  0.8533
10614TIP3    H153257   1.525   0.186   3.399  1.1121 -1.5654  0.8208
10614TIP3    H253258   1.518   0.322   3.333 -1.9510 -1.4973  1.1422
10615TIP3   OH253259   2.588   3.906  17.171 -0.8152  0.1820  0.1396
10615TIP3    H153260   2.590   3.988  17.221 -1.8985  0.3057  0.0147
10615TIP3    H253261   2.679   3.878  17.167 -0.4531  1.2623  0.3848
10616TIP3   OH253262   4.099   2.923  14.161  0.7782  0.0479 -0.5370
10616TIP3    H153263   4.159   2.971  14.218  0.5805  0.6372 -0.8271
10616TIP3    H253264   4.022   2.908  14.216  1.5625 -1.6408  0.1992
10617TIP3   OH253265   4.518   3.229   1.606  0.3730 -0.2617 -0.6871
10617TIP3    H153266   4.498   3.249   1.514  0.6425 -0.5790 -0.8206
10617TIP3    H253267   4.485   3.304   1.655 -3.0384 -1.6293 -0.6490
10618TIP3   OH253268   0.024   6.137  11.396  0.8326 -0.1689 -0.0495
10618TIP3    H153269  -0.042   6.154  11.464 -0.2155 -0.2550 -1.0208
10618TIP3    H253270   0.078   6.216  11.396 -0.3458  0.6844 -0.4193
10619TIP3   OH253271   3.399   6.321  16.285 -0.1314 -0.3442 -0.0425
10619TIP3    H153272   3.429   6.370  16.208 -0.3441  1.2112  0.8085
10619TIP3    H253273   3.450   6.241  16.284  2.1919  1.0485 -0.0776
10620TIP3   OH253274   0.787   6.153   3.799 -0.0956  0.7350 -0.2150
10620TIP3    H153275   0.741   6.131   3.879 -0.2134 -0.4645 -0.5924
10620TIP3    H253276   0.744   6.099   3.731  1.5844 -0.1290 -0.6402
10621TIP3   OH253277   5.597   0.409   5.457  0.1993 -0.1809  0.1998
10621TIP3    H153278   5.634   0.331   5.498  1.7830  0.6704  0.4526
10621TIP3    H253279   5.651   0.424   5.380  1.5466  2.0597  1.4800
10622TIP3   OH253280   1.586   1.303   3.036  0.1916 -0.0505  0.3096
10622TIP3    H153281   1.629   1.248   2.971  0.2662  1.3533 -0.8819
10622TIP3    H253282   1.571   1.386   2.991 -0.0599  0.8589  1.9890
10623TIP3   OH253283   4.052   3.259  14.235  0.0830  0.5310 -0.0871
10623TIP3    H153284   4.024   3.210  14.158  2.4822 -0.1140 -0.6265
10623TIP3    H253285   4.119   3.319  14.203 -1.0737  2.5256  0.9994
10624TIP3   OH253286   0.184   4.176   6.595  0.6955 -0.2433  1.0259
10624TIP3    H153287   0.273   4.186   6.627  0.8938 -1.0124  0.7373
10624TIP3    H253288   0.178   4.083   6.570 -0.4964 -0.4490  1.9982
10625TIP3   OH253289   5.758   3.726   1.512 -0.1404 -0.0842  0.4993
10625TIP3    H153290   5.676   3.676   1.519 -0.1008 -0.1223  0.6915
10625TIP3    H253291   5.735   3.814   1.542 -0.6824  0.5539 -1.6134
10626TIP3   OH253292   0.157   1.646   0.407  0.1182  0.7361  0.2011
10626TIP3    H153293   0.204   1.595   0.473  1.8367  0.5222 -1.0893
10626TIP3    H253294   0.188   1.610   0.324 -2.7114  0.3233 -0.7654
10627TIP3   OH253295   1.426   3.770   5.183  0.1757 -0.0778  0.2831
10627TIP3    H153296   1.468   3.829   5.120 -1.2863 -1.3907 -2.0592
10627TIP3    H253297   1.500   3.730   5.230  1.3836  0.3320 -1.1803
10628TIP3   OH253298   0.304   5.587  16.935 -0.1058 -0.1453 -0.0708
10628TIP3    H153299   0.283   5.494  16.943 -1.1829  0.0485 -0.5381
10628TIP3    H253300   0.245   5.620  16.867 -0.2178  1.0267  0.5695
10629TIP3   OH253301   0.937   3.889  12.978  0.1834  0.1429  0.5191
10629TIP3    H153302   0.902   3.860  12.894 -1.1654  0.9435  0.7849
10629TIP3    H253303   0.989   3.815  13.009 -0.4313 -0.6834 -0.3768
10630TIP3   OH253304   5.378   4.130   5.810  0.1285  0.0517 -0.1474
10630TIP3    H153305   5.391   4.053   5.754  1.8107  0.6003 -0.5605
10630TIP3    H253306   5.339   4.195   5.752 -1.0560 -0.3758  0.1387
10631TIP3   OH253307   0.985   5.997   5.468  0.1208 -0.1604  0.2543
10631TIP3    H153308   1.021   6.085   5.457  1.8877 -1.0581 -1.7371
10631TIP3    H253309   1.053   5.948   5.513  0.8480 -1.4697 -2.1200
10632TIP3   OH253310   3.668   2.903   5.419 -0.1279  0.3793 -0.2493
10632TIP3    H153311   3.714   2.822   5.442 -1.0700  0.0285  0.4831
10632TIP3    H253312   3.577   2.887   5.447 -0.1641  1.9866  0.6420
10633TIP3   OH253313   0.030   4.894   0.241  0.7361  0.4255 -0.7854
10633TIP3    H153314   0.012   4.810   0.199 -1.1306  0.7705 -0.7544
10633TIP3    H253315  -0.010   4.959   0.184 -0.4799  1.0262  0.6692
10634TIP3   OH253316   4.846   4.052  14.811 -0.9016  0.0406  0.3369
10634TIP3    H153317   4.901   4.030  14.886 -0.8690 -2.4591 -0.3450
10634TIP3    H253318   4.906   4.053  14.736 -1.4466 -0.7915 -0.1244
10635TIP3   OH253319   6.503   2.424   1.322  0.2333 -0.8568  0.7365
10635TIP3    H153320   6.430   2.486   1.320 -1.3199 -2.5211  1.7005
10635TIP3    H253321   6.524   2.409   1.230  0.9932  1.4056  0.4853
10636TIP3   OH253322   0.619   0.918   6.386  0.2365  0.2419 -0.6536
10636TIP3    H153323   0.667   0.998   6.406  1.7425  0.0931 -3.1355
10636TIP3    H253324   0.669   0.848   6.428  0.0454  0.4257 -0.1207
10637TIP3   OH253325   4.068   4.274   5.300 -0.1874  0.3876 -0.3688
10637TIP3    H153326   4.095   4.230   5.220  0.5393 -0.5180  0.3550
10637TIP3    H253327   4.087   4.367   5.284 -1.2178  0.3969 -1.6966
10638TIP3   OH253328   1.220   6.653   1.820  0.0339 -0.0562  0.3206
10638TIP3    H153329   1.165   6.614   1.888 -0.3306 -0.9139 -0.4516
10638TIP3    H253330   1.248   6.579   1.767  0.6595  0.5628 -0.2138
10639TIP3   OH253331   6.604   5.275  11.816 -0.3765 -0.3240  0.3405
10639TIP3    H153332   6.634   5.255  11.905  0.6583 -1.0942 -0.1657
10639TIP3    H253333   6.654   5.353  11.791 -0.2991 -0.4061  0.2410
10640TIP3   OH253334   4.674   1.715   1.261  0.3204 -0.4061  0.0032
10640TIP3    H153335   4.740   1.697   1.194 -0.4858 -2.0778 -0.4016
10640TIP3    H253336   4.681   1.641   1.322 -0.4577 -0.0507  0.5401
10641TIP3   OH253337   4.894   2.100  15.745 -0.0987  0.1089  0.3193
10641TIP3    H153338   4.853   2.186  15.754 -1.0388 -0.2324 -0.4337
10641TIP3    H253339   4.982   2.111  15.779 -0.7677  0.9178  1.8572
10642TIP3   OH253340   1.755   1.860  13.109  1.2700 -0.4771  0.0316
10642TIP3    H153341   1.822   1.928  13.099 -0.0211  0.6876 -1.1596
10642TIP3    H253342   1.788   1.786  13.058  2.0852 -0.2719  0.2459
10643TIP3   OH253343   4.740   3.686  15.127  0.0097  0.0663  0.2884
10643TIP3    H153344   4.720   3.594  15.144 -0.4198  0.0844 -0.0907
10643TIP3    H253345   4.759   3.723  15.213  1.7417 -0.7333  0.2846
10644TIP3   OH253346   4.435   3.616   6.329  0.9138  0.2882 -0.2312
10644TIP3    H153347   4.371   3.686   6.316  2.0036  1.3904  0.1688
10644TIP3    H253348   4.512   3.660   6.364  0.9700 -1.3973  1.9389
10645TIP3   OH253349   5.054   5.096  14.914  0.3992 -0.1477  0.0077
10645TIP3    H153350   5.089   5.185  14.913  0.5893 -0.2255 -0.6910
10645TIP3    H253351   4.961   5.107  14.934 -0.0200  0.3908 -1.9561
10646TIP3   OH253352   1.216   1.189  11.482  0.1968  0.3671  0.0837
10646TIP3    H153353   1.302   1.230  11.493 -1.2623  3.5199  0.9298
10646TIP3    H253354   1.189   1.213  11.394 -0.0031 -0.2587 -0.0298
10647TIP3   OH253355   5.543   2.851  12.301  0.3219 -0.1850  0.4765
10647TIP3    H153356   5.561   2.782  12.238 -1.4367 -1.5335  1.3778
10647TIP3    H253357   5.560   2.932  12.252  0.4514 -1.1930 -1.2438
10648TIP3   OH253358   1.817   4.992  16.361  0.3158  0.3749  0.6447
10648TIP3    H153359   1.838   4.955  16.275  0.8430  1.7641  0.1543
10648TIP3    H253360   1.840   4.923  16.423  2.3870  0.2780 -0.1639
10649TIP3   OH253361   5.210   5.231   0.525 -0.2666  0.2476  0.5656
10649TIP3    H153362   5.119   5.250   0.548 -0.5508 -1.7105  1.2466
10649TIP3    H253363   5.233   5.155   0.579  1.3033 -0.1925 -0.6523
10650TIP3   OH253364   5.750   4.112   0.509  0.4728  0.4068  0.1141
10650TIP3    H153365   5.799   4.033   0.483  0.5084  0.7456 -0.8649
10650TIP3    H253366   5.818   4.171   0.542  0.4566  0.0818  0.7671
10651TIP3   OH253367   4.503   1.514   0.709 -0.1976 -0.2532 -0.0839
10651TIP3    H153368   4.418   1.474   0.690  0.0867 -0.5038 -0.8310
10651TIP3    H253369   4.481   1.597   0.752 -0.8064 -0.6813  0.4521
10652TIP3   OH253370   6.424   5.459  15.315  0.1103  0.3024 -0.0057
10652TIP3    H153371   6.514   5.494  15.317 -0.0047  0.5835  0.4156
10652TIP3    H253372   6.381   5.509  15.246  0.2862  0.1469 -0.2292
10653TIP3   OH253373   2.280   4.106  11.794 -0.0476 -0.3058  0.6246
10653TIP3    H153374   2.230   4.122  11.873 -2.9220  0.1893 -1.1370
10653TIP3    H253375   2.217   4.067  11.733  0.9953  2.4423 -2.5161
10654TIP3   OH253376   5.041   2.149  11.956  0.4861  0.0563  0.1506
10654TIP3    H153377   4.962   2.103  11.985  0.7574 -0.4383  0.1167
10654TIP3    H253378   5.013   2.195  11.877  0.3324 -0.4660 -0.1102
10655TIP3   OH253379   5.116   5.801  15.183  0.0296  0.0066 -0.1123
10655TIP3    H153380   5.094   5.777  15.273 -0.8751  1.4852  0.1040
10655TIP3    H253381   5.171   5.879  15.192  0.6211 -0.3223 -0.8272
10656TIP3   OH253382   1.286   0.176  16.658  0.4046 -0.3381 -0.6188
10656TIP3    H153383   1.212   0.217  16.614  0.6491 -0.7246 -1.4092
10656TIP3    H253384   1.306   0.099  16.605  1.5318 -0.0984 -0.5652
10657TIP3   OH253385   1.987   6.052   4.085  0.4216 -0.4971 -0.3984
10657TIP3    H153386   1.987   6.059   4.181 -2.1718 -2.2911 -0.1574
10657TIP3    H253387   1.967   6.140   4.055 -0.9499 -0.3271  0.8692
10658TIP3   OH253388   6.645   4.563  16.817 -0.6526  0.3320 -0.6713
10658TIP3    H153389   6.711   4.528  16.757  0.1706 -0.9385  0.9192
10658TIP3    H253390   6.584   4.610  16.760 -0.2258 -1.2942 -2.5800
10659TIP3   OH253391   1.347   5.133   2.333  0.3141  0.1055 -0.1246
10659TIP3    H153392   1.368   5.223   2.358 -2.1256  0.6562  0.1041
10659TIP3    H253393   1.325   5.089   2.415 -1.8638  0.2792 -0.5744
10660TIP3   OH253394   5.677   0.770   3.944 -0.4629 -0.2534  0.4984
10660TIP3    H153395   5.622   0.729   3.877  1.5162 -1.9614 -0.1944
10660TIP3    H253396   5.671   0.711   4.019  0.9848 -0.8894  0.1383
10661TIP3   OH253397   0.918   2.818   6.432  0.1243  0.1634 -0.0306
10661TIP3    H153398   0.892   2.893   6.378 -0.2577 -0.2901 -0.4886
10661TIP3    H253399   0.852   2.751   6.414  0.8255 -0.5188 -0.1435
10662TIP3   OH253400   2.656   4.823   0.181  0.5309 -0.1661  1.0830
10662TIP3    H153401   2.676   4.739   0.223 -0.9059 -1.2741 -0.3050
10662TIP3    H253402   2.667   4.805   0.087 -4.6997 -0.4111  0.2499
10663TIP3   OH253403   0.803   4.142  14.958  0.0357  0.4998 -0.3074
10663TIP3    H153404   0.750   4.142  15.038  0.4699 -0.0420 -0.0125
10663TIP3    H253405   0.892   4.160  14.988 -0.0112  1.6354 -0.8294
10664TIP3   OH253406   5.826   6.401  15.512  0.0392  0.2528  0.2605
10664TIP3    H153407   5.854   6.400  15.420  0.4679  1.0472  0.3792
10664TIP3    H253408   5.781   6.485  15.522 -2.0213 -0.7759  0.2006
10665TIP3   OH253409   3.709   1.055   1.268  0.0790 -0.0270  0.1627
10665TIP3    H153410   3.652   0.994   1.315  1.3853 -0.2137  1.5822
10665TIP3    H253411   3.782   1.000   1.238  1.0509  0.7383  1.0780
10666TIP3   OH253412   3.464   6.043  16.507 -0.3110 -0.6563  0.7025
10666TIP3    H153413   3.504   6.070  16.424 -0.2826  1.3067  1.2926
10666TIP3    H253414   3.374   6.018  16.484  0.0265 -1.1982 -0.0571
10667TIP3   OH253415   6.358   6.128   3.143 -0.7688  0.1155  0.0228
10667TIP3    H153416   6.401   6.072   3.078  3.6222  0.8765  1.9295
10667TIP3    H253417   6.354   6.214   3.101 -1.5294 -0.1719 -0.5368
10668TIP3   OH253418   4.922   2.652  12.275  0.1437 -0.0564 -0.4064
10668TIP3    H153419   4.942   2.559  12.268 -1.5330 -0.4154 -0.9708
10668TIP3    H253420   4.852   2.666  12.211 -0.6822  1.2742  0.7271
10669TIP3   OH253421   2.185   5.533  16.099 -0.2084  0.4958 -0.3160
10669TIP3    H153422   2.125   5.574  16.036  1.1927  0.3309 -1.8200
10669TIP3    H253423   2.127   5.484  16.158 -1.5606  0.0031 -1.9547
10670TIP3   OH253424   2.877   5.964   0.520 -0.5049  0.4188 -0.0635
10670TIP3    H153425   2.938   5.971   0.446  0.1861 -1.4849  0.2735
10670TIP3    H253426   2.878   6.051   0.559  0.1024  1.1139 -1.5229
10671TIP3   OH253427   6.410   4.509  12.188 -0.3803 -0.1075  0.3356
10671TIP3    H153428   6.492   4.461  12.181 -0.7434 -0.7863  0.6378
10671TIP3    H253429   6.436   4.601  12.195  0.4087 -0.4116  1.7497
10672TIP3   OH253430   4.883   4.012  16.416  0.1157  0.4014  0.4960
10672TIP3    H153431   4.951   4.078  16.423  0.3226  0.3588 -0.8779
10672TIP3    H253432   4.921   3.934  16.456  0.5224  0.6457  0.5895
10673TIP3   OH253433   6.502   6.631  15.029  0.0812 -0.2489 -0.0408
10673TIP3    H153434   6.436   6.689  14.991 -0.9980 -1.9587 -0.9326
10673TIP3    H253435   6.540   6.585  14.954  0.5452 -1.0369  0.6505
10674TIP3   OH253436   0.439   0.282  13.272 -0.0433 -0.2639  0.4505
10674TIP3    H153437   0.346   0.265  13.286 -0.1375 -0.6697 -0.5693
10674TIP3    H253438   0.480   0.258  13.355 -1.0293  1.7555  1.6102
10675TIP3   OH253439   5.820   1.362  14.193 -0.5686  0.2333 -0.1560
10675TIP3    H153440   5.826   1.314  14.276 -0.5433  1.0397  0.3202
10675TIP3    H253441   5.829   1.294  14.125 -0.3590 -0.4056  0.4976
10676TIP3   OH253442   3.992   2.513  13.721  0.0261  0.6400  1.0707
10676TIP3    H153443   4.018   2.571  13.649 -1.3790 -0.6302 -0.5355
10676TIP3    H253444   3.913   2.470  13.690  1.1555 -2.3925  2.0408
10677TIP3   OH253445   2.146   2.039   2.568 -0.3202  0.2693 -0.6478
10677TIP3    H153446   2.219   2.067   2.622  0.4965 -2.9014  0.1130
10677TIP3    H253447   2.069   2.074   2.612  0.4475 -0.7336  1.6741
10678TIP3   OH253448   2.033   1.832   0.631 -0.4654  1.0163  0.4570
10678TIP3    H153449   1.988   1.814   0.714  0.8636  0.8276  1.1600
10678TIP3    H253450   2.125   1.816   0.650  0.0130  2.2206 -0.7194
10679TIP3   OH253451   5.034   3.223   2.855 -0.1502  0.0922 -0.0325
10679TIP3    H153452   5.111   3.243   2.908  0.5206 -1.6881 -0.2502
10679TIP3    H253453   4.972   3.293   2.874  0.2956 -0.1388  2.6117
10680TIP3   OH253454   6.544   6.249   1.680 -0.5748 -0.0626  0.3644
10680TIP3    H153455   6.634   6.217   1.693 -0.6637  0.1692  1.6827
10680TIP3    H253456   6.490   6.191   1.733 -0.8384  1.6493  2.0717
10681TIP3   OH253457   5.061   0.783   0.709 -0.0669  0.1206 -0.1822
10681TIP3    H153458   5.102   0.717   0.653  0.5538  0.2311  0.1411
10681TIP3    H253459   5.113   0.862   0.695 -0.3613  0.3458 -0.0073
10682TIP3   OH253460   3.719   1.283  16.075 -0.4172  0.0373 -0.0119
10682TIP3    H153461   3.770   1.301  16.154  2.0627 -1.1474 -1.2284
10682TIP3    H253462   3.689   1.368  16.045 -0.5943  0.6023  1.6697
10683TIP3   OH253463   3.120   0.571   3.526 -0.2369  0.2613 -0.4989
10683TIP3    H153464   3.215   0.562   3.516  0.0269  1.2595  0.8017
10683TIP3    H253465   3.087   0.482   3.532  0.5665 -0.1026 -1.3183
10684TIP3   OH253466   6.182   0.011  12.516  0.3493  0.1086 -0.8390
10684TIP3    H153467   6.260  -0.043  12.512  0.5761  0.4599 -1.1878
10684TIP3    H253468   6.193   0.076  12.447 -0.5361 -0.2258 -1.3184
10685TIP3   OH253469   0.047   3.999   1.324 -0.6224  0.3200 -0.4660
10685TIP3    H153470   0.051   4.089   1.358  1.4931 -0.4702  1.5941
10685TIP3    H253471   0.088   4.005   1.237 -1.1900  1.4431 -0.6860
10686TIP3   OH253472   0.504   5.400  13.303  0.2521  0.1292 -0.2833
10686TIP3    H153473   0.482   5.493  13.291 -1.3570 -0.0721  0.7970
10686TIP3    H253474   0.437   5.353  13.254 -0.5496 -0.4812  1.3272
10687TIP3   OH253475   0.928   0.708  14.606 -0.0943  0.2491  0.1304
10687TIP3    H153476   0.865   0.661  14.660  1.0807 -0.1786  1.1683
10687TIP3    H253477   0.996   0.643  14.586 -0.4249  0.4273 -1.7795
10688TIP3   OH253478   4.369   1.949   3.624 -0.4419 -0.0655 -0.6717
10688TIP3    H153479   4.378   1.950   3.719  0.1813  1.8368 -0.7169
10688TIP3    H253480   4.285   1.905   3.609  0.5932 -2.6843  0.5984
10689TIP3   OH253481   5.073   5.242  16.979 -0.2208  0.2660  0.1973
10689TIP3    H153482   5.105   5.303  16.912 -0.2091  0.0784  0.0327
10689TIP3    H253483   5.143   5.177  16.988 -0.8648 -0.5806 -0.7104
10690TIP3   OH253484   0.938   4.109  12.744 -0.1535  0.0944  0.4198
10690TIP3    H153485   1.019   4.073  12.779 -0.3452 -1.3670 -0.5606
10690TIP3    H253486   0.936   4.199  12.776  1.6968  0.0699  0.7089
10691TIP3   OH253487   6.473   5.506   4.795 -0.5193 -0.1491  0.9612
10691TIP3    H153488   6.535   5.572   4.824  0.4574 -0.4072 -0.4357
10691TIP3    H253489   6.521   5.453   4.731 -1.8575 -1.0064  0.6024
10692TIP3   OH253490   5.303   4.139  16.696 -0.3461 -0.2841 -0.3280
10692TIP3    H153491   5.323   4.228  16.724 -1.4145 -0.3772  0.8276
10692TIP3    H253492   5.316   4.085  16.775 -0.5632 -1.0169 -0.7780
10693TIP3   OH253493   1.386   6.562  15.726 -0.3560 -0.3551 -0.5315
10693TIP3    H153494   1.446   6.557  15.801  0.0658  0.9315 -0.7584
10693TIP3    H253495   1.436   6.525  15.653  0.2447  0.8211 -0.7477
10694TIP3   OH253496   4.746   6.561  11.558 -0.1937 -0.1635  0.2823
10694TIP3    H153497   4.753   6.479  11.607 -1.7387 -0.7776 -0.4552
10694TIP3    H253498   4.664   6.553  11.510  1.4190  0.2052 -2.7635
10695TIP3   OH253499   4.068   1.944  15.428 -0.0092 -0.1612 -0.3883
10695TIP3    H153500   4.087   2.037  15.416 -1.1125  0.1243 -0.0467
10695TIP3    H253501   4.083   1.930  15.522  0.1096 -0.3245 -0.4313
10696TIP3   OH253502   4.620   1.600   2.993  0.2105 -0.1202  0.4619
10696TIP3    H153503   4.707   1.596   2.953  0.6156 -0.1967  1.3261
10696TIP3    H253504   4.565   1.546   2.937  1.0437 -1.2471  0.7051
10697TIP3   OH253505   4.610   5.410  17.241 -0.2228 -0.3720  0.1481
10697TIP3    H153506   4.567   5.449  17.165 -0.1033  1.0135  0.7632
10697TIP3    H253507   4.542   5.355  17.281 -0.6001 -0.2993 -0.3837
10698TIP3   OH253508   6.445   2.732   1.224 -0.1377  0.3310 -0.1688
10698TIP3    H153509   6.478   2.797   1.162 -1.3264  0.1907 -0.9801
10698TIP3    H253510   6.493   2.749   1.305  0.8720  1.0354 -0.8900
10699TIP3   OH253511   5.778   0.039   4.344  0.0441  0.0871 -0.1578
10699TIP3    H153512   5.742  -0.002   4.423 -0.4201  0.6889 -0.0438
10699TIP3    H253513   5.828  -0.031   4.301 -0.0568 -0.3649  0.4436
10700TIP3   OH253514   6.126   4.893   3.591  0.3791  0.2893  0.2381
10700TIP3    H153515   6.136   4.975   3.542  1.4610 -0.4110 -0.7645
10700TIP3    H253516   6.211   4.850   3.582 -1.1300 -2.5378 -2.2092
10701TIP3   OH253517   3.699   3.403  15.247  0.3249  0.0032 -0.3844
10701TIP3    H153518   3.614   3.395  15.203  1.3650  2.5827 -3.2323
10701TIP3    H253519   3.679   3.390  15.340 -2.9037 -0.8786 -1.0613
10702TIP3   OH253520   5.796   4.418  13.632  0.3886  0.4686  0.4016
10702TIP3    H153521   5.717   4.376  13.598  0.2763 -0.2522  1.4786
10702TIP3    H253522   5.793   4.506  13.597 -0.8730  0.4379  0.3592
10703TIP3   OH253523   3.781   6.343   0.884 -0.0669 -0.3163  0.3281
10703TIP3    H153524   3.701   6.389   0.911  0.9730  1.6475  0.2690
10703TIP3    H253525   3.830   6.408   0.832  1.2239 -1.7069 -0.2749
10704TIP3   OH253526   0.458   5.073   1.590 -0.5775  0.3978 -0.6328
10704TIP3    H153527   0.378   5.065   1.538 -0.6160  0.3727 -0.5697
10704TIP3    H253528   0.428   5.089   1.679 -0.5681 -2.0599 -0.1388
10705TIP3   OH253529   5.757   4.711  16.184 -0.2972 -0.1957  0.3396
10705TIP3    H153530   5.823   4.644  16.163 -1.0373 -0.4160 -1.4710
10705TIP3    H253531   5.682   4.661  16.217 -1.1723 -0.4083 -1.8259
10706TIP3   OH253532   5.090   1.028   4.829  0.0573  0.3146  0.5397
10706TIP3    H153533   5.173   1.016   4.876  0.0573 -0.6005  0.3222
10706TIP3    H253534   5.026   0.977   4.879 -0.2801  0.6371  0.4414
10707TIP3   OH253535   2.346   1.397  14.843  0.2037 -0.0894  0.3390
10707TIP3    H153536   2.414   1.369  14.782 -1.5234  2.3922 -3.0810
10707TIP3    H253537   2.289   1.321  14.851  0.7231 -0.6443 -0.8808
10708TIP3   OH253538   6.283   4.061  13.611 -0.0838 -0.5356  0.5672
10708TIP3    H153539   6.309   4.105  13.692  0.5596 -0.5535  0.3835
10708TIP3    H253540   6.197   4.024  13.629 -0.3794  0.3008  0.9171
10709TIP3   OH253541   1.376   6.180  11.780  0.0494 -0.0065 -0.2282
10709TIP3    H153542   1.313   6.120  11.741  0.6072 -1.2128  0.6607
10709TIP3    H253543   1.399   6.240  11.709 -0.8437 -0.5754 -1.0170
10710TIP3   OH253544   1.535   4.608  13.956  0.1239  0.4320 -0.1188
10710TIP3    H153545   1.480   4.670  13.908  1.3309  1.5886 -0.0633
10710TIP3    H253546   1.582   4.561  13.888  0.4438  0.7521 -0.1195
10711TIP3   OH253547   0.593   6.514   5.338 -0.3682  0.0757  0.6084
10711TIP3    H153548   0.606   6.607   5.325 -1.7392  0.3507  1.0516
10711TIP3    H253549   0.664   6.487   5.396  0.0159  0.8452  0.4953
10712TIP3   OH253550   2.967   5.627  13.881  0.0903 -0.2017 -0.1342
10712TIP3    H153551   2.913   5.576  13.821  1.9299  0.4097 -2.4968
10712TIP3    H253552   3.034   5.666  13.824  2.3034 -0.0171  2.4293
10713TIP3   OH253553   6.240   1.567  17.449 -0.3781 -0.5643  0.5920
10713TIP3    H153554   6.318   1.595  17.402 -0.0229 -0.6012  1.1579
10713TIP3    H253555   6.264   1.571  17.541 -1.4487  0.6588  0.8407
10714TIP3   OH253556   2.275   4.840  14.888 -0.3353  0.3316 -0.0381
10714TIP3    H153557   2.324   4.918  14.913 -2.0278  1.2069  0.7082
10714TIP3    H253558   2.187   4.872  14.868 -1.4762 -1.5287  1.6101
10715TIP3   OH253559   2.470   4.128  11.324  0.8375 -0.6671  0.2939
10715TIP3    H153560   2.383   4.131  11.284  1.1415 -0.0423 -0.3542
10715TIP3    H253561   2.454   4.140  11.417  0.3481  1.8579 -0.0267
10716TIP3   OH253562   6.271   5.355   4.903  0.4440 -0.1725 -0.5667
10716TIP3    H153563   6.302   5.264   4.904  0.9004 -0.0866 -2.4635
10716TIP3    H253564   6.346   5.405   4.871  0.3247  0.9637  0.8395
10717TIP3   OH253565   0.193   4.798   3.735 -0.1233 -0.2081 -0.4342
10717TIP3    H153566   0.166   4.709   3.760  1.5521 -1.0555 -1.4796
10717TIP3    H253567   0.268   4.785   3.677 -0.7877  1.8451 -1.8701
10718TIP3   OH253568   6.036   6.210   3.655  0.2392 -0.1959 -0.1052
10718TIP3    H153569   6.010   6.302   3.649  1.0548  0.0313 -0.1926
10718TIP3    H253570   6.128   6.209   3.629  0.3614 -0.9727  0.3301
10719TIP3   OH253571   4.594   1.029  16.645 -0.7124  0.3174 -0.3134
10719TIP3    H153572   4.574   1.048  16.554 -0.8518  1.0329 -0.1339
10719TIP3    H253573   4.571   1.108  16.693 -0.8824 -0.1431  0.3824
10720TIP3   OH253574   4.943   3.088   5.668  0.0045 -0.4427 -0.1540
10720TIP3    H153575   4.917   3.095   5.576 -0.7340 -1.3276 -0.0298
10720TIP3    H253576   4.949   2.994   5.683 -0.0013 -0.3034  0.7355
10721TIP3   OH253577   6.328   4.346  15.110  0.5499 -0.1691 -0.2733
10721TIP3    H153578   6.276   4.398  15.171 -1.5906  0.4340 -2.4523
10721TIP3    H253579   6.418   4.355  15.141 -0.2869  1.1165  2.0159
10722TIP3   OH253580   0.182   5.863  11.423  0.2857  0.1269  0.3869
10722TIP3    H153581   0.228   5.785  11.395 -1.3141 -1.1152  1.0767
10722TIP3    H253582   0.170   5.914  11.342  1.0578 -0.4856 -0.1205
10723TIP3   OH253583   3.886   4.394   5.948 -0.4094 -0.1626 -0.2462
10723TIP3    H153584   3.791   4.401   5.948 -0.3865  0.1611  0.5330
10723TIP3    H253585   3.907   4.362   5.860 -1.2787 -0.8432 -0.2242
10724TIP3   OH253586   6.662   2.022  14.720  0.7885  0.0803 -0.3029
10724TIP3    H153587   6.574   2.061  14.714  1.3373  1.5532  0.5637
10724TIP3    H253588   6.684   2.027  14.813  2.7160  1.9507 -0.7847
10725TIP3   OH253589   1.329   3.161  14.677  0.2772 -0.3977 -0.0036
10725TIP3    H153590   1.252   3.106  14.691 -1.0062  0.8075 -1.8218
10725TIP3    H253591   1.334   3.172  14.582  1.0457  1.7838  0.2277
10726TIP3   OH253592   1.254   1.710  15.796  0.2829 -0.2078 -0.3206
10726TIP3    H153593   1.266   1.782  15.858  0.3766  0.2641 -0.8738
10726TIP3    H253594   1.305   1.736  15.719 -1.0085 -0.0618 -1.1620
10727TIP3   OH253595   3.444   1.265   1.045  0.4988  0.1144 -0.5500
10727TIP3    H153596   3.433   1.352   1.081  2.1126 -0.4083  1.3932
10727TIP3    H253597   3.508   1.276   0.975  0.0236  0.6056 -0.9146
10728TIP3   OH253598   3.535   2.130   3.519 -0.1875  0.5114  1.1002
10728TIP3    H153599   3.464   2.183   3.483  0.4718  1.4858  1.1866
10728TIP3    H253600   3.539   2.155   3.611  0.6438  0.9322  0.9667
10729TIP3   OH253601   0.697   1.156   0.968 -0.9930  0.3300  0.1881
10729TIP3    H153602   0.623   1.200   1.010 -0.0189  2.0430  0.1830
10729TIP3    H253603   0.741   1.225   0.919  1.1026 -0.4768  0.8508
10730TIP3   OH253604   5.999   1.409  12.964  0.1319  0.1554 -0.4967
10730TIP3    H153605   6.060   1.478  12.937 -0.8150  1.6111  0.8707
10730TIP3    H253606   5.922   1.457  12.997 -1.8150 -1.5854 -2.2069
10731TIP3   OH253607   0.665   2.189  14.116  0.0951 -0.6717  0.2524
10731TIP3    H153608   0.653   2.267  14.170 -0.0296 -1.1689  0.9629
10731TIP3    H253609   0.671   2.222  14.027 -0.9259  0.0690  0.4371
10732TIP3   OH253610   5.102   2.876   4.685 -0.1180 -0.8579  0.1835
10732TIP3    H153611   5.164   2.945   4.664 -1.4165  1.0598  2.2657
10732TIP3    H253612   5.038   2.879   4.614  1.9423 -2.8147 -1.9568
10733TIP3   OH253613   4.482   4.915   5.971 -0.6064 -1.0538 -0.0845
10733TIP3    H153614   4.532   4.835   5.961  1.8149  0.4009 -0.4836
10733TIP3    H253615   4.441   4.928   5.885  1.9251 -0.1066 -1.2499
10734TIP3   OH253616   5.641   0.119  12.531 -0.3538  0.3160  0.5523
10734TIP3    H153617   5.683   0.127  12.617 -0.6091  1.4541  0.5864
10734TIP3    H253618   5.708   0.145  12.468 -0.4354  0.3276  0.4691
10735TIP3   OH253619   0.014   5.753  16.159 -0.4861 -0.6368 -0.0440
10735TIP3    H153620  -0.019   5.841  16.144 -0.9159 -0.9291 -0.8836
10735TIP3    H253621  -0.029   5.700  16.092 -0.4195 -1.5293  0.6033
10736TIP3   OH253622   4.394   2.320   4.991  0.4098  0.5391 -0.1287
10736TIP3    H153623   4.403   2.386   5.060 -1.2512  0.8947 -0.2117
10736TIP3    H253624   4.301   2.299   4.990  0.6560 -0.6323 -1.2061
10737TIP3   OH253625   2.695   3.619  14.250 -0.2656 -0.2531 -0.4379
10737TIP3    H153626   2.658   3.702  14.220  0.7170  0.3571 -0.0257
10737TIP3    H253627   2.786   3.621  14.221 -0.2141 -1.1677 -0.3727
10738TIP3   OH253628   1.129   4.125  11.225  0.5644 -0.6575  0.1802
10738TIP3    H153629   1.202   4.094  11.171  0.9777  0.8980 -0.2115
10738TIP3    H253630   1.101   4.206  11.183 -2.0527 -1.6734 -0.2291
10739TIP3   OH253631   4.790   0.720  15.848 -0.1089  0.6460  0.3685
10739TIP3    H153632   4.881   0.703  15.824 -0.5035 -1.8908  0.4197
10739TIP3    H253633   4.762   0.790  15.788  1.5533  0.7268 -0.3658
10740TIP3   OH253634   3.943   3.960  11.683 -0.2098  0.4215  0.0399
10740TIP3    H153635   3.978   4.009  11.609 -2.6084  1.1901 -0.6919
10740TIP3    H253636   4.002   3.886  11.693  1.4710  1.5201 -1.1642
10741TIP3   OH253637   0.046   4.629   1.819 -0.3909 -0.0555 -0.7682
10741TIP3    H153638  -0.025   4.683   1.853 -0.6419 -1.2546  0.7404
10741TIP3    H253639   0.044   4.550   1.874  1.5025 -0.5276 -1.3112
10742TIP3   OH253640   4.779   0.604   5.639  0.2568  0.2446  0.4861
10742TIP3    H153641   4.856   0.658   5.661  0.1800  0.1083  1.1309
10742TIP3    H253642   4.816   0.519   5.616  0.5398  1.0960 -2.6022
10743TIP3   OH253643   5.334   3.154   0.654 -0.6525  0.4566 -0.0008
10743TIP3    H153644   5.264   3.212   0.684 -0.8219  0.5688 -0.5915
10743TIP3    H253645   5.334   3.082   0.716 -0.8194  0.8105  0.4147
10744TIP3   OH253646   3.473   1.643   3.212  0.4515  0.0112 -0.5205
10744TIP3    H153647   3.418   1.667   3.138 -0.8294  0.2991  0.4898
10744TIP3    H253648   3.476   1.722   3.267  0.6985 -0.4418  0.1403
10745TIP3   OH253649   5.216   2.523  17.147 -0.2543 -0.4636 -0.0444
10745TIP3    H153650   5.165   2.540  17.068  0.1263 -0.7981 -0.3668
10745TIP3    H253651   5.225   2.609  17.189 -1.9554 -0.5572  0.5743
10746TIP3   OH253652   6.436   2.372  13.997  0.1654 -0.0276  0.1612
10746TIP3    H153653   6.348   2.409  13.990  0.2800  0.1313 -0.4572
10746TIP3    H253654   6.483   2.432  14.055  0.6531  1.3946 -1.6244
10747TIP3   OH253655   2.136   6.663   3.348  0.2476  0.0772  0.2353
10747TIP3    H153656   2.065   6.691   3.290  0.2658 -1.2234 -0.4578
10747TIP3    H253657   2.209   6.644   3.289  0.5734 -0.3530  0.7657
10748TIP3   OH253658   0.484   3.657   5.095  0.2318  0.6820 -0.2000
10748TIP3    H153659   0.572   3.678   5.125  0.9747 -1.3034 -0.8685
10748TIP3    H253660   0.430   3.664   5.174  1.1505  0.9140  0.4254
10749TIP3   OH253661   3.619   1.616   0.395  0.4038  0.3149  0.1775
10749TIP3    H153662   3.706   1.646   0.368  0.4032  0.7599  0.6510
10749TIP3    H253663   3.560   1.688   0.375 -0.0129 -0.3219 -0.9550
10750TIP3   OH253664   3.326   0.542  13.030 -0.0628  0.1591  0.1347
10750TIP3    H153665   3.371   0.626  13.019 -0.7842  0.4505 -0.7730
10750TIP3    H253666   3.233   0.566  13.035 -0.4403 -0.6622 -1.8183
10751TIP3   OH253667   4.589   2.793  15.568 -0.5902 -0.3816  0.2544
10751TIP3    H153668   4.675   2.825  15.541 -1.0497  0.6034 -0.0832
10751TIP3    H253669   4.531   2.813  15.494 -1.2682 -0.3066  0.7935
10752TIP3   OH253670   1.543   0.523   2.154 -0.0852 -0.1189 -0.1245
10752TIP3    H153671   1.618   0.548   2.100 -1.0562 -1.8926 -2.4385
10752TIP3    H253672   1.467   0.529   2.095 -1.7888  1.2656  2.0279
10753TIP3   OH253673   4.267   2.498  13.488 -0.2637  0.1559  0.0226
10753TIP3    H153674   4.232   2.578  13.528 -0.4406  0.0544  0.0720
10753TIP3    H253675   4.236   2.428  13.545  0.8654  0.1413  0.6635
10754TIP3   OH253676   6.002   2.104  13.138  0.0132 -0.1429 -0.0881
10754TIP3    H153677   5.930   2.071  13.085 -0.1510  0.4483 -0.2345
10754TIP3    H253678   6.013   2.195  13.110  0.4926 -0.0846  0.2797
10755TIP3   OH253679   3.037   5.580  11.601 -0.1479  0.1192  0.1656
10755TIP3    H153680   3.060   5.543  11.686  1.7395 -0.3790 -0.5002
10755TIP3    H253681   2.979   5.653  11.621 -2.5512 -2.0500  1.6410
10756TIP3   OH253682   2.062   1.760  15.118  0.3185 -0.5521  0.1509
10756TIP3    H153683   2.090   1.833  15.174  0.2139 -1.8029  1.9210
10756TIP3    H253684   2.131   1.752  15.052  1.4562 -0.2458  1.2634
10757TIP3   OH253685   6.319   5.262   6.221 -0.0349 -0.0943 -0.2085
10757TIP3    H153686   6.276   5.311   6.151 -0.2417  1.3869  0.9062
10757TIP3    H253687   6.267   5.280   6.299  1.1424 -0.3256  0.6626
10758TIP3   OH253688   1.220   2.080  12.911 -0.1358 -0.4171 -0.4952
10758TIP3    H153689   1.274   2.155  12.933 -0.7755  0.2787 -1.2020
10758TIP3    H253690   1.258   2.045  12.830 -0.2482 -0.4333 -0.5417
10759TIP3   OH253691   5.776   2.091  12.587  0.0390  0.0456 -0.1565
10759TIP3    H153692   5.814   2.083  12.675  2.8185  3.6290 -0.7771
10759TIP3    H253693   5.833   2.036  12.532 -1.1380 -1.4545  0.0512
10760TIP3   OH253694   2.400   5.813   6.049 -0.2124 -0.0133 -0.2824
10760TIP3    H153695   2.459   5.886   6.067 -1.4508  0.9008  0.2205
10760TIP3    H253696   2.365   5.832   5.962  1.7797 -1.6744 -1.5547
10761TIP3   OH253697   0.745   0.795  12.398  0.5212 -0.1268  0.2967
10761TIP3    H153698   0.701   0.873  12.434 -1.0084 -0.5921 -0.4764
10761TIP3    H253699   0.716   0.791  12.307  1.3704 -1.0567  0.0507
10762TIP3   OH253700   0.638   2.812  14.692 -0.0226 -0.2750 -0.1346
10762TIP3    H153701   0.600   2.896  14.669 -1.6635 -0.5839  1.2318
10762TIP3    H253702   0.564   2.760  14.725  1.0153 -2.1048 -0.5448
10763TIP3   OH253703   1.724   4.402   0.094 -0.1048  0.4431 -0.0431
10763TIP3    H153704   1.652   4.338   0.094 -0.1590  0.4921 -0.6883
10763TIP3    H253705   1.680   4.487   0.091 -0.0668  0.5937  2.1058
10764TIP3   OH253706   4.972   2.247   4.126  0.4649 -0.0149 -0.1220
10764TIP3    H153707   4.914   2.222   4.053 -0.2633 -1.5424  0.9317
10764TIP3    H253708   5.035   2.175   4.131 -0.2580 -0.5789  1.5191
10765TIP3   OH253709   1.403   6.154  13.919 -0.5889 -0.1348 -0.3915
10765TIP3    H153710   1.348   6.178  13.844 -1.7203 -1.6854 -0.1018
10765TIP3    H253711   1.380   6.217  13.987 -1.3129 -0.1736 -0.5907
10766TIP3   OH253712   0.642   0.840  13.660 -0.7821  0.0298  0.0354
10766TIP3    H153713   0.660   0.747  13.655 -0.1814  0.1684 -0.4928
10766TIP3    H253714   0.554   0.850  13.624  0.4263  0.0472 -3.1803
10767TIP3   OH253715   1.100   2.012   4.364  0.2843  0.3541  0.3853
10767TIP3    H153716   1.059   2.006   4.278 -0.6779  3.0350  0.5817
10767TIP3    H253717   1.031   2.044   4.422  1.2483 -0.2069  1.9193
10768TIP3   OH253718   5.804   0.783  17.388  0.3706 -0.3588  0.3052
10768TIP3    H153719   5.877   0.829  17.347  0.9600 -1.3814  0.1654
10768TIP3    H253720   5.845   0.715  17.441 -0.4429 -2.4225 -1.5109
10769TIP3   OH253721   3.993   5.516  12.761 -0.1686  0.0192 -0.3679
10769TIP3    H153722   4.086   5.491  12.764 -0.6131 -1.9130 -0.9575
10769TIP3    H253723   3.991   5.607  12.790  1.9043  0.0856 -0.3059
10770TIP3   OH253724   6.515   2.140   2.380 -0.3352  0.0271 -0.2230
10770TIP3    H153725   6.528   2.225   2.337  0.1933  0.8098  1.3894
10770TIP3    H253726   6.420   2.133   2.390 -0.3460  2.2475  2.8761
10771TIP3   OH253727   0.087   6.313   1.800 -0.4703 -0.2495  0.0446
10771TIP3    H153728   0.058   6.227   1.831 -0.8895  0.1665  0.8477
10771TIP3    H253729   0.096   6.366   1.880  0.1523  0.3444 -0.4036
10772TIP3   OH253730   4.286   3.404  12.259  0.2419 -0.3312 -0.0642
10772TIP3    H153731   4.244   3.464  12.197 -2.1533 -0.3453  1.4287
10772TIP3    H253732   4.365   3.375  12.214  0.0292  1.7582 -1.9750
10773TIP3   OH253733   3.610   6.334   6.232  0.4106  0.1553  0.2070
10773TIP3    H153734   3.686   6.383   6.265 -0.5573  0.4887  2.0913
10773TIP3    H253735   3.639   6.242   6.233  1.4928  0.4363 -1.2292
10774TIP3   OH253736   3.780   2.145   3.326  0.5116 -0.6480 -0.7288
10774TIP3    H153737   3.719   2.160   3.398 -0.7315 -1.0511 -1.6793
10774TIP3    H253738   3.858   2.108   3.368  0.5120  0.7866  0.6295
10775TIP3   OH253739   2.960   5.443  12.324  0.5065 -0.9114  0.0322
10775TIP3    H153740   2.997   5.357  12.343  2.3778 -0.2135 -0.2222
10775TIP3    H253741   3.028   5.488  12.274  0.1595  1.2080  1.3420
10776TIP3   OH253742   0.822   5.313   3.873  0.3926  0.9734  0.3476
10776TIP3    H153743   0.885   5.302   3.945 -1.9182 -1.5024  2.2050
10776TIP3    H253744   0.781   5.227   3.864 -3.2803  2.5864 -0.1887
10777TIP3   OH253745   0.558   6.558   3.545  0.1984 -0.2493  0.3660
10777TIP3    H153746   0.576   6.538   3.453 -0.6104 -0.2131  0.1895
10777TIP3    H253747   0.554   6.472   3.588  0.7934 -0.2564  0.4164
10778TIP3   OH253748   3.406   0.889  16.290  0.0004  0.2365  0.2874
10778TIP3    H153749   3.426   0.927  16.205 -1.0118  2.8734  1.1018
10778TIP3    H253750   3.491   0.880  16.333  0.3732  0.7041 -0.3243
10779TIP3   OH253751   4.660   0.423   4.024  0.3293  0.7938  0.5573
10779TIP3    H153752   4.586   0.383   4.071 -0.4236  2.7614  1.1626
10779TIP3    H253753   4.717   0.350   4.002 -1.8023 -0.8090  0.0631
10780TIP3   OH253754   5.244   1.845   3.255 -0.0577  0.2557  0.3203
10780TIP3    H153755   5.241   1.918   3.317  0.4249  0.3044  0.2944
10780TIP3    H253756   5.166   1.855   3.201  1.4524  2.4756 -1.6277
10781TIP3   OH253757   0.531   0.241   1.868  0.2938 -0.3719 -0.6707
10781TIP3    H153758   0.518   0.147   1.880 -1.3535 -0.4232 -2.3808
10781TIP3    H253759   0.448   0.272   1.832  0.4862  1.9208  0.6754
10782TIP3   OH253760   6.560   4.810   5.514  0.0236  0.0640 -0.7902
10782TIP3    H153761   6.484   4.779   5.561  0.5553  0.7907  0.5961
10782TIP3    H253762   6.633   4.800   5.575  0.7161  1.1612 -1.3889
10783TIP3   OH253763   6.283   3.356   5.648  0.0383 -0.7243 -0.2928
10783TIP3    H153764   6.351   3.296   5.618 -0.0961 -1.5196  0.9072
10783TIP3    H253765   6.246   3.313   5.725 -2.7978 -0.9930 -1.6994
10784TIP3   OH253766   2.550   1.923  16.417  0.1653  0.1508  0.4165
10784TIP3    H153767   2.593   1.845  16.382  1.3306 -0.0268  2.1406
10784TIP3    H253768   2.485   1.946  16.350  0.8049 -1.4102 -0.8146
10785TIP3   OH253769   2.843   5.923  13.829  0.3286  0.2648 -0.0492
10785TIP3    H153770   2.832   5.954  13.919  0.2218 -1.6387  0.6543
10785TIP3    H253771   2.886   5.838  13.839 -0.2702 -0.2805 -1.7588
10786TIP3   OH253772   1.243   6.614  15.414 -0.6236  0.2750  0.4664
10786TIP3    H153773   1.296   6.570  15.348 -2.0536 -0.9249  0.0487
10786TIP3    H253774   1.199   6.542  15.460 -0.7357  1.1666  1.7823
10787TIP3   OH253775   6.120   0.995   3.987 -0.7027  0.0177  0.6550
10787TIP3    H153776   6.034   0.984   4.027 -0.8602  0.9983  0.6236
10787TIP3    H253777   6.171   0.920   4.018 -1.4176 -0.3050  1.0737
10788TIP3   OH253778   1.149   1.796   0.821 -0.2181  1.0742  0.0423
10788TIP3    H153779   1.234   1.841   0.814  0.5493 -0.1230  1.1777
10788TIP3    H253780   1.170   1.711   0.860 -1.9456  0.7331  0.3124
10789TIP3   OH253781   3.856   0.340  11.907  0.2536 -0.8273 -0.1356
10789TIP3    H153782   3.917   0.348  11.981  1.4398  0.5120 -1.1969
10789TIP3    H253783   3.785   0.400  11.929  1.2169  0.5481 -0.5993
10790TIP3   OH253784   6.427   4.987  17.308  0.0648  0.6735 -0.2508
10790TIP3    H153785   6.472   4.933  17.243 -1.6395 -0.8251 -0.2727
10790TIP3    H253786   6.395   4.924  17.373 -1.2521  1.7545  0.2010
10791TIP3   OH253787   0.329   2.123  10.737  0.2008  0.5886  0.0227
10791TIP3    H153788   0.254   2.092  10.687  0.4279 -2.1002  1.1738
10791TIP3    H253789   0.351   2.207  10.698 -2.2964  0.6363 -1.4911
10792TIP3   OH253790   0.845   3.548   2.466  0.1264  0.2947  0.1163
10792TIP3    H153791   0.892   3.631   2.473  0.8954 -0.1059 -0.2540
10792TIP3    H253792   0.830   3.521   2.556  2.3008 -0.5142  0.2971
10793TIP3   OH253793   6.710   4.208  13.368  0.2082  0.2581  0.4096
10793TIP3    H153794   6.690   4.130  13.316  0.0415 -0.1740  1.1052
10793TIP3    H253795   6.731   4.275  13.304 -1.5899  0.2038 -0.3070
10794TIP3   OH253796   4.970   2.943   3.424  0.2275 -0.2156  0.2901
10794TIP3    H153797   5.019   2.866   3.450  0.1749 -0.4593 -0.3244
10794TIP3    H253798   5.016   2.976   3.347 -1.2934 -1.1980 -1.0958
10795TIP3   OH253799   1.555   3.299  13.916  0.2284 -0.0559 -0.1460
10795TIP3    H153800   1.487   3.290  13.850 -0.3703  0.0117  0.4519
10795TIP3    H253801   1.544   3.389  13.949 -0.4415 -0.5592  1.0726
10796TIP3   OH253802   4.077   4.693   5.691  0.1128  0.0950 -0.8315
10796TIP3    H153803   4.159   4.652   5.718 -0.1588  0.5657  0.7993
10796TIP3    H253804   4.037   4.630   5.631  0.1531 -1.6252  0.8608
10797TIP3   OH253805   2.807   0.918  13.310  0.1380 -0.3013 -0.2325
10797TIP3    H153806   2.752   0.951  13.381 -0.2619 -0.8020 -0.2989
10797TIP3    H253807   2.776   0.965  13.232  0.9889  0.6993  0.0118
10798TIP3   OH253808   1.871   2.135   5.428  0.5962  0.2590 -0.2652
10798TIP3    H153809   1.876   2.093   5.342  0.0206  0.0830 -0.2196
10798TIP3    H253810   1.945   2.100   5.477 -0.0764 -0.9796 -0.1056
10799TIP3   OH253811   3.064   1.968  17.308 -0.0460 -0.0498 -0.3630
10799TIP3    H153812   3.088   2.039  17.367 -1.7518  1.2277 -1.1191
10799TIP3    H253813   3.134   1.904  17.317  0.2432  0.5379  2.2982
10800TIP3   OH253814   2.105   1.694   5.337  0.3363 -0.0287  0.4598
10800TIP3    H153815   2.061   1.640   5.403  0.2083  2.0886  2.2331
10800TIP3    H253816   2.188   1.718   5.378  1.0476 -0.0824 -0.9030
10801TIP3   OH253817   1.271   4.602   2.683  0.4734 -0.1684  0.5023
10801TIP3    H153818   1.272   4.537   2.754 -0.9267 -0.5566  0.1981
10801TIP3    H253819   1.363   4.625   2.671  1.0145 -2.0240  0.6938
10802TIP3   OH253820   6.138   1.599   4.344  0.5806 -0.3529 -0.0506
10802TIP3    H153821   6.148   1.564   4.256 -0.8362 -0.4917 -0.1853
10802TIP3    H253822   6.078   1.673   4.334  1.0791  0.1694  0.6813
10803TIP3   OH253823   3.707   4.261   1.981 -0.0041  0.3491 -0.1010
10803TIP3    H153824   3.755   4.321   2.038  0.6136 -0.0976 -0.1314
10803TIP3    H253825   3.744   4.175   2.001  0.8662  0.2859 -1.7957
10804TIP3   OH253826   1.188   3.399   4.036  0.0482 -0.5414 -0.3703
10804TIP3    H153827   1.247   3.324   4.021  1.0579  0.1070  0.2036
10804TIP3    H253828   1.247   3.470   4.063 -1.2242 -0.6509  3.1645
10805TIP3   OH253829   2.626   5.216   2.973 -0.3969  0.3888 -0.0442
10805TIP3    H153830   2.613   5.308   2.952  0.2975  0.4789 -0.1067
10805TIP3    H253831   2.720   5.208   2.991 -0.2799 -0.4872 -0.9499
10806TIP3   OH253832   1.878   3.269   4.278  0.3781  0.2088 -0.1330
10806TIP3    H153833   1.844   3.206   4.214  2.0846 -0.2854 -0.6009
10806TIP3    H253834   1.820   3.344   4.271 -0.9289 -0.7970 -0.4976
10807TIP3   OH253835   2.996   0.359   1.607  0.1105  0.0585 -0.0310
10807TIP3    H153836   2.918   0.353   1.551  0.3774 -1.2415 -0.3030
10807TIP3    H253837   3.047   0.431   1.570  0.3356 -0.8537 -1.5749
10808TIP3   OH253838   6.086   1.362   1.326  0.1613  0.3164 -0.1471
10808TIP3    H153839   6.050   1.278   1.297  1.2382 -0.7407  1.4181
10808TIP3    H253840   6.131   1.397   1.249 -0.6319 -0.3349 -0.9271
10809TIP3   OH253841   5.143   0.891  12.931  0.3562  0.0540  0.0095
10809TIP3    H153842   5.133   0.940  13.013  0.6518  0.1809 -0.0284
10809TIP3    H253843   5.235   0.865  12.930  0.8315  1.6049 -1.1513
10810TIP3   OH253844   2.993   4.746   0.342  0.1176  0.1287 -0.8716
10810TIP3    H153845   3.060   4.698   0.293 -0.2528 -0.9869 -0.3142
10810TIP3    H253846   2.978   4.694   0.421  0.5580  1.7871  0.3616
10811TIP3   OH253847   2.272   5.839   4.606 -0.7080 -0.5966 -0.2399
10811TIP3    H153848   2.177   5.837   4.617 -0.7523 -0.9792 -0.6733
10811TIP3    H253849   2.305   5.788   4.680 -0.7204  1.1387  1.0348
10812TIP3   OH253850   1.014   0.582   4.273 -0.0248  0.3451 -0.4413
10812TIP3    H153851   0.923   0.582   4.300  0.2817  1.2062  0.6609
10812TIP3    H253852   1.051   0.662   4.310  1.7766 -1.1631  1.3398
10813TIP3   OH253853   2.335   3.263   2.304 -0.0747 -0.2558  0.0543
10813TIP3    H153854   2.402   3.218   2.253  0.0265  1.5508 -1.4955
10813TIP3    H253855   2.293   3.323   2.243 -0.6118  1.3240  1.8487
10814TIP3   OH253856   1.416   4.410   1.107 -0.4827  0.2119  0.3961
10814TIP3    H153857   1.445   4.489   1.061 -0.4225 -0.0315  0.0105
10814TIP3    H253858   1.476   4.341   1.077  1.0050  0.4745  2.5159
10815TIP3   OH253859   0.373   3.655  11.734  0.2304  0.4715  0.6686
10815TIP3    H153860   0.436   3.671  11.804 -0.5191 -2.0857  2.0324
10815TIP3    H253861   0.289   3.686  11.768 -0.0935 -0.5609  0.8564
10816TIP3   OH253862   1.398   2.290  12.944 -0.0772  0.2648  0.7416
10816TIP3    H153863   1.464   2.254  13.004  0.4998  0.2477  0.1158
10816TIP3    H253864   1.432   2.376  12.920 -0.8413  0.7254  1.2710
10817TIP3   OH253865   5.737   4.177  16.887  0.3015 -0.7120 -0.2563
10817TIP3    H153866   5.644   4.156  16.879 -0.2474  1.3400  0.1569
10817TIP3    H253867   5.773   4.156  16.801 -1.3464  1.8756 -1.7189
10818TIP3   OH253868   1.920   6.148  11.061  0.1545 -0.3167 -0.3467
10818TIP3    H153869   1.957   6.205  10.993  1.5213 -0.4673  0.2233
10818TIP3    H253870   1.853   6.097  11.017 -0.3885  1.0255 -1.1005
10819TIP3   OH253871   5.123   0.648  16.680 -0.6993  0.1642 -0.6056
10819TIP3    H153872   5.071   0.703  16.621 -2.7050 -0.0079  0.8764
10819TIP3    H253873   5.091   0.670  16.768  2.2098  0.4606  0.5106
10820TIP3   OH253874   2.128   6.074  11.456  0.3814 -0.3431  0.3863
10820TIP3    H153875   2.078   6.053  11.534  0.9250 -0.4973  0.7021
10820TIP3    H253876   2.220   6.071  11.484  0.5704 -0.0357 -0.1676
10821TIP3   OH253877   0.494   1.805  16.962 -0.1501 -0.3292  0.0635
10821TIP3    H153878   0.541   1.889  16.959  0.0072 -0.4405 -0.9412
10821TIP3    H253879   0.430   1.816  17.032  0.4735  0.3077  0.5550
10822TIP3   OH253880   5.652   3.557   0.187 -0.1449 -0.1701 -0.4370
10822TIP3    H153881   5.677   3.564   0.095  1.6690  0.5947  0.0807
10822TIP3    H253882   5.654   3.646   0.220  0.8057 -0.6001  0.7286
10823TIP3   OH253883   0.944   3.005  10.832 -0.0313 -0.1295  0.5284
10823TIP3    H153884   0.852   3.027  10.817  0.2438  0.0715 -0.9989
10823TIP3    H253885   0.961   3.034  10.922 -1.0651  1.1688  0.3326
10824TIP3   OH253886   4.390   4.355   1.620 -0.3596  0.3292  0.5303
10824TIP3    H153887   4.400   4.446   1.649  0.4417  0.3038  0.3639
10824TIP3    H253888   4.461   4.308   1.665 -0.0141  0.0185 -0.3243
10825TIP3   OH253889   3.252   4.826  14.839 -0.3080  0.2944 -0.3775
10825TIP3    H153890   3.249   4.822  14.743 -1.0950 -1.2400 -0.3330
10825TIP3    H253891   3.163   4.853  14.864 -0.7841 -1.4075 -0.0696
10826TIP3   OH253892   0.141   2.273   6.138  0.5729  0.5940  0.0233
10826TIP3    H153893   0.054   2.262   6.176  0.4140  0.8440 -0.2605
10826TIP3    H253894   0.192   2.317   6.207  0.3618  0.8022  0.0488
10827TIP3   OH253895   0.878   6.410   3.861 -0.3993  0.1331  0.0285
10827TIP3    H153896   0.829   6.400   3.942  0.8955 -1.9709  0.6284
10827TIP3    H253897   0.870   6.325   3.817 -0.3663  0.9477 -1.6698
10828TIP3   OH253898   2.802   6.332  11.360 -0.1577  0.3230 -0.0965
10828TIP3    H153899   2.798   6.305  11.268 -2.3896  0.8081 -0.1984
10828TIP3    H253900   2.750   6.412  11.363  1.5350  1.4396  1.2582
10829TIP3   OH253901   1.969   3.987  15.358  0.4501 -0.4553  0.9157
10829TIP3    H153902   1.915   3.992  15.279  0.0094  0.1987  1.2566
10829TIP3    H253903   2.026   3.910  15.343  0.5353 -0.2029 -0.1273
10830TIP3   OH253904   3.559   3.424  14.418  0.0541 -0.0056 -0.0731
10830TIP3    H153905   3.622   3.392  14.482 -0.3587 -1.7184 -0.4783
10830TIP3    H253906   3.605   3.420  14.334 -0.4420 -0.8782 -0.3147
10831TIP3   OH253907   2.993   4.640  16.896 -0.2902 -0.0634  0.7683
10831TIP3    H153908   3.014   4.678  16.811 -0.6173 -0.8146  0.3472
10831TIP3    H253909   3.062   4.576  16.912 -0.0764  0.2655  1.2050
10832TIP3   OH253910   3.354   5.709  10.825 -0.1982 -0.3959  0.0680
10832TIP3    H153911   3.260   5.695  10.817 -0.9061  3.4381 -0.2066
10832TIP3    H253912   3.392   5.621  10.820 -3.6091 -1.9747 -1.2746
10833TIP3   OH253913   2.630   1.082  14.649  0.5368 -0.7523 -0.2752
10833TIP3    H153914   2.549   1.034  14.667 -0.2926  0.1501 -1.4404
10833TIP3    H253915   2.674   1.031  14.581  0.6554 -0.9248 -0.0703
10834TIP3   OH253916   4.488   1.100   3.254 -0.3309  0.0553 -0.3390
10834TIP3    H153917   4.419   1.079   3.316  0.6631  1.5498  1.3578
10834TIP3    H253918   4.445   1.096   3.168 -1.9986 -1.0222  0.5018
10835TIP3   OH253919   2.630   1.460  17.287 -0.2802  0.5056 -0.1020
10835TIP3    H153920   2.679   1.380  17.270 -1.7229 -0.1675 -1.3727
10835TIP3    H253921   2.669   1.526  17.229  2.0015  1.2536  2.1346
10836TIP3   OH253922   2.630   0.367   5.293  0.1233  0.3864 -0.4441
10836TIP3    H153923   2.703   0.335   5.240  0.4978  1.1191 -0.3803
10836TIP3    H253924   2.552   0.334   5.249  0.3266  2.5359 -2.5682
10837TIP3   OH253925   5.150   6.495   6.642  0.2698  0.1117  0.0964
10837TIP3    H153926   5.086   6.458   6.703  1.0165  1.7831  1.9839
10837TIP3    H253927   5.103   6.565   6.597  0.3202  0.2569  0.2725
10838TIP3   OH253928   4.327   1.665   2.715 -0.1653 -0.4833 -0.1588
10838TIP3    H153929   4.261   1.641   2.650 -1.7001  2.2208  0.2364
10838TIP3    H253930   4.399   1.701   2.664 -0.2819 -0.6931 -0.4743
10839TIP3   OH253931   3.741   5.021  11.695 -0.0880  0.4624  0.1327
10839TIP3    H153932   3.686   4.963  11.643  1.8537 -1.2306 -0.1845
10839TIP3    H253933   3.730   4.991  11.785 -0.3918  0.7381  0.1875
10840TIP3   OH253934   4.380   5.968   5.840 -0.1979  0.2259  0.0852
10840TIP3    H153935   4.468   5.999   5.822 -0.1867 -0.4358 -1.0672
10840TIP3    H253936   4.390   5.874   5.854 -0.9170 -0.1609 -1.7406
10841TIP3   OH253937   1.790   0.453  16.201  0.0675 -0.7106 -0.2983
10841TIP3    H153938   1.857   0.452  16.269 -1.4691  1.0707  1.3854
10841TIP3    H253939   1.838   0.474  16.120  1.5168  0.8417  0.8945
10842TIP3   OH253940   0.983   0.393  13.535 -0.0592 -0.5370  0.1450
10842TIP3    H153941   0.955   0.434  13.453 -1.4866  1.4081  1.5106
10842TIP3    H253942   0.902   0.360  13.574  0.4152 -0.3303  1.3407
10843TIP3   OH253943   3.270   0.441  14.197 -0.2999  0.0324  0.2068
10843TIP3    H153944   3.318   0.440  14.279 -1.9651  1.2115  1.2672
10843TIP3    H253945   3.250   0.350  14.179  0.0927 -0.2423  1.1099
10844TIP3   OH253946   4.839   1.945   5.714  0.7620 -0.2979  0.1836
10844TIP3    H153947   4.867   1.854   5.706 -1.8047 -1.3205  1.4904
10844TIP3    H253948   4.898   1.982   5.780  0.1665 -1.8705  1.6914
10845TIP3   OH253949   1.973   1.006  12.920  0.2384  0.2286  0.3926
10845TIP3    H153950   1.967   0.911  12.913 -0.3875  0.3746 -2.1027
10845TIP3    H253951   1.909   1.029  12.988 -0.1799 -1.0622  0.4697
10846TIP3   OH253952   3.878   4.574   2.502 -0.5841  0.3493  0.4901
10846TIP3    H153953   3.888   4.665   2.532 -1.0703  1.1083 -1.5214
10846TIP3    H253954   3.968   4.542   2.493 -0.3122  1.3780 -0.8367
10847TIP3   OH253955   2.812   5.498  11.068 -0.9013  0.4469 -0.8088
10847TIP3    H153956   2.769   5.548  10.999  1.3137  0.1664 -2.4880
10847TIP3    H253957   2.846   5.564  11.128 -3.2041  0.6818  0.3354
10848TIP3   OH253958   1.058   3.610  14.334 -0.5905  0.3130 -0.1845
10848TIP3    H153959   1.021   3.692  14.365 -0.3005  0.6960 -0.8440
10848TIP3    H253960   1.117   3.582  14.404 -0.1141  1.0541 -0.2801
10849TIP3   OH253961   0.883   0.823  11.947  0.1575 -0.0525 -0.0446
10849TIP3    H153962   0.903   0.744  11.996 -0.6164 -0.4707 -0.3857
10849TIP3    H253963   0.789   0.836  11.958  0.0136  0.0014 -1.1742
10850TIP3   OH253964   6.742   0.866  12.818  0.1774  0.0266 -0.3268
10850TIP3    H153965   6.723   0.797  12.754 -0.9781  0.7720 -0.8220
10850TIP3    H253966   6.828   0.843  12.852  0.0146 -1.4157 -0.7960
10851TIP3   OH253967   6.291   6.203   2.311  0.1794 -0.2695  0.3566
10851TIP3    H153968   6.272   6.210   2.405 -0.5986  0.2692  0.1616
10851TIP3    H253969   6.362   6.265   2.297 -0.2894  0.2878  0.4292
10852TIP3   OH253970   1.122   4.522  14.867  0.5454 -0.4300 -0.2817
10852TIP3    H153971   1.082   4.557  14.787  0.4357 -0.9259 -0.4472
10852TIP3    H253972   1.187   4.587  14.892  0.0429  0.0987 -0.3435
10853TIP3   OH253973   2.289   4.726   4.102 -0.5179  0.2037  0.4148
10853TIP3    H153974   2.335   4.789   4.156  0.3978 -1.6331  1.8978
10853TIP3    H253975   2.346   4.713   4.026 -0.2262  0.4042  0.5984
10854TIP3   OH253976   4.410   2.499   6.378 -0.2530 -0.1762 -0.1335
10854TIP3    H153977   4.407   2.463   6.467 -1.1640 -0.4007 -0.2435
10854TIP3    H253978   4.503   2.511   6.360  0.0593 -2.1174  0.0536
10855TIP3   OH253979   2.361   3.929  16.058 -0.9843 -0.3085  0.1265
10855TIP3    H153980   2.419   3.922  16.134 -1.7317 -1.8017  0.6025
10855TIP3    H253981   2.421   3.934  15.983 -0.2442  0.1388  0.7335
10856TIP3   OH253982   4.889   0.660  13.538  0.4407 -0.5086  0.3401
10856TIP3    H153983   4.862   0.719  13.468  0.6326  0.8026  1.3282
10856TIP3    H253984   4.969   0.619  13.505  0.4146 -0.0564 -0.2952
10857TIP3   OH253985   5.469   4.665   4.823  0.0809  0.3235 -0.3460
10857TIP3    H153986   5.524   4.630   4.753  2.3409 -0.7249  1.7850
10857TIP3    H253987   5.520   4.738   4.858 -0.8160  0.5872  0.4402
10858TIP3   OH253988   6.114   0.407  16.434 -0.1680  0.4265 -0.4536
10858TIP3    H153989   6.128   0.473  16.502 -0.1489 -0.9430  0.9168
10858TIP3    H253990   6.021   0.385  16.441  0.1070 -0.6173 -0.0162
10859TIP3   OH253991   3.165   5.035   4.827 -0.5239 -0.1148 -0.1694
10859TIP3    H153992   3.127   4.998   4.747 -1.1733  0.0403  0.0610
10859TIP3    H253993   3.255   5.058   4.802 -0.2697 -1.3709 -0.4485
10860TIP3   OH253994   0.481   0.910   2.545  0.6417  0.3498 -0.1933
10860TIP3    H153995   0.424   0.865   2.608  1.6701 -1.0062 -0.1931
10860TIP3    H253996   0.439   0.995   2.532 -0.2834  0.1730  1.3498
10861TIP3   OH253997   6.631   2.969   5.827 -0.1707 -0.1558 -0.1430
10861TIP3    H153998   6.650   2.984   5.919 -0.3139 -2.7524  0.3837
10861TIP3    H253999   6.715   2.943   5.789 -0.4340 -0.6676 -0.3751
10862TIP3   OH254000   0.348   6.633  11.080 -0.5114  0.1326 -0.0547
10862TIP3    H154001   0.433   6.665  11.110 -0.7061  1.0189 -0.3911
10862TIP3    H254002   0.322   6.697  11.013 -0.8489 -0.8534 -0.8785
10863TIP3   OH254003   0.324   5.788  12.115  0.4299  0.0664 -0.4325
10863TIP3    H154004   0.337   5.712  12.058  0.2703 -0.4098  0.1624
10863TIP3    H254005   0.320   5.752  12.203 -0.2914  0.6906 -0.1938
10864TIP3   OH254006   1.975   5.610  15.662 -0.1620  0.4140  0.8301
10864TIP3    H154007   1.970   5.698  15.624 -0.4110 -0.1778 -0.5957
10864TIP3    H254008   1.909   5.560  15.614  0.2071 -0.6272  1.3837
10865TIP3   OH254009   1.601   6.234   6.385  0.0478 -0.0077  0.4270
10865TIP3    H154010   1.521   6.288   6.386  0.6752  0.9667  1.6513
10865TIP3    H254011   1.660   6.280   6.445  2.5023  0.7218 -2.3481
10866TIP3   OH254012   5.434   3.162   4.325  0.6630 -0.2725  0.1565
10866TIP3    H154013   5.501   3.199   4.266  1.8208 -0.7205  1.1484
10866TIP3    H254014   5.399   3.238   4.372 -1.3756  0.3207 -2.0973
10867TIP3   OH254015   6.308   5.039  14.143 -0.0504  0.5728  0.3026
10867TIP3    H154016   6.298   5.088  14.062 -0.0677  1.8700  1.0621
10867TIP3    H254017   6.280   4.950  14.121  1.0692  0.5928 -1.4117
10868TIP3   OH254018   4.604   2.612  11.080  0.0274 -0.1516 -0.1163
10868TIP3    H154019   4.566   2.655  11.003 -1.4765 -0.7909  0.2236
10868TIP3    H254020   4.624   2.523  11.050  2.3266  0.4737 -0.5838
10869TIP3   OH254021   3.656   1.913   5.463  0.0398 -0.3915  0.2313
10869TIP3    H154022   3.609   1.990   5.431  0.1625 -0.0298  0.9155
10869TIP3    H254023   3.633   1.844   5.400 -0.5991  0.0318 -0.0120
10870TIP3   OH254024   3.802   1.293   3.659  0.2059  0.6127  0.7721
10870TIP3    H154025   3.852   1.265   3.735  1.0617  1.3498  0.4982
10870TIP3    H254026   3.711   1.289   3.687  0.3693 -1.0923  1.1681
10871TIP3   OH254027   0.157   5.095   2.525 -0.3076  0.4283 -0.3033
10871TIP3    H154028   0.205   5.159   2.578  0.8300 -0.0589 -0.7069
10871TIP3    H254029   0.114   5.039   2.589 -2.3265  2.2803  0.0618
10872TIP3   OH254030   1.971   6.213   6.409  0.4677 -0.4699 -0.3815
10872TIP3    H154031   1.916   6.165   6.471  2.7301 -1.2791  1.1440
10872TIP3    H254032   1.937   6.302   6.410  0.1773 -0.5504  1.7901
10873TIP3   OH254033   2.372   4.443   4.003  0.0924  0.4173 -0.2896
10873TIP3    H154034   2.318   4.406   4.073  1.6623 -0.0596  0.7226
10873TIP3    H254035   2.393   4.369   3.947 -0.2305  0.5915 -0.6476
10874TIP3   OH254036   6.446   6.369  15.452 -0.6533 -0.2860 -0.2762
10874TIP3    H154037   6.481   6.412  15.374 -1.6634  1.0545 -0.0326
10874TIP3    H254038   6.493   6.409  15.525 -0.5668 -0.6698 -0.1160
10875TIP3   OH254039   4.627   1.548   2.673  0.1912 -0.0913 -0.2743
10875TIP3    H154040   4.605   1.456   2.658  1.4852 -0.2885 -1.1357
10875TIP3    H254041   4.651   1.582   2.586 -1.3905  1.4054 -0.1877
10876TIP3   OH254042   3.048   2.964   0.834  0.0705 -0.0502 -0.2174
10876TIP3    H154043   3.029   2.901   0.903 -0.2079  0.4298  0.1464
10876TIP3    H254044   2.972   3.021   0.831 -0.5637 -0.9165 -1.9002
10877TIP3   OH254045   2.955   6.460  15.972  0.4188  0.0228 -0.0447
10877TIP3    H154046   3.037   6.432  15.931  1.2003  0.4292  1.1669
10877TIP3    H254047   2.887   6.434  15.910  1.4739 -0.1053 -1.2008
10878TIP3   OH254048   3.666   2.672  12.638  0.0994  0.1178  0.2701
10878TIP3    H154049   3.737   2.712  12.688  0.9872  0.3059 -1.0971
10878TIP3    H254050   3.591   2.730  12.652  0.4940  0.4822  0.9073
10879TIP3   OH254051   4.809   6.234  10.864  0.1319  0.3255 -0.4749
10879TIP3    H154052   4.766   6.150  10.879  1.2368 -0.0308  0.8679
10879TIP3    H254053   4.742   6.299  10.883  0.5303 -0.1517  3.5231
10880TIP3   OH254054   3.264   1.232  11.026  0.7038  0.1085 -0.9614
10880TIP3    H154055   3.290   1.324  11.020 -0.9336  0.7085  0.4470
10880TIP3    H254056   3.344   1.186  11.051  1.4415  1.2072 -1.2359
10881TIP3   OH254057   2.194   3.562   4.708 -0.1885  0.3563 -0.1750
10881TIP3    H154058   2.279   3.559   4.752 -1.4163 -1.9838  2.4227
10881TIP3    H254059   2.202   3.499   4.636  0.1964 -0.1693  0.3121
10882TIP3   OH254060   6.235   4.933   0.226 -0.8456 -0.3879 -0.4853
10882TIP3    H154061   6.284   4.993   0.170  0.6160  0.1968  1.3009
10882TIP3    H254062   6.157   4.982   0.252 -1.1677 -0.4009 -1.4078
10883TIP3   OH254063   5.649   1.322   2.068  0.4505  0.2943 -0.4518
10883TIP3    H154064   5.583   1.353   2.130 -2.1208 -0.5279 -2.5353
10883TIP3    H254065   5.616   1.352   1.983  2.9949  0.0811 -1.5842
10884TIP3   OH254066   4.920   5.679   4.509  0.2490  0.0142 -0.3532
10884TIP3    H154067   4.999   5.721   4.476  1.8259 -1.5790  1.1500
10884TIP3    H254068   4.912   5.711   4.599 -1.5267  1.0336 -0.8268
10885TIP3   OH254069   1.454   0.668  15.359 -0.6473  0.4635  0.1300
10885TIP3    H154070   1.478   0.678  15.266 -2.2197  1.5087 -0.1991
10885TIP3    H254071   1.514   0.728  15.405 -0.3570  0.5008 -0.2905
10886TIP3   OH254072   2.621   5.683   5.993  0.1853  0.6061  0.1851
10886TIP3    H154073   2.535   5.712   6.023 -0.4491 -0.6477 -0.3200
10886TIP3    H254074   2.622   5.701   5.899  0.5503  0.8054  0.2275
10887TIP3   OH254075   2.966   6.312  16.398 -0.1457 -0.0404  0.5291
10887TIP3    H154076   2.937   6.266  16.477 -0.5424 -0.0778  0.3662
10887TIP3    H254077   2.942   6.254  16.327 -1.3581  0.7441  0.2595
10888TIP3   OH254078   6.268   4.616   0.188 -0.6661  0.5485  0.2240
10888TIP3    H154079   6.179   4.581   0.181 -0.1686 -0.6162 -0.6766
10888TIP3    H254080   6.267   4.670   0.267 -1.7949 -0.6013  1.0342
10889TIP3   OH254081   1.223   1.110  13.854  0.0644 -0.3011 -0.0449
10889TIP3    H154082   1.178   1.083  13.934 -1.3183  1.1207 -0.2740
10889TIP3    H254083   1.163   1.086  13.783  0.3563  0.2320 -0.4882
10890TIP3   OH254084   6.050   6.231   4.690 -0.0430 -0.1376 -0.0287
10890TIP3    H154085   6.106   6.284   4.633  2.2725  0.2621  2.4196
10890TIP3    H254086   6.027   6.289   4.762 -0.9912 -1.2588  0.6132
10891TIP3   OH254087   3.264   4.624  12.932 -0.4666  0.3272  0.0700
10891TIP3    H154088   3.359   4.620  12.941 -0.4869 -2.8476 -0.1785
10891TIP3    H254089   3.249   4.620  12.837 -0.8438 -1.2164  0.1735
10892TIP3   OH254090   0.406   3.955  13.328 -0.1169 -0.3214 -0.1495
10892TIP3    H154091   0.447   3.929  13.411 -0.7330 -1.9439 -0.3148
10892TIP3    H254092   0.332   3.896  13.319 -0.0462 -0.1938 -1.8834
10893TIP3   OH254093   6.300   0.839  15.475  0.4097 -0.0801 -0.0502
10893TIP3    H154094   6.362   0.794  15.532 -0.1831 -3.2205 -1.6378
10893TIP3    H254095   6.336   0.829  15.387 -1.3628 -0.3064 -0.8044
10894TIP3   OH254096   0.471   4.523   0.976  0.3130  0.0477  0.3015
10894TIP3    H154097   0.391   4.552   1.021  0.5260 -2.2196  2.3587
10894TIP3    H254098   0.460   4.429   0.966  2.4423 -0.2144  0.0113
10895TIP3   OH254099   5.457   2.390   5.800  0.6626  0.6823 -0.1263
10895TIP3    H154100   5.379   2.443   5.780  1.4808  2.9070  2.0880
10895TIP3    H254101   5.429   2.333   5.872  0.5886  0.1327 -0.5830
10896TIP3   OH254102   1.730   2.676   4.617 -0.5815 -0.5645  0.1030
10896TIP3    H154103   1.761   2.759   4.579  3.0616 -1.4665  0.7475
10896TIP3    H254104   1.695   2.702   4.702 -0.7436  0.4663 -0.2545
10897TIP3   OH254105   2.449   5.571  12.255 -0.0344  0.1260  0.0500
10897TIP3    H154106   2.468   5.643  12.315  1.1368  0.0120 -0.1669
10897TIP3    H254107   2.465   5.607  12.168 -1.2759  0.1492 -0.1901
10898TIP3   OH254108   0.241   5.607  16.228  0.7113  0.5643  0.4696
10898TIP3    H154109   0.238   5.597  16.323 -1.3082 -1.0911  0.3013
10898TIP3    H254110   0.158   5.648  16.205  1.2270  1.0676 -0.5944
10899TIP3   OH254111   0.069   3.957  13.769 -0.3941  0.2558 -0.7659
10899TIP3    H154112   0.034   3.881  13.723 -0.4802  0.9204 -1.8022
10899TIP3    H254113  -0.000   3.983  13.830 -2.5134  2.5250 -3.8532
10900TIP3   OH254114   6.506   4.893   2.218 -0.0904  0.4203 -0.0998
10900TIP3    H154115   6.423   4.863   2.180  0.0775 -1.1967  0.7507
10900TIP3    H254116   6.510   4.986   2.195 -1.6636  0.3034 -0.9953
10901TIP3   OH254117   6.147   5.019  16.008  0.2361 -0.0100 -0.0030
10901TIP3    H154118   6.056   5.047  16.002 -1.0961 -3.3355  1.9954
10901TIP3    H254119   6.177   5.018  15.917 -2.3175 -0.5438 -0.9315
10902TIP3   OH254120   4.085   4.808   2.220  0.6617 -0.1368  0.2233
10902TIP3    H154121   4.070   4.835   2.129  1.6474  1.9454  0.6062
10902TIP3    H254122   4.002   4.824   2.264  0.8210  1.1010  0.1275
10903TIP3   OH254123   5.270   5.076   3.048 -0.3441  0.7100  0.0284
10903TIP3    H154124   5.294   5.110   3.134  2.4254  2.1300 -1.1727
10903TIP3    H254125   5.257   5.154   2.994 -1.8427 -0.1485 -0.9405
10904TIP3   OH254126   3.917   3.549  15.867  0.3398  0.4066  0.2799
10904TIP3    H154127   3.905   3.632  15.821  1.0432  0.8582  0.8820
10904TIP3    H254128   4.012   3.535  15.867  0.2223 -0.4270  0.1353
10905TIP3   OH254129   1.309   4.035   6.748 -0.3568 -0.1629  0.3176
10905TIP3    H154130   1.379   4.009   6.808 -1.7468 -0.5824  1.8321
10905TIP3    H254131   1.266   3.952   6.724 -0.9094  0.1642  0.1509
10906TIP3   OH254132   2.516   5.089  12.409  0.2225 -0.0203 -0.5494
10906TIP3    H154133   2.528   4.995  12.426  1.0780  0.2467  0.3904
10906TIP3    H254134   2.595   5.116  12.363  0.4541  0.4593  0.1228
10907TIP3   OH254135   2.505   1.601   3.803 -0.3870  0.2526 -0.3096
10907TIP3    H154136   2.416   1.598   3.839 -2.3196 -1.1364 -4.5230
10907TIP3    H254137   2.516   1.516   3.760  3.6844 -0.2047  1.2447
10908TIP3   OH254138   3.043   1.617  13.027  0.6061 -0.3625  0.1186
10908TIP3    H154139   3.113   1.598  13.090 -0.6518  1.4630  2.1584
10908TIP3    H254140   2.962   1.604  13.075 -0.4195  0.9648 -1.1643
10909TIP3   OH254141   3.333   4.513   5.161 -0.1062  0.1106  0.3617
10909TIP3    H154142   3.274   4.539   5.231 -0.1277 -1.6485  1.0473
10909TIP3    H254143   3.316   4.420   5.148  1.3636 -0.0701 -0.5418
10910TIP3   OH254144   6.041   4.645   4.685 -0.7914  0.4013  0.2366
10910TIP3    H154145   6.038   4.563   4.636 -0.2936  1.5515 -1.8697
10910TIP3    H254146   5.996   4.708   4.629 -0.3082  1.7772  1.3412
10911TIP3   OH254147   3.589   4.839   1.620  0.0613 -0.0272 -0.0065
10911TIP3    H154148   3.682   4.828   1.601  0.4896  0.0096  1.9244
10911TIP3    H254149   3.578   4.804   1.708 -1.5395  0.9939  0.2318
10912TIP3   OH254150   0.609   6.331   0.658 -0.3727 -0.0527  0.9833
10912TIP3    H154151   0.663   6.402   0.692 -2.1733  1.1123  1.5649
10912TIP3    H254152   0.669   6.257   0.648  1.6261  1.6192  0.0454
10913TIP3   OH254153   5.304   6.657  15.835  0.1369 -0.2216 -0.4117
10913TIP3    H154154   5.296   6.671  15.741 -1.0113  0.6034 -0.2130
10913TIP3    H254155   5.245   6.584  15.853 -0.1557  0.0558 -0.2381
10914TIP3   OH254156   5.869   1.754  17.158  0.9641  0.2407 -0.2861
10914TIP3    H154157   5.946   1.697  17.168  0.3798 -0.3134  1.2888
10914TIP3    H254158   5.871   1.810  17.236  0.6150  1.2820 -1.0082
10915TIP3   OH254159   5.348   1.150   2.910 -0.3984 -0.6813 -0.2944
10915TIP3    H154160   5.366   1.242   2.927 -0.4422 -0.3129 -2.0332
10915TIP3    H254161   5.329   1.146   2.816 -0.3480 -2.4681 -0.2682
10916TIP3   OH254162   4.374   2.254  17.229  0.3683 -0.0160  0.3382
10916TIP3    H154163   4.325   2.281  17.307 -2.0044 -2.4178 -0.1455
10916TIP3    H254164   4.464   2.245  17.258  0.4317  3.5320  1.5990
10917TIP3   OH254165   0.276   4.662   2.460 -0.2837  0.2525  0.3739
10917TIP3    H154166   0.277   4.660   2.556 -0.3218  0.5251  0.3810
10917TIP3    H254167   0.184   4.675   2.437 -0.5322 -1.4474  0.2557
10918TIP3   OH254168   4.574   4.277  12.269 -0.3022 -0.4412 -0.0948
10918TIP3    H154169   4.654   4.298  12.220  0.0582 -0.0926  0.6244
10918TIP3    H254170   4.597   4.199  12.320 -0.1133  0.1806  0.7990
10919TIP3   OH254171   5.904   1.607   1.713  0.3451 -0.4789 -0.1209
10919TIP3    H154172   5.829   1.641   1.666 -0.1713 -1.0179  0.2988
10919TIP3    H254173   5.938   1.682   1.762  0.1882 -0.1943 -0.4436
10920TIP3   OH254174   4.778   2.201   6.698  0.2686 -0.4244  0.0124
10920TIP3    H154175   4.682   2.198   6.699 -0.1175  2.4785  4.9220
10920TIP3    H254176   4.805   2.112   6.718 -1.4013 -1.0849 -0.4589
10921TIP3   OH254177   6.616   0.307   2.296  0.2284  0.0516  0.9194
10921TIP3    H154178   6.681   0.374   2.316  0.7106  0.0767 -0.5538
10921TIP3    H254179   6.668   0.229   2.276 -0.2275 -0.1670  0.5580
10922TIP3   OH254180   4.556   5.078  17.219 -0.2053  0.0119 -0.1872
10922TIP3    H154181   4.647   5.071  17.247  0.0149 -1.6853 -1.1944
10922TIP3    H254182   4.518   5.144  17.277  1.7637  1.0936 -0.0531
10923TIP3   OH254183   6.126   1.804  13.464 -0.4707 -0.5335  0.5034
10923TIP3    H154184   6.113   1.876  13.525  1.1973  0.3632 -0.1383
10923TIP3    H254185   6.068   1.825  13.390 -1.2778 -0.7835  1.0462
10924TIP3   OH254186   0.771   6.503   6.017 -0.7998  0.0556 -0.0377
10924TIP3    H154187   0.731   6.473   6.099 -0.4721 -1.7578 -0.4818
10924TIP3    H254188   0.841   6.562   6.044 -0.0111 -1.3279  1.0858
10925TIP3   OH254189   5.016   1.242  12.272 -0.1132 -0.7880 -0.1446
10925TIP3    H154190   4.998   1.325  12.228  0.3483  0.2605  1.5464
10925TIP3    H254191   5.096   1.210  12.231 -0.6642 -0.7522 -1.2752
10926TIP3   OH254192   4.503   4.988  13.657  0.1316 -0.3018  0.1011
10926TIP3    H154193   4.586   4.987  13.703 -0.4352  2.4785  1.4310
10926TIP3    H254194   4.437   4.975  13.726 -0.6227  0.6690 -0.4083
10927TIP3   OH254195   6.049   6.708  15.142 -0.5114 -0.0039 -0.3503
10927TIP3    H154196   6.118   6.771  15.120  0.3634 -1.1819 -1.1059
10927TIP3    H254197   6.025   6.729  15.232  1.7802 -0.3844  0.4047
10928TIP3   OH254198   0.346   1.216   4.519 -0.2369  0.1042  0.3761
10928TIP3    H154199   0.315   1.307   4.528  0.7514  0.5187 -0.2297
10928TIP3    H254200   0.268   1.167   4.492 -0.6525  0.8891  0.0974
10929TIP3   OH254201   6.432   1.110   3.296  0.7343  0.1215 -0.0210
10929TIP3    H154202   6.519   1.108   3.255  0.6422 -1.4345 -0.1998
10929TIP3    H254203   6.409   1.018   3.306 -1.2440  0.5097 -0.6996
10930TIP3   OH254204   1.844   6.223  14.377 -0.1923  0.5176  0.0658
10930TIP3    H154205   1.940   6.220  14.371 -0.1325 -1.4655  1.2951
10930TIP3    H254206   1.819   6.135  14.404 -2.2803  1.3226  0.9385
10931TIP3   OH254207   4.131   0.884   3.471 -0.0273 -0.4883  0.6797
10931TIP3    H154208   4.067   0.915   3.407 -1.3308 -0.9718  1.7055
10931TIP3    H254209   4.163   0.963   3.514 -0.3342 -0.2686  0.5081
10932TIP3   OH254210   2.175   5.199  16.901  0.2001 -0.5224  0.0717
10932TIP3    H154211   2.133   5.142  16.836  3.5534 -0.1628 -2.7008
10932TIP3    H254212   2.241   5.144  16.942  0.9844  0.3875  0.0508
10933TIP3   OH254213   3.691   3.932  16.337  0.0694 -0.3319  0.3150
10933TIP3    H154214   3.688   3.938  16.432 -2.3128 -2.7064  0.4897
10933TIP3    H254215   3.771   3.882  16.319  0.2875 -0.2707  1.0836
10934TIP3   OH254216   4.269   5.601   2.884 -0.0134 -0.6334 -0.3161
10934TIP3    H154217   4.213   5.552   2.824  0.2817 -0.9354 -0.3441
10934TIP3    H254218   4.348   5.548   2.892  1.6044  1.2175 -2.6960
10935TIP3   OH254219   3.132   3.215  15.923 -1.0649  0.1176 -0.5116
10935TIP3    H154220   3.047   3.260  15.927 -0.2377  1.9155 -1.5024
10935TIP3    H254221   3.190   3.268  15.978 -0.5593 -1.0807  0.1392
10936TIP3   OH254222   3.604   2.430  17.171 -0.3810  0.6360  0.1780
10936TIP3    H154223   3.511   2.422  17.193 -0.3947 -1.0107 -0.3619
10936TIP3    H254224   3.648   2.444  17.255 -0.9559 -0.1602  0.6155
10937TIP3   OH254225   4.274   2.008   5.318  0.1145  0.2653  0.2201
10937TIP3    H154226   4.269   2.024   5.412  0.4083 -0.7099  0.4103
10937TIP3    H254227   4.348   2.061   5.288 -1.5142  2.6181  0.0556
10938TIP3   OH254228   3.260   0.275  16.713 -0.4465  0.2340 -0.2730
10938TIP3    H154229   3.276   0.188  16.750 -1.9567  0.0578  0.0437
10938TIP3    H254230   3.309   0.275  16.631 -2.1404 -1.7854 -1.3881
10939TIP3   OH254231   2.022   0.561  13.691 -0.7525 -0.0453  0.4463
10939TIP3    H154232   1.949   0.621  13.689 -1.0959 -0.4637  0.2254
10939TIP3    H254233   2.032   0.531  13.601 -0.1923  0.1430  0.4370
10940TIP3   OH254234   0.093   3.560  12.151  0.0292  0.0719  0.3449
10940TIP3    H154235   0.156   3.601  12.209  0.6878 -0.7834  0.2496
10940TIP3    H254236   0.146   3.509  12.090 -0.7582 -1.0168  0.5432
10941TIP3   OH254237   4.014   2.701  15.722 -0.3251  0.1207 -0.0200
10941TIP3    H154238   3.922   2.721  15.703  0.3568  4.6228  0.3582
10941TIP3    H254239   4.025   2.726  15.814  1.6306  1.6500 -0.5936
10942TIP3   OH254240   2.600   4.387   4.863  0.0287 -0.1640  0.1928
10942TIP3    H154241   2.588   4.298   4.895  1.3869 -0.7415 -0.8172
10942TIP3    H254242   2.599   4.441   4.943 -0.2385 -1.1468  0.8688
10943TIP3   OH254243   0.571   6.494  13.688  0.2878 -0.0018  0.3179
10943TIP3    H154244   0.594   6.443  13.766 -0.4427  1.1433  1.3249
10943TIP3    H254245   0.482   6.468  13.668  0.7279 -0.8373 -0.6053
10944TIP3   OH254246   1.675   2.621  14.020  0.2089  0.0414  0.0712
10944TIP3    H154247   1.595   2.621  13.968  0.5458 -3.0581 -0.6430
10944TIP3    H254248   1.731   2.686  13.978 -2.1903  3.1243  1.2529
10945TIP3   OH254249   2.065   0.740  13.924  0.5572 -0.1377 -0.2371
10945TIP3    H154250   2.005   0.748  13.850  1.1748  0.1946 -0.7230
10945TIP3    H254251   2.100   0.651  13.918  0.3038 -0.2457 -0.1044
10946TIP3   OH254252   4.009   0.438   1.994 -0.4557  0.1956  0.1101
10946TIP3    H154253   4.098   0.473   1.989  0.1198 -1.2571 -0.2956
10946TIP3    H254254   3.998   0.412   2.085  0.1010 -0.9968 -0.1485
10947TIP3   OH254255   5.027   4.235  15.424 -0.2223 -0.4803 -0.2404
10947TIP3    H154256   5.039   4.302  15.356 -1.1878 -0.9124 -0.8679
10947TIP3    H254257   5.101   4.247  15.483 -0.3683  1.1394 -0.3410
10948TIP3   OH254258   2.192   5.437  13.934  0.4017  0.1492 -0.6749
10948TIP3    H154259   2.133   5.509  13.957 -1.2030 -0.4597 -2.6021
10948TIP3    H254260   2.204   5.446  13.839 -0.4418 -2.5240 -1.1066
10949TIP3   OH254261   2.373   3.974   4.136  0.4197 -0.4291  0.5154
10949TIP3    H154262   2.372   4.054   4.189  2.9208  0.8777 -1.2067
10949TIP3    H254263   2.451   3.927   4.164  0.1910 -1.1502 -0.0216
10950TIP3   OH254264   3.412   5.633   4.347  0.4421 -0.0224 -0.0898
10950TIP3    H154265   3.410   5.705   4.284 -0.7267 -0.4938 -0.6189
10950TIP3    H254266   3.442   5.557   4.296  0.4790 -0.1847  0.1722
10951TIP3   OH254267   6.309   5.426  13.486  0.0805 -0.1899 -0.2393
10951TIP3    H154268   6.379   5.404  13.424  1.0260 -1.5576  1.2010
10951TIP3    H254269   6.354   5.475  13.555 -0.8257  0.7549 -0.3003
10952TIP3   OH254270   5.793   1.976   0.729  0.7866  0.4058  0.1074
10952TIP3    H154271   5.798   1.894   0.778 -1.8862  0.6480  1.0019
10952TIP3    H254272   5.805   1.951   0.637 -3.1399 -1.6898 -0.0640
10953TIP3   OH254273   6.545   2.931  16.752 -0.4924  0.2095 -0.5937
10953TIP3    H154274   6.601   2.909  16.678 -0.7498  1.5069 -1.2121
10953TIP3    H254275   6.526   2.847  16.794 -0.1348 -0.5227 -1.8441
10954TIP3   OH254276   0.585   1.544   1.814  0.1617  0.0574  0.1693
10954TIP3    H154277   0.611   1.625   1.770  1.3942 -0.4401 -0.0441
10954TIP3    H254278   0.613   1.475   1.755  0.8540 -0.5870  1.2309
10955TIP3   OH254279   1.587   4.532  13.239 -0.0832 -0.4999 -0.0788
10955TIP3    H154280   1.494   4.520  13.258 -0.2711  0.5135 -0.2977
10955TIP3    H254281   1.629   4.531  13.325 -0.1838 -1.7262 -0.0226
10956TIP3   OH254282   5.533   3.814   2.147  0.1217  0.5683 -0.1898
10956TIP3    H154283   5.475   3.744   2.178  0.3888  0.9761  1.3422
10956TIP3    H254284   5.548   3.794   2.055 -2.3206  0.3680 -0.6164
10957TIP3   OH254285   0.027   4.363   5.227  0.1031  0.1847 -0.1242
10957TIP3    H154286   0.025   4.268   5.219  0.2557  0.3435 -3.0853
10957TIP3    H254287   0.116   4.382   5.257  0.1340 -0.5617  0.3025
10958TIP3   OH254288   6.063   6.606  12.218 -0.4283  0.6418 -0.1722
10958TIP3    H154289   6.152   6.596  12.184 -0.0526 -1.9755  1.2791
10958TIP3    H254290   6.051   6.700  12.229  2.6443  1.0223  0.7335
10959TIP3   OH254291   0.952   0.749  13.134 -0.6203 -0.9458 -0.6066
10959TIP3    H154292   0.948   0.839  13.102 -1.6296 -0.7634  0.0034
10959TIP3    H254293   0.890   0.702  13.078 -0.7662 -1.0776 -0.3319
10960TIP3   OH254294   5.715   6.458   5.799 -0.6285 -0.0731 -0.7850
10960TIP3    H154295   5.677   6.546   5.793  0.2127  0.2998 -0.7474
10960TIP3    H254296   5.742   6.437   5.709 -0.4450 -0.1205 -0.7183
10961TIP3   OH254297   0.863   0.853   5.557  0.1213 -0.0040  0.4775
10961TIP3    H154298   0.897   0.907   5.486 -0.2110  0.6012  0.7766
10961TIP3    H254299   0.904   0.767   5.543  1.9002  0.7274  0.9090
10962TIP3   OH254300   0.962   3.854  14.768  0.4565  0.3234  0.3559
10962TIP3    H154301   0.899   3.822  14.832  0.0321  0.9220  0.2462
10962TIP3    H254302   1.047   3.829  14.805  0.1658 -0.5083  0.4928
10963TIP3   OH254303   4.873   3.664   1.310 -0.1114 -0.1252  0.0940
10963TIP3    H154304   4.887   3.627   1.397  0.8095  2.5665  1.2144
10963TIP3    H254305   4.938   3.622   1.254 -1.1153 -2.3437  0.4846
10964TIP3   OH254306   2.504   2.272  12.088 -0.0397 -0.3906 -0.7621
10964TIP3    H154307   2.532   2.195  12.038  1.7892 -0.6473  0.5663
10964TIP3    H254308   2.586   2.314  12.116 -1.0014  0.8749  0.2923
10965TIP3   OH254309   0.906   1.458  14.334  0.1178 -0.0390 -0.3559
10965TIP3    H154310   0.858   1.533  14.370 -0.2337  0.0485 -1.0065
10965TIP3    H254311   0.947   1.418  14.411 -1.5823 -0.5578  0.3295
10966TIP3   OH254312   4.159   3.118   0.761  0.3202  0.1239  0.4554
10966TIP3    H154313   4.092   3.084   0.700  1.3135 -0.2617 -0.4484
10966TIP3    H254314   4.193   3.196   0.717  0.0258  0.6947  1.2180
10967TIP3   OH254315   0.867   2.192   1.486 -0.2273 -0.0563 -0.5340
10967TIP3    H154316   0.846   2.283   1.508  0.5737 -0.5148  2.7129
10967TIP3    H254317   0.961   2.185   1.502 -0.4034 -1.6321  0.0098
10968TIP3   OH254318   3.118   1.331   3.519 -0.2797 -0.2521  0.1024
10968TIP3    H154319   3.086   1.255   3.471  0.6789 -0.0767 -0.8320
10968TIP3    H254320   3.184   1.371   3.462  1.2684 -0.3116  1.7621
10969TIP3   OH254321   2.178   0.762  16.352 -0.5449 -0.2493 -0.5701
10969TIP3    H154322   2.118   0.814  16.298 -0.4299  0.4265 -0.0571
10969TIP3    H254323   2.247   0.823  16.377 -0.9120 -0.3874  0.8404
10970TIP3   OH254324   2.373   5.977   3.040 -1.1836  0.5866  0.3526
10970TIP3    H154325   2.321   5.949   3.115 -0.3653  2.0391  1.5019
10970TIP3    H254326   2.464   5.971   3.070 -0.6736 -0.8938 -1.2745
10971TIP3   OH254327   2.697   4.604   4.732 -0.7011 -0.1786  0.3553
10971TIP3    H154328   2.674   4.538   4.797  0.9488 -0.2294  0.9542
10971TIP3    H254329   2.632   4.594   4.663 -1.7855 -0.9368  1.4382
10972TIP3   OH254330   0.781   6.206  13.426  0.2453  0.1947 -0.1528
10972TIP3    H154331   0.752   6.128  13.379 -1.0426 -0.0698  0.9828
10972TIP3    H254332   0.871   6.221  13.397  0.4460 -1.5945 -0.5384
10973TIP3   OH254333   4.906   0.515  14.792 -0.2451 -0.4252 -0.3333
10973TIP3    H154334   4.897   0.602  14.829  0.4852  0.0434 -1.2221
10973TIP3    H254335   4.830   0.467  14.825 -0.3174  0.3492  0.6753
10974TIP3   OH254336   6.660   2.300   5.549 -0.3322 -0.0631 -0.9375
10974TIP3    H154337   6.729   2.285   5.484  0.7170 -0.2640  0.1775
10974TIP3    H254338   6.676   2.233   5.616 -1.8480 -0.3468 -0.8143
10975TIP3   OH254339   2.976   0.445  14.279  0.3069  0.1379 -0.1355
10975TIP3    H154340   2.890   0.486  14.265  0.1661 -0.1700 -0.1808
10975TIP3    H254341   3.008   0.427  14.191 -0.1028 -0.8159 -0.0983
10976TIP3   OH254342   1.640   0.846   4.093  0.1234  0.4579  0.3302
10976TIP3    H154343   1.697   0.824   4.019 -0.7637 -1.5174  0.1535
10976TIP3    H254344   1.624   0.762   4.136 -1.4904  1.1720  1.2138
10977TIP3   OH254345   0.472   4.583   4.585  0.2077  0.3112 -0.0917
10977TIP3    H154346   0.522   4.562   4.664 -0.4418 -3.2775 -0.4537
10977TIP3    H254347   0.386   4.608   4.618  0.1488 -0.4796  0.4007
10978TIP3   OH254348   3.452   5.339   3.945 -0.2184  0.1896  0.0737
10978TIP3    H154349   3.357   5.352   3.948 -0.4704 -0.8178 -1.8634
10978TIP3    H254350   3.484   5.407   3.886 -0.1025 -0.9460 -1.2313
10979TIP3   OH254351   5.007   1.065  11.200  0.2877  0.4385  0.0001
10979TIP3    H154352   4.967   1.130  11.142  0.8982  0.8919  0.0808
10979TIP3    H254353   5.097   1.094  11.210  0.1486  0.4643  1.3230
10980TIP3   OH254354   5.117   5.562  16.000 -0.1926  0.3246  0.3808
10980TIP3    H154355   5.130   5.472  16.030  1.1244  0.4763  0.3358
10980TIP3    H254356   5.169   5.567  15.919 -2.6305  0.2833 -1.2785
10981TIP3   OH254357   4.126   0.879   1.157 -0.5790 -0.5641 -0.0665
10981TIP3    H154358   4.097   0.925   1.235 -1.5057 -0.9682 -0.1602
10981TIP3    H254359   4.184   0.941   1.113  0.8061 -0.7292  1.4582
10982TIP3   OH254360   6.592   1.108   1.581 -0.0133 -0.2254  0.5300
10982TIP3    H154361   6.590   1.013   1.589 -1.3331 -0.2369  0.3665
10982TIP3    H254362   6.532   1.128   1.508 -1.9173  0.8433  2.2687
10983TIP3   OH254363   0.492   4.172   5.433 -0.3310 -0.0719 -0.3791
10983TIP3    H154364   0.514   4.263   5.454 -1.7612  0.1074  0.5251
10983TIP3    H254365   0.576   4.127   5.431  0.4727  1.3969 -1.5699
10984TIP3   OH254366   0.971   2.899   0.372  0.3102  0.0614 -0.1785
10984TIP3    H154367   1.045   2.852   0.409 -0.2625 -0.0388  0.8574
10984TIP3    H254368   0.896   2.874   0.426  0.0094  2.2355  0.5170
10985TIP3   OH254369   5.951   1.767  15.999 -0.2577 -0.3066 -0.0685
10985TIP3    H154370   5.979   1.789  16.087  0.5134  1.4971 -0.7198
10985TIP3    H254371   6.024   1.717  15.962 -0.1278 -0.1522 -0.0222
10986TIP3   OH254372   1.966   0.336   4.495 -0.0624 -0.0646 -0.1059
10986TIP3    H154373   1.886   0.290   4.522 -0.8986  0.6792 -1.2084
10986TIP3    H254374   2.037   0.279   4.525 -1.0288 -1.5652 -0.5155
10987TIP3   OH254375   0.884   3.058   3.890  0.4841 -0.4077 -0.0218
10987TIP3    H154376   0.912   3.074   3.980 -0.8356 -2.7930  0.9280
10987TIP3    H254377   0.815   3.123   3.874  1.2583  0.5332  0.3802
10988TIP3   OH254378   5.036   2.119   6.898  0.4875 -0.3394  0.2849
10988TIP3    H154379   5.016   2.027   6.915  1.9394 -1.2403 -2.3213
10988TIP3    H254380   5.126   2.118   6.864 -0.2803  1.7058 -2.0711
10989TIP3   OH254381   0.681   1.600   0.467 -0.0897  0.0112 -0.4681
10989TIP3    H154382   0.718   1.686   0.490  0.4222 -0.1382 -0.7216
10989TIP3    H254383   0.627   1.577   0.543 -1.3856  1.1853 -0.9815
10990TIP3   OH254384   4.542   6.317   5.805 -0.3622 -0.1049 -0.0141
10990TIP3    H154385   4.626   6.274   5.823 -1.4954 -1.8400  1.5007
10990TIP3    H254386   4.565   6.405   5.778  1.9101  0.0354  2.0695
10991TIP3   OH254387   0.506   3.878   0.960 -0.2900  0.0766  0.0747
10991TIP3    H154388   0.458   3.912   0.884 -1.5367  0.0298  0.8183
10991TIP3    H254389   0.473   3.789   0.972  0.7129 -0.3138  0.0086
10992TIP3   OH254390   3.078   0.656  13.099 -0.0781 -0.2861  0.6182
10992TIP3    H154391   3.057   0.702  13.180 -1.3698 -0.5670  0.4664
10992TIP3    H254392   3.092   0.726  13.035 -0.2454 -0.0807  0.8062
10993TIP3   OH254393   2.411   6.639   3.223 -0.3710  0.6455 -0.1506
10993TIP3    H154394   2.445   6.630   3.134  2.5599 -0.6080  0.9705
10993TIP3    H254395   2.405   6.733   3.236 -2.3043  0.8778 -2.1001
10994TIP3   OH254396   2.528   6.073  17.115 -0.0370 -0.0265 -0.0859
10994TIP3    H154397   2.617   6.103  17.099 -0.3488  1.7075  1.1679
10994TIP3    H254398   2.476   6.112  17.045  0.2071 -1.3209 -1.0197
10995TIP3   OH254399   1.346   6.242  12.034 -0.5073  0.4873  0.0073
10995TIP3    H154400   1.336   6.228  11.940 -0.9276 -0.4110  0.1705
10995TIP3    H254401   1.362   6.154  12.070 -0.7730  0.7577  0.8229
10996TIP3   OH254402   0.627   4.928  13.943 -0.2193 -0.4942 -0.2545
10996TIP3    H154403   0.546   4.883  13.918 -1.3054  1.0776  0.2258
10996TIP3    H254404   0.692   4.859  13.949 -1.9609 -2.1483  1.1717
10997TIP3   OH254405   0.538   6.454   2.831  0.8993 -0.0883  0.1952
10997TIP3    H154406   0.587   6.428   2.909 -0.9566 -1.0249  1.1265
10997TIP3    H254407   0.451   6.416   2.844 -0.0677  1.4419 -1.4057
10998TIP3   OH254408   3.056   5.889   5.421  0.4469 -0.7685 -0.2256
10998TIP3    H154409   2.964   5.870   5.400 -0.3473 -0.2266  2.3355
10998TIP3    H254410   3.094   5.918   5.338 -2.3913  1.4603 -0.9413
10999TIP3   OH254411   2.013   3.882   0.551  0.1064 -0.1713 -0.0112
10999TIP3    H154412   1.919   3.892   0.566 -0.3075 -2.1389 -0.9198
10999TIP3    H254413   2.054   3.905   0.634 -1.2512 -0.0948  0.6595
11000TIP3   OH254414   3.994   5.234  12.814  0.6287 -0.0896  0.1765
11000TIP3    H154415   3.967   5.324  12.794 -0.4341 -0.4974 -0.2971
11000TIP3    H254416   4.088   5.233  12.796  0.0905  0.0103 -3.4428
11001TIP3   OH254417   1.111   0.727  14.977 -0.6969 -0.0458  0.2190
11001TIP3    H154418   1.148   0.664  15.039 -0.0583  0.8473  0.7685
11001TIP3    H254419   1.182   0.789  14.959 -1.4483  0.8162  0.1018
11002TIP3   OH254420   4.100   6.501  16.455  0.1160 -0.3499 -0.3239
11002TIP3    H154421   4.110   6.440  16.383 -1.4319  0.4280 -1.2533
11002TIP3    H254422   4.127   6.451  16.533  1.1746 -1.4068 -1.3305
11003TIP3   OH254423   4.181   3.804   4.158 -0.4678 -0.4555 -0.5393
11003TIP3    H154424   4.269   3.785   4.193  0.1865  0.2089 -1.7744
11003TIP3    H254425   4.139   3.718   4.154  0.1398 -0.7983 -0.0002
11004TIP3   OH254426   5.228   4.409   0.238  0.1245 -0.3816  0.2676
11004TIP3    H154427   5.183   4.354   0.302 -1.2922 -0.6290 -0.8991
11004TIP3    H254428   5.305   4.358   0.212  0.6364 -0.3489  1.5956
11005TIP3   OH254429   1.811   6.318   0.389 -0.1166 -0.4435  0.2723
11005TIP3    H154430   1.780   6.244   0.441 -0.4525  0.6163  1.6505
11005TIP3    H254431   1.780   6.396   0.436  3.1459  0.6878  0.8726
11006TIP3   OH254432   6.142   2.580  15.617  0.5284  0.1349  0.7532
11006TIP3    H154433   6.065   2.538  15.657  0.6156  0.1751  0.9621
11006TIP3    H254434   6.116   2.671  15.606  1.0486  0.4766  2.1403
11007TIP3   OH254435   4.613   1.179  12.073 -0.0867 -0.1737  0.4199
11007TIP3    H154436   4.553   1.239  12.030 -1.1281  0.7296  2.9411
11007TIP3    H254437   4.565   1.095  12.075 -0.1085 -0.1744  0.0533
11008TIP3   OH254438   1.449   2.652   5.094 -0.2445 -0.0145  0.1640
11008TIP3    H154439   1.414   2.731   5.136 -0.0761  0.1133  0.0666
11008TIP3    H254440   1.488   2.602   5.165  1.2131  0.8249 -0.0158
11009TIP3   OH254441   6.501   3.531   0.015  0.3127 -0.2827  0.5911
11009TIP3    H154442   6.579   3.563  -0.031 -0.3186  0.3304 -0.0710
11009TIP3    H254443   6.482   3.447  -0.026  1.3194 -1.0174  1.5756
11010TIP3   OH254444   5.423   4.934   1.156  0.0501  0.0240  0.2865
11010TIP3    H154445   5.482   4.997   1.113 -0.4727  0.1960 -0.1910
11010TIP3    H254446   5.378   4.986   1.223  0.8056 -0.2253  1.0090
11011TIP3   OH254447   5.615   5.468   1.407 -0.5554  0.2862  0.2367
11011TIP3    H154448   5.546   5.448   1.344  2.1646 -0.1071 -2.9133
11011TIP3    H254449   5.623   5.388   1.459 -2.5188  0.4093  0.8023
11012TIP3   OH254450   3.304   5.484   2.426 -0.2476 -0.2132  0.4784
11012TIP3    H154451   3.315   5.544   2.499  1.3110 -0.7936  0.7539
11012TIP3    H254452   3.327   5.398   2.461 -1.2962 -0.7980 -0.2147
11013TIP3   OH254453   6.718   3.734  14.344 -0.7159  0.0977  0.1904
11013TIP3    H154454   6.623   3.740  14.333 -0.5060  1.1718 -1.4434
11013TIP3    H254455   6.741   3.810  14.398 -0.8413 -0.5864  1.2378
11014TIP3   OH254456   2.107   6.212  14.297  0.3416 -0.4475  0.3830
11014TIP3    H154457   2.154   6.269  14.358 -0.8132  0.8614  0.1055
11014TIP3    H254458   2.168   6.200  14.224  0.9695 -0.3634  0.8884
11015TIP3   OH254459   4.583   3.841  14.979  0.0081 -0.2615  0.0272
11015TIP3    H154460   4.501   3.841  15.029 -0.1935  0.6879 -0.2735
11015TIP3    H254461   4.639   3.779  15.024 -0.6337 -0.3852  0.6662
11016TIP3   OH254462   2.306   3.547  17.128 -0.6592  0.3196  0.1062
11016TIP3    H154463   2.236   3.482  17.131  0.8590 -1.4528 -0.4284
11016TIP3    H254464   2.386   3.495  17.116  0.8139  2.2115  1.1414
11017TIP3   OH254465   2.824   0.892  12.628  0.7050  0.0996  0.0612
11017TIP3    H154466   2.850   0.947  12.702  0.1243 -0.0569  0.3900
11017TIP3    H254467   2.728   0.888  12.634  0.5869  0.6736 -1.1237
11018TIP3   OH254468   5.724   0.272  14.142  0.1936 -0.6152  0.1102
11018TIP3    H154469   5.815   0.276  14.113  0.4005  2.1105  0.9161
11018TIP3    H254470   5.718   0.336  14.213 -2.5680  0.0453 -0.5899
11019TIP3   OH254471   5.324   0.659   2.307 -0.1378 -0.0562  0.5628
11019TIP3    H154472   5.405   0.659   2.257  0.5759 -0.2074  1.6822
11019TIP3    H254473   5.273   0.732   2.271 -0.5760 -1.3978 -1.7682
11020TIP3   OH254474   4.629   2.115   4.174 -0.2832 -0.6014  0.2392
11020TIP3    H154475   4.613   2.207   4.197  2.5751  0.3861 -1.2128
11020TIP3    H254476   4.545   2.084   4.140 -1.0160  1.9007 -0.4696
11021TIP3   OH254477   0.117   2.636   2.623 -0.1857 -0.2849 -0.0842
11021TIP3    H154478   0.052   2.578   2.584  0.8230 -2.0787  0.7626
11021TIP3    H254479   0.096   2.635   2.717 -1.1274  2.0606 -0.2054
11022TIP3   OH254480   0.513   4.893   0.891 -0.1856  0.9648 -0.1467
11022TIP3    H154481   0.449   4.828   0.919 -1.5255  2.0825 -0.4775
11022TIP3    H254482   0.488   4.973   0.938  0.8029  1.5020 -0.5038
11023TIP3   OH254483   3.999   6.413  15.206 -0.0586  0.4172  0.3038
11023TIP3    H154484   4.029   6.335  15.160  1.9597 -0.8431  3.4209
11023TIP3    H254485   3.906   6.396  15.223  0.2125 -1.0630  0.4380
11024TIP3   OH254486   0.182   1.082   5.462 -0.0507 -0.0447 -0.0903
11024TIP3    H154487   0.255   1.061   5.403  0.7142  0.4182  0.6610
11024TIP3    H254488   0.225   1.119   5.539 -1.1374  0.9957  0.0356
11025TIP3   OH254489   4.354   1.404  13.428  0.3561 -0.4878 -0.3069
11025TIP3    H154490   4.439   1.379  13.464 -0.2066 -1.9447  0.0985
11025TIP3    H254491   4.323   1.474  13.485 -0.6498 -2.9228  2.4298
11026TIP3   OH254492   3.759   3.829   5.564 -0.0337 -0.1254 -0.2362
11026TIP3    H154493   3.804   3.792   5.488 -1.5000 -1.4565 -0.5231
11026TIP3    H254494   3.683   3.772   5.576 -0.5739  0.8808  1.4013
11027TIP3   OH254495   0.207   0.053  14.986  0.5295  0.0981  0.0950
11027TIP3    H154496   0.229  -0.032  14.948  1.1017 -0.1058  0.8492
11027TIP3    H254497   0.134   0.035  15.045 -1.1050  0.6025 -1.6592
11028TIP3   OH254498   4.323   5.760  14.493 -0.0303 -0.0075 -0.2906
11028TIP3    H154499   4.268   5.723  14.562 -0.1539  0.3625 -0.1864
11028TIP3    H254500   4.364   5.684  14.451 -0.7544 -0.3023 -0.4824
11029TIP3   OH254501   0.346   2.850  14.340  1.0113 -0.4499 -0.2823
11029TIP3    H154502   0.344   2.824  14.248  2.2158 -0.7206 -0.2571
11029TIP3    H254503   0.402   2.784  14.381  1.6085  0.4374  0.3734
11030TIP3   OH254504   1.099   3.392   3.259 -0.0410  0.1931  0.5264
11030TIP3    H154505   1.114   3.408   3.165 -0.9848 -0.7295  0.2040
11030TIP3    H254506   1.161   3.450   3.303  0.1318  0.9494 -0.6661
11031TIP3   OH254507   3.280   2.057  16.108  0.0121 -0.4626  0.4885
11031TIP3    H154508   3.250   2.140  16.072 -2.4680 -1.0713  0.9566
11031TIP3    H254509   3.259   1.992  16.041  0.9885 -0.8776  0.5535
11032TIP3   OH254510   4.017   6.672   2.845  0.5255  0.0644  0.5273
11032TIP3    H154511   4.016   6.596   2.786  2.4657  0.0161  0.5030
11032TIP3    H254512   3.988   6.637   2.929 -1.7371  0.0167 -0.2005
11033TIP3   OH254513   1.308   4.883   4.382 -0.3876 -0.5624  0.0905
11033TIP3    H154514   1.355   4.960   4.414 -1.2242 -0.1447  0.3293
11033TIP3    H254515   1.300   4.825   4.458 -0.4407 -0.5424  0.1001
11034TIP3   OH254516   3.872   2.752   6.309  0.6311 -0.7687 -0.3691
11034TIP3    H154517   3.818   2.750   6.388  0.2001 -0.5102 -0.6526
11034TIP3    H254518   3.857   2.839   6.272  0.7453 -0.9286 -0.7958
11035TIP3   OH254519   2.517   0.614  15.342  0.1952  0.2406 -0.1547
11035TIP3    H154520   2.481   0.562  15.270 -1.8805  2.2494 -0.6917
11035TIP3    H254521   2.552   0.692  15.300  2.3602 -0.1837  0.7270
11036TIP3   OH254522   5.417   1.692   5.860  0.4510  0.2293 -0.5533
11036TIP3    H154523   5.332   1.734   5.842  0.6423  1.0474  0.3474
11036TIP3    H254524   5.481   1.747   5.816  0.6225  0.3888 -0.1177
11037TIP3   OH254525   5.334   3.014  17.302 -0.1988 -0.3495  0.6925
11037TIP3    H154526   5.260   3.037  17.357 -1.2479 -3.2743  0.6805
11037TIP3    H254527   5.309   2.931  17.261  1.5034  0.4725 -2.3783
11038TIP3   OH254528   2.619   1.424   4.037 -0.0500  0.3540 -0.9194
11038TIP3    H154529   2.527   1.408   4.016 -0.1182 -0.9029  0.1750
11038TIP3    H254530   2.620   1.429   4.133  1.2313 -1.3305 -0.7951
11039TIP3   OH254531   4.730   5.707  16.838  0.3558  0.5481  0.0859
11039TIP3    H154532   4.677   5.726  16.916  1.0063  2.0117  0.2012
11039TIP3    H254533   4.669   5.662  16.779 -0.3182 -0.0414  1.1870
11040TIP3   OH254534   1.102   0.229  12.012  0.6097 -0.3652  0.2232
11040TIP3    H154535   1.098   0.134  12.023  2.2482 -0.4903  0.0326
11040TIP3    H254536   1.032   0.249  11.950 -0.6847 -1.2389  1.3415
11041TIP3   OH254537   2.871   4.830   1.969  0.1743 -0.4027  0.2239
11041TIP3    H154538   2.958   4.860   1.942 -0.7318  2.3004  0.0546
11041TIP3    H254539   2.824   4.815   1.887 -0.2866  0.6625  0.2732
11042TIP3   OH254540   3.589   0.384  13.530 -0.2622  0.0224  0.4750
11042TIP3    H154541   3.575   0.469  13.571 -0.6957 -0.3130  1.0372
11042TIP3    H254542   3.668   0.350  13.572 -0.2061  0.0632  0.4007
11043TIP3   OH254543   2.405   2.892  14.438 -0.2095  0.1705 -0.1354
11043TIP3    H154544   2.436   2.913  14.350  0.4788  0.1746  0.1022
11043TIP3    H254545   2.320   2.937  14.445 -0.6919 -0.5599 -1.1063
11044TIP3   OH254546   1.037   4.814  17.080 -0.4721 -0.0906 -0.0595
11044TIP3    H154547   1.073   4.738  17.033  0.6676 -1.1774  2.3517
11044TIP3    H254548   0.999   4.776  17.159 -2.4539  1.6252 -0.1238
11045TIP3   OH254549   0.863   4.769   0.356  0.6872 -0.1065 -0.1427
11045TIP3    H154550   0.836   4.778   0.448  0.8233  0.2999 -0.1419
11045TIP3    H254551   0.842   4.854   0.317 -0.4152 -0.6511 -0.7579
11046TIP3   OH254552   0.909   5.684  15.679 -0.0412  0.3811  0.3558
11046TIP3    H154553   0.856   5.619  15.726 -0.6099  0.4516 -0.1730
11046TIP3    H254554   0.884   5.673  15.588 -0.1978  1.3992  0.2688
11047TIP3   OH254555   5.419   1.207  13.664 -0.8454 -0.2228  0.3816
11047TIP3    H154556   5.330   1.214  13.698 -0.3784  2.4295  1.3174
11047TIP3    H254557   5.471   1.265  13.721  1.2234 -0.6314 -0.9687
11048TIP3   OH254558   5.905   1.171  12.901 -0.2178  0.4301  0.7201
11048TIP3    H154559   5.980   1.114  12.883 -0.1146  0.7910 -0.0525
11048TIP3    H254560   5.944   1.257  12.917 -0.4645  0.6325  0.2501
11049TIP3   OH254561   2.518   3.583  17.474 -0.3202 -0.1447  0.4160
11049TIP3    H154562   2.548   3.664  17.432 -2.8548  0.6672 -0.0055
11049TIP3    H254563   2.513   3.604  17.567  0.1145 -0.2015  0.4548
11050TIP3   OH254564   1.578   6.124   0.996  0.6190 -0.0180  0.4680
11050TIP3    H154565   1.538   6.067   0.930  0.4727  0.6195 -0.0019
11050TIP3    H254566   1.658   6.156   0.955 -0.7564  2.5028 -0.5228
11051TIP3   OH254567   2.003   4.740   4.698 -0.9222  0.4500 -0.6562
11051TIP3    H154568   2.021   4.764   4.607  0.6025 -0.1666 -0.5481
11051TIP3    H254569   2.089   4.738   4.739 -1.6662  1.9631  1.1368
11052TIP3   OH254570   3.738   2.842  12.045  0.1979 -0.0501  0.2724
11052TIP3    H154571   3.658   2.836  12.097  0.0214  0.1251  0.0258
11052TIP3    H254572   3.707   2.852  11.955  0.4922 -0.9822  0.0530
11053TIP3   OH254573   1.409   0.746  16.369  0.4668  0.7831  0.5665
11053TIP3    H154574   1.443   0.663  16.402  0.7096  0.1201 -1.2216
11053TIP3    H254575   1.319   0.750  16.402  0.3215 -0.3930  0.3621
11054TIP3   OH254576   0.147   0.174   6.018  0.7995  0.2876 -0.4327
11054TIP3    H154577   0.189   0.198   6.101  0.3108  0.2620 -0.1698
11054TIP3    H254578   0.176   0.241   5.956 -0.1906  1.3235  0.1791
11055TIP3   OH254579   3.858   0.092  16.840  0.0592  0.8250  0.4038
11055TIP3    H154580   3.885   0.028  16.774  0.3770  0.9270  0.4339
11055TIP3    H254581   3.780   0.054  16.880 -1.0320  1.4264 -1.0437
11056TIP3   OH254582   0.816   3.147  12.600 -0.0859  0.0764 -0.5840
11056TIP3    H154583   0.728   3.140  12.637 -0.4357  2.7238 -0.6897
11056TIP3    H254584   0.818   3.081  12.531 -2.0853  0.1141 -0.7419
11057TIP3   OH254585   5.088   2.392  14.311  0.0387 -0.2104 -0.1492
11057TIP3    H154586   5.025   2.360  14.376  0.2957 -1.8310 -0.6546
11057TIP3    H254587   5.151   2.321  14.301  0.2854  0.2018 -1.8149
11058TIP3   OH254588   3.341   1.224   2.977 -0.3166  0.0265 -0.0019
11058TIP3    H154589   3.399   1.278   3.031 -0.1251 -0.2190  0.0387
11058TIP3    H254590   3.269   1.200   3.036  0.1115 -0.6023  0.2791
11059TIP3   OH254591   1.269   4.229  17.049  0.2483 -0.0975 -0.3951
11059TIP3    H154592   1.269   4.195  17.138 -2.1546  0.3268 -0.1554
11059TIP3    H254593   1.211   4.171  17.000 -0.1511  0.8799 -1.1341
11060TIP3   OH254594   6.322   6.175   3.636 -0.0438 -0.3185 -0.0834
11060TIP3    H154595   6.349   6.109   3.573  0.7361  1.6113 -1.8969
11060TIP3    H254596   6.349   6.140   3.721  0.3328 -2.2934 -0.9694
11061TIP3   OH254597   4.464   1.503   3.282 -0.1286 -0.0354  0.1201
11061TIP3    H154598   4.393   1.453   3.241  1.1027  1.0188 -3.7633
11061TIP3    H254599   4.426   1.535   3.364 -2.3719 -3.5720  0.7170
11062TIP3   OH254600   6.258   1.597  14.707 -0.3214  0.1732 -0.5426
11062TIP3    H154601   6.265   1.672  14.648 -0.7306  1.3759  0.9035
11062TIP3    H254602   6.206   1.628  14.781 -2.2667 -2.1167 -0.8135
11063TIP3   OH254603   3.505   1.717   1.353  0.0917 -0.6598  0.2771
11063TIP3    H154604   3.509   1.661   1.275 -2.2088 -1.0060  0.3366
11063TIP3    H254605   3.521   1.657   1.426  0.1203 -0.7675  0.1827
11064TIP3   OH254606   2.087   6.346   0.428 -0.3320 -1.0406 -0.9696
11064TIP3    H154607   2.125   6.261   0.452 -0.0744 -1.2010 -1.8987
11064TIP3    H254608   1.997   6.325   0.402 -1.1039 -0.6647  1.2050
11065TIP3   OH254609   1.555   1.380  14.151  0.3880  0.1725 -0.5763
11065TIP3    H154610   1.531   1.466  14.116  0.3577  0.3982 -0.0172
11065TIP3    H254611   1.650   1.377  14.141  0.4690  0.5513 -0.0009
11066TIP3   OH254612   1.667   4.223  16.123  0.8210  0.4822 -0.6911
11066TIP3    H154613   1.644   4.136  16.156  1.0789  1.2942  1.8306
11066TIP3    H254614   1.583   4.268  16.114  0.8573  0.8461  0.6893
11067TIP3   OH254615   6.353   1.807   4.245 -0.0092 -0.6449  0.2928
11067TIP3    H154616   6.299   1.742   4.289 -0.8182  0.7771  1.5127
11067TIP3    H254617   6.437   1.805   4.292 -0.8377  0.8039  1.9471
11068TIP3   OH254618   4.662   1.866   0.242 -0.2698 -0.1641 -0.2308
11068TIP3    H154619   4.641   1.827   0.158 -1.2231 -0.8653  0.3134
11068TIP3    H254620   4.578   1.896   0.277  0.3521  1.9838 -0.4032
11069TIP3   OH254621   6.679   2.705  13.314  0.5319  0.1063 -0.4286
11069TIP3    H154622   6.593   2.743  13.299 -0.5969 -1.6114  1.1908
11069TIP3    H254623   6.700   2.727  13.405  1.9569  0.7043 -0.8629
11070TIP3   OH254624   6.648   3.354   5.612  0.1530 -0.2396 -0.2351
11070TIP3    H154625   6.656   3.271   5.565 -1.2833  0.6274 -2.1452
11070TIP3    H254626   6.679   3.335   5.701  0.4571 -2.6281 -0.7958
11071TIP3   OH254627   5.038   4.153  17.066  0.4127 -0.2229  0.6502
11071TIP3    H154628   5.065   4.242  17.046  0.3842 -0.5338 -0.9022
11071TIP3    H254629   4.943   4.154  17.058  0.1879  0.0694  2.7413
11072TIP3   OH254630   1.877   3.591  11.928 -0.2670 -0.1058  0.4071
11072TIP3    H154631   1.867   3.514  11.984 -0.1100  0.2027  0.8692
11072TIP3    H254632   1.971   3.598  11.913 -0.2599  0.1168  0.5438
11073TIP3   OH254633   5.294   3.885   3.494 -0.2072  0.2481 -0.0664
11073TIP3    H154634   5.231   3.854   3.560  0.4417  1.9221  1.4403
11073TIP3    H254635   5.379   3.868   3.534  0.2973 -0.8219 -1.5315
11074TIP3   OH254636   0.771   0.008  12.010  0.0416 -0.0494 -0.0118
11074TIP3    H154637   0.858   0.026  11.974  0.3362  1.4565  1.3376
11074TIP3    H254638   0.749   0.086  12.060 -1.1804 -1.2460  1.4263
11075TIP3   OH254639   5.518   5.649  14.121  0.2873 -0.4350 -0.0311
11075TIP3    H154640   5.588   5.660  14.057  0.3040 -1.7318 -0.2439
11075TIP3    H254641   5.542   5.572  14.171  1.1034  1.3989  2.6433
11076TIP3   OH254642   3.462   6.026  15.971  0.0939  0.3904  0.1051
11076TIP3    H154643   3.475   6.040  15.877 -0.5449  0.6712  0.0538
11076TIP3    H254644   3.398   5.956  15.976  0.7389 -0.1933  0.3447
11077TIP3   OH254645   4.003   2.289  12.617  0.9098 -0.9050 -0.2883
11077TIP3    H154646   4.057   2.368  12.615  1.2735 -1.1226  0.3737
11077TIP3    H254647   3.948   2.295  12.540  1.6224 -0.4909 -0.7748
11078TIP3   OH254648   2.209   5.987  17.416  0.0545  0.4723 -0.3867
11078TIP3    H154649   2.190   5.995  17.510  0.0985  1.4356 -0.4547
11078TIP3    H254650   2.221   5.893  17.403  1.8949  0.4833  0.9271
11079TIP3   OH254651   1.536   4.519  11.950 -0.2211 -0.1947 -0.1894
11079TIP3    H154652   1.538   4.525  11.855  0.3449 -1.7291 -0.2991
11079TIP3    H254653   1.617   4.563  11.978 -0.1116 -0.2269 -0.4521
11080TIP3   OH254654   5.586   2.076  17.445  0.2892 -0.3703  0.0200
11080TIP3    H154655   5.643   2.037  17.512  1.1096 -0.5434 -0.7713
11080TIP3    H254656   5.571   2.005  17.382  3.2024  0.9362 -2.3724
11081TIP3   OH254657   4.215   0.009  11.380  0.5500  0.1298 -0.4869
11081TIP3    H154658   4.132   0.031  11.338  0.4998  0.3613 -0.2686
11081TIP3    H254659   4.196  -0.070  11.430  0.3552  0.4064 -0.1168
11082TIP3   OH254660   5.314   4.299  13.303  0.1672  0.1396  0.1079
11082TIP3    H154661   5.235   4.341  13.270  0.4016  0.8924  0.4680
11082TIP3    H254662   5.283   4.244  13.375  0.2213  2.4756  2.0541
11083TIP3   OH254663   4.824   3.157   1.551  0.0433  0.8930 -0.3736
11083TIP3    H154664   4.835   3.096   1.478  0.1637 -0.1950  0.5239
11083TIP3    H254665   4.731   3.155   1.571 -0.0878  1.6672 -0.8908
11084TIP3   OH254666   3.332   1.485  15.638 -0.0358  0.3390  0.3283
11084TIP3    H154667   3.427   1.492  15.642  0.4717 -2.2722 -2.5946
11084TIP3    H254668   3.300   1.575  15.645  2.8126  1.5615 -0.9555
11085TIP3   OH254669   2.676   3.828   1.518  0.7747  0.4017  0.2738
11085TIP3    H154670   2.723   3.753   1.482  0.7077  0.2776  0.4450
11085TIP3    H254671   2.656   3.883   1.442  1.4395  0.5937  0.2268
11086TIP3   OH254672   4.884   3.717  17.139  0.0891  0.5310  0.3518
11086TIP3    H154673   4.858   3.810  17.140  0.4441  0.6464  2.2595
11086TIP3    H254674   4.979   3.718  17.133  0.0210  0.1609 -2.7708
11087TIP3   OH254675   0.032   5.744  14.733 -0.4456 -0.4179 -0.2347
11087TIP3    H154676   0.074   5.801  14.669  0.6868 -0.8888  0.0605
11087TIP3    H254677  -0.052   5.787  14.753  0.3008  1.0603 -0.1327
11088TIP3   OH254678   5.589   5.831   3.550 -0.0375  0.5376  0.3120
11088TIP3    H154679   5.578   5.765   3.481 -0.2235  2.8342 -1.9938
11088TIP3    H254680   5.682   5.852   3.548  0.1047  0.0732  1.3616
11089TIP3   OH254681   5.722   2.965  16.165 -0.4431 -0.6080  0.3732
11089TIP3    H154682   5.639   2.974  16.212 -1.8411  0.8417 -2.1486
11089TIP3    H254683   5.756   3.055  16.158 -1.0740 -0.5003 -2.5531
11090TIP3   OH254684   2.063   5.083   3.157 -0.3950 -0.1691 -0.6142
11090TIP3    H154685   2.069   5.071   3.062  0.3346  0.5354 -0.6622
11090TIP3    H254686   2.106   5.166   3.174 -0.5783 -0.2559  0.3356
11091TIP3   OH254687   3.576   0.876   0.127  0.1945  0.3986  0.2399
11091TIP3    H154688   3.526   0.854   0.049 -0.5469  2.1680  0.1576
11091TIP3    H254689   3.522   0.942   0.172  0.8086 -0.2505  2.0166
11092TIP3   OH254690   0.795   0.751   1.699 -0.0134 -0.2315  0.1605
11092TIP3    H154691   0.774   0.657   1.696 -0.0717 -0.2212  0.2712
11092TIP3    H254692   0.712   0.794   1.719  0.1342 -0.1979  0.6966
11093TIP3   OH254693   1.898   4.532   1.119  0.4488  0.0900  0.0995
11093TIP3    H154694   1.908   4.468   1.049  0.7287 -1.3644  1.4050
11093TIP3    H254695   1.875   4.480   1.196 -1.1944  1.7622  0.8065
11094TIP3   OH254696   1.968   6.657  16.422  0.2447 -0.2675  0.2881
11094TIP3    H154697   1.874   6.674  16.427  0.0460 -1.5907  2.8579
11094TIP3    H254698   1.980   6.574  16.467  2.5981 -0.4531 -0.5317
11095TIP3   OH254699   6.528   4.667  14.511 -0.5813  0.3234  0.1520
11095TIP3    H154700   6.447   4.641  14.556 -1.6903  0.8921 -1.4169
11095TIP3    H254701   6.562   4.740  14.563 -0.9416 -0.0845  0.9740
11096TIP3   OH254702   2.654   6.003   6.196 -0.2859 -0.6090  0.1264
11096TIP3    H154703   2.689   5.914   6.190  0.4970 -0.2309 -1.4117
11096TIP3    H254704   2.682   6.034   6.282  1.0726 -1.1803 -0.0966
11097TIP3   OH254705   0.267   1.896  12.117  0.0350  0.1850 -0.4582
11097TIP3    H154706   0.301   1.850  12.194  1.0229  0.4998 -0.6831
11097TIP3    H254707   0.189   1.847  12.092  0.5028 -0.7673 -0.0993
11098TIP3   OH254708   2.132   6.352   2.634  0.0515 -0.7780 -0.1604
11098TIP3    H154709   2.152   6.356   2.541 -0.6228 -2.0417 -0.3824
11098TIP3    H254710   2.201   6.404   2.676  0.0173  0.3056 -1.3924
11099TIP3   OH254711   3.102   4.579   1.663 -0.1804 -0.2723  0.1819
11099TIP3    H154712   3.019   4.605   1.623  0.5449  0.1946 -1.0818
11099TIP3    H254713   3.115   4.639   1.736  0.3745  1.5040 -1.3161
11100TIP3   OH254714   2.184   0.735  15.795  0.2828  0.1762 -0.2135
11100TIP3    H154715   2.197   0.814  15.742  2.4114  0.6826  0.9382
11100TIP3    H254716   2.123   0.763  15.863  0.2243  0.5379 -0.4093
11101TIP3   OH254717   5.340   1.247  12.718  0.1431  0.1681  0.1261
11101TIP3    H154718   5.287   1.304  12.662  1.6596  0.6218 -0.9320
11101TIP3    H254719   5.311   1.159  12.698 -0.8804  0.4570  0.3052
11102TIP3   OH254720   4.599   3.277  13.115  0.4296 -0.0848  0.1818
11102TIP3    H154721   4.655   3.200  13.108 -0.3146 -0.6418  0.3311
11102TIP3    H254722   4.550   3.279  13.034 -0.5598 -0.5641  0.7544
11103TIP3   OH254723   5.514   6.102   6.243  0.0972  0.2918 -0.4359
11103TIP3    H154724   5.557   6.178   6.204  1.5696 -0.9543 -1.3419
11103TIP3    H254725   5.554   6.094   6.330  0.4063  0.1689 -0.5904
11104TIP3   OH254726   0.384   3.660  12.592 -0.2144  0.6047  0.4386
11104TIP3    H154727   0.478   3.677  12.590  0.7658 -3.5770 -2.4209
11104TIP3    H254728   0.374   3.592  12.660 -1.1463  0.8302  0.5405
11105TIP3   OH254729   2.573   3.783   5.047 -0.0455  0.2083 -0.5679
11105TIP3    H154730   2.543   3.869   5.018  0.5255  0.6226  0.0503
11105TIP3    H254731   2.540   3.774   5.136 -0.4311 -0.3888 -0.7602
11106TIP3   OH254732   0.452   1.057   5.367 -0.2806  0.0105 -0.3804
11106TIP3    H154733   0.535   1.041   5.323 -0.4046  0.7140 -0.8909
11106TIP3    H254734   0.470   1.037   5.459  0.5797  0.5672 -0.4139
11107TIP3   OH254735   0.108   4.734  16.015  0.3929  0.5756 -0.0764
11107TIP3    H154736   0.125   4.748  15.922  0.8726  1.2225  0.1004
11107TIP3    H254737   0.028   4.682  16.018  0.2336  0.7738 -0.8418
11108TIP3   OH254738   4.035   2.665  16.561 -0.0771  0.3651 -0.1554
11108TIP3    H154739   3.996   2.579  16.571 -0.5578  0.7259  1.4487
11108TIP3    H254740   3.971   2.715  16.510  0.2927 -0.2578 -1.2582
11109TIP3   OH254741   5.493   5.059  12.912  0.3197 -0.2376  0.0762
11109TIP3    H154742   5.421   5.112  12.876 -0.8217 -1.3268  0.6949
11109TIP3    H254743   5.524   5.008  12.838  1.2400  1.0452 -0.4619
11110TIP3   OH254744   1.528   0.528   5.365 -0.1486  0.3384 -0.6091
11110TIP3    H154745   1.525   0.471   5.443  0.1394  1.0849 -0.0391
11110TIP3    H254746   1.494   0.473   5.295  0.3905 -0.6498 -0.1370
11111TIP3   OH254747   4.606   4.197   2.266 -0.2668  0.4108 -0.0760
11111TIP3    H154748   4.616   4.102   2.278 -0.9320  0.6442  3.5553
11111TIP3    H254749   4.521   4.206   2.224 -1.1605 -0.6284  1.3948
11112TIP3   OH254750   2.033   4.976  12.443  0.4936 -0.4328 -0.1330
11112TIP3    H154751   1.958   5.007  12.494  0.2145  0.8689 -1.2894
11112TIP3    H254752   2.102   4.963  12.508 -0.9485 -2.5897  1.1065
11113TIP3   OH254753   4.513   1.296   0.231 -0.5517 -0.4801 -0.1452
11113TIP3    H154754   4.579   1.357   0.262 -0.6691 -0.9473  1.0856
11113TIP3    H254755   4.438   1.351   0.209  0.2351  0.0610 -1.6334
11114TIP3   OH254756   4.128   4.352  16.670 -0.0233 -0.2348  0.1788
11114TIP3    H154757   4.049   4.317  16.628  0.2856 -1.9118  0.9345
11114TIP3    H254758   4.094   4.412  16.737 -0.6632 -0.7374  0.3162
11115TIP3   OH254759   0.677   0.998  17.138  0.1655  0.8962 -0.2100
11115TIP3    H154760   0.698   0.988  17.230 -1.1746  0.7560  0.0981
11115TIP3    H254761   0.641   1.087  17.131 -2.7556 -0.1341  0.0716
11116TIP3   OH254762   0.837   3.809  13.537  0.0943  0.4551  0.3641
11116TIP3    H154763   0.817   3.723  13.502  0.9274  0.0206  0.9070
11116TIP3    H254764   0.755   3.839  13.576 -0.4564  0.3322 -0.6626
11117TIP3   OH254765   3.486   2.417   2.506  0.3650 -0.0340 -0.0961
11117TIP3    H154766   3.504   2.323   2.504  0.0765 -0.0939  0.0154
11117TIP3    H254767   3.462   2.435   2.597  0.1076  0.0856 -0.1862
11118TIP3   OH254768   0.209   0.772  12.198  0.2127  0.0841 -0.2817
11118TIP3    H154769   0.211   0.868  12.201 -0.4982  0.2096 -2.2591
11118TIP3    H254770   0.116   0.750  12.199  0.3669 -0.5765 -0.1107
11119TIP3   OH254771   1.994   3.239  11.839 -0.6565  0.0068 -0.5930
11119TIP3    H154772   1.924   3.174  11.837 -1.0125  0.3726 -0.1834
11119TIP3    H254773   1.969   3.300  11.908 -0.5318  0.8091 -1.2360
11120TIP3   OH254774   4.279   6.022  11.227  0.0203 -0.1650 -0.6759
11120TIP3    H154775   4.194   5.995  11.191  0.2742  1.0824 -2.3666
11120TIP3    H254776   4.267   6.115  11.248  1.4594  0.5776 -2.7988
11121TIP3   OH254777   3.942   5.293   0.551 -0.0431 -0.4166  1.4109
11121TIP3    H154778   3.942   5.329   0.640 -0.5982 -0.2353  1.3404
11121TIP3    H254779   3.889   5.355   0.501  1.2508  0.1418  0.6757
11122TIP3   OH254780   2.432   0.670  13.318  0.2476 -0.3902  0.3793
11122TIP3    H154781   2.350   0.695  13.361  0.8624  0.9685  0.8173
11122TIP3    H254782   2.420   0.695  13.226  0.3092  0.1687  0.5219
11123TIP3   OH254783   6.081   1.928  14.426 -0.4155  0.1688  0.0570
11123TIP3    H154784   6.145   1.909  14.495 -0.3013 -0.7784 -0.2986
11123TIP3    H254785   6.008   1.869  14.445  0.0369 -0.8409 -1.1962
11124TIP3   OH254786   6.031   5.611  14.127 -0.6541 -0.1520 -0.6369
11124TIP3    H154787   6.035   5.662  14.046 -2.0258  0.9687 -0.0547
11124TIP3    H254788   6.000   5.673  14.193 -0.6191 -1.3065  0.5110
11125TIP3   OH254789   2.878   3.815  15.186 -0.2955  0.0217  0.3850
11125TIP3    H154790   2.912   3.746  15.129 -2.1667  0.0013 -0.7833
11125TIP3    H254791   2.798   3.778  15.224 -2.1553  1.9300 -1.3591
11126TIP3   OH254792   3.407   4.647  15.021 -0.0436  0.4026  0.4572
11126TIP3    H154793   3.472   4.713  15.047 -0.4356 -0.1004  2.9147
11126TIP3    H254794   3.355   4.691  14.953  1.3480  1.6551  0.1455
11127TIP3   OH254795   1.269   0.925   4.896 -0.2911 -0.3825 -0.3770
11127TIP3    H154796   1.244   0.864   4.827  1.0535 -0.0081 -1.2242
11127TIP3    H254797   1.243   0.881   4.977  0.1113 -1.8311 -0.9981
11128TIP3   OH254798   3.050   5.791   4.865 -0.0005  0.5229  0.2868
11128TIP3    H154799   2.973   5.844   4.887  0.5169  1.5083 -0.2157
11128TIP3    H254800   3.125   5.843   4.894  0.6127  0.9041 -1.7752
11129TIP3   OH254801   5.740   4.162   4.236 -0.1055 -0.4466 -0.0288
11129TIP3    H154802   5.654   4.185   4.199 -0.5208  0.4082  1.3996
11129TIP3    H254803   5.733   4.069   4.255 -1.1850 -0.1362  1.2130
11130TIP3   OH254804   3.591   3.424   3.084 -0.0226  0.1143  0.1537
11130TIP3    H154805   3.587   3.512   3.120  1.7948 -0.1533  1.1439
11130TIP3    H254806   3.529   3.373   3.136 -0.5936  0.6492  0.0113
11131TIP3   OH254807   2.443   4.218  11.605  0.1121  0.0906  0.4559
11131TIP3    H154808   2.377   4.180  11.662 -0.0830  0.3651  0.4173
11131TIP3    H254809   2.403   4.298  11.572  0.0180 -0.3380 -0.4932
11132TIP3   OH254810   6.393   6.302  13.996  0.1180  0.2278  0.1199
11132TIP3    H154811   6.337   6.237  14.037  0.7663 -0.7234 -0.4787
11132TIP3    H254812   6.480   6.263  13.995  0.2330  0.4452 -1.6411
11133TIP3   OH254813   4.979   5.520   3.992  0.0862 -0.1360 -0.0924
11133TIP3    H154814   4.985   5.557   4.080  0.9579  2.3088 -1.0900
11133TIP3    H254815   5.059   5.550   3.948 -0.7518 -0.5063 -1.9756
11134TIP3   OH254816   6.262   5.064   2.195  0.3948 -0.7329 -0.0293
11134TIP3    H154817   6.212   5.074   2.114  0.5754  1.2195  0.0606
11134TIP3    H254818   6.320   5.140   2.197  0.1939 -0.5830  2.0672
11135TIP3   OH254819   0.644   4.113  15.850 -0.1449 -0.0348 -0.1625
11135TIP3    H154820   0.551   4.105  15.869 -0.2408  0.0189 -0.6103
11135TIP3    H254821   0.687   4.084  15.931 -0.5538  0.7362  0.3437
11136TIP3   OH254822   5.971   4.227   2.083 -0.3071  0.2912 -0.3852
11136TIP3    H154823   6.019   4.250   2.004 -0.5882  0.6500 -0.4528
11136TIP3    H254824   5.917   4.303   2.102 -2.0330 -0.6583 -1.2033
11137TIP3   OH254825   0.112   4.559  14.722 -0.2683 -0.3165  0.1031
11137TIP3    H154826   0.135   4.604  14.804 -1.1189  1.3147 -0.5124
11137TIP3    H254827   0.196   4.526  14.689  0.0179 -1.5873  1.9164
11138TIP3   OH254828   3.475   2.470   1.629 -0.1050 -0.4813 -0.2505
11138TIP3    H154829   3.449   2.426   1.548  0.2153  1.6265 -1.5553
11138TIP3    H254830   3.399   2.525   1.652  0.3356 -0.0090  0.1064
11139TIP3   OH254831   2.481   4.090   0.522 -0.1250  0.2248 -0.2831
11139TIP3    H154832   2.532   4.140   0.459  0.0400  1.0406  0.4963
11139TIP3    H254833   2.481   4.142   0.601 -1.7195 -0.0022 -0.0950
11140TIP3   OH254834   3.129   0.113  13.036 -0.2544  0.1807  0.3028
11140TIP3    H154835   3.187   0.176  13.079  1.2333 -0.4561 -0.6580
11140TIP3    H254836   3.150   0.029  13.078 -1.5991  0.1769  0.9924
11141TIP3   OH254837   2.229   1.270   2.873  0.1506  0.3892 -0.2560
11141TIP3    H154838   2.310   1.256   2.922  0.2765  1.1151 -0.2456
11141TIP3    H254839   2.189   1.183   2.868 -0.1506  0.3720  1.6271
11142TIP3   OH254840   6.124   6.400   0.602  0.4308  0.2872  0.4614
11142TIP3    H154841   6.061   6.408   0.674 -1.6238  1.9560 -1.3980
11142TIP3    H254842   6.108   6.312   0.567 -0.8106  0.6311  0.1079
11143TIP3   OH254843   0.803   4.682  16.156  0.2406  0.6475  0.3079
11143TIP3    H154844   0.850   4.663  16.237  0.1779  1.1473  0.4667
11143TIP3    H254845   0.760   4.766  16.173 -0.8584  0.1154  0.2334
11144TIP3   OH254846   0.914   1.420   0.155  0.7958 -0.2092  0.4243
11144TIP3    H154847   0.842   1.384   0.207  1.0442 -0.3730  0.6543
11144TIP3    H254848   0.945   1.347   0.102 -0.9886  0.4938 -1.7257
11145TIP3   OH254849   1.394   3.253  13.690 -0.4401  0.0898 -0.1147
11145TIP3    H154850   1.448   3.179  13.660  1.7856  0.9039  1.6179
11145TIP3    H254851   1.376   3.302  13.610  2.0171  0.1193 -0.7602
11146TIP3   OH254852   1.409   1.431   5.016 -0.1655 -0.3057 -0.0894
11146TIP3    H154853   1.447   1.457   5.099  0.1784 -0.4402 -0.2025
11146TIP3    H254854   1.375   1.343   5.031 -3.1115  0.8741  0.8746
11147TIP3   OH254855   1.800   6.202  16.948  0.1216  0.3435 -0.2364
11147TIP3    H154856   1.786   6.135  16.880  0.7189  0.2870 -0.3115
11147TIP3    H254857   1.761   6.281  16.912  2.2072  0.8561 -1.5868
11148TIP3   OH254858   0.976   6.168  14.430  0.3093 -0.3471  0.3200
11148TIP3    H154859   1.024   6.106  14.376 -0.8746  0.0738 -1.2623
11148TIP3    H254860   0.910   6.115  14.475 -0.3989 -0.3208 -0.6719
11149TIP3   OH254861   4.687   1.243  13.020 -0.1964  0.1169  0.2055
11149TIP3    H154862   4.773   1.202  13.013 -0.1121  0.4177 -0.6235
11149TIP3    H254863   4.658   1.254  12.930 -0.9248  0.4047  0.4654
11150TIP3   OH254864   0.558   6.348   4.146 -0.2569 -0.3870 -0.0966
11150TIP3    H154865   0.471   6.350   4.106  0.8033 -1.5436 -2.7181
11150TIP3    H254866   0.578   6.255   4.154  0.5558 -0.1365  0.9402
11151TIP3   OH254867   1.463   4.899  13.226 -0.1157  0.1016  0.2431
11151TIP3    H154868   1.375   4.871  13.249  0.1269 -1.0341 -0.1449
11151TIP3    H254869   1.519   4.860  13.293  0.0610  1.1916  0.7511
11152TIP3   OH254870   5.823   0.339   6.866  0.2667  0.2490 -0.1238
11152TIP3    H154871   5.855   0.272   6.806 -0.6895 -1.4163  1.1124
11152TIP3    H254872   5.890   0.343   6.935 -0.1141 -0.1544  0.2824
11153TIP3   OH254873   1.739   3.735  16.328 -0.0175  0.0969  0.1192
11153TIP3    H154874   1.803   3.666  16.310 -1.4390 -1.3020  0.1993
11153TIP3    H254875   1.713   3.721  16.419 -1.7040 -0.4998 -0.4102
11154TIP3   OH254876   1.773   1.460   4.656  0.6821  0.0154 -0.0645
11154TIP3    H154877   1.807   1.521   4.722  1.4925  1.0628 -1.4095
11154TIP3    H254878   1.706   1.410   4.703 -0.2353  2.1215  1.0286
11155TIP3   OH254879   5.516   1.149  14.841  0.1882 -0.5010  0.1534
11155TIP3    H154880   5.559   1.160  14.757  0.4156 -0.3493  0.2899
11155TIP3    H254881   5.471   1.232  14.857  1.5275  0.0994  0.9669
11156TIP3   OH254882   2.289   1.536  15.331  0.5606  0.2524 -0.1865
11156TIP3    H154883   2.254   1.561  15.246  1.3164  1.1686 -0.2458
11156TIP3    H254884   2.380   1.563  15.328  1.1610 -1.5800  0.1669
11157TIP3   OH254885   0.651   2.690   1.350 -0.1807  0.2257 -0.3037
11157TIP3    H154886   0.577   2.708   1.292  0.8333  0.2619 -1.6250
11157TIP3    H254887   0.682   2.777   1.377  1.0675  0.3587 -1.9879
11158TIP3   OH254888   5.404   0.297   2.185 -0.6055 -0.4593 -0.3290
11158TIP3    H154889   5.445   0.234   2.245  0.1210  1.2789  1.1120
11158TIP3    H254890   5.336   0.247   2.140 -1.7919 -1.7140  2.5882
11159TIP3   OH254891   3.245   3.596  15.697  0.1185 -0.2575 -0.4885
11159TIP3    H154892   3.275   3.685  15.679  1.3694 -0.9087 -1.8750
11159TIP3    H254893   3.232   3.593  15.792  3.1540  0.5248  0.0645
11160TIP3   OH254894   5.988   5.992  17.312 -0.0952 -0.2783 -0.6337
11160TIP3    H154895   6.003   5.994  17.406  0.6080 -1.7086 -0.6899
11160TIP3    H254896   6.075   6.003  17.273 -0.3943  0.4349 -1.1365
11161TIP3   OH254897   6.395   1.445   5.255  0.0570  0.1393  0.0517
11161TIP3    H154898   6.403   1.468   5.348  0.6970 -2.7775  0.7994
11161TIP3    H254899   6.302   1.426   5.243  0.2759 -1.5449  0.7071
11162TIP3   OH254900   2.342   3.562   3.591  0.0521 -0.9710  0.0537
11162TIP3    H154901   2.378   3.646   3.564  0.1933 -1.4735 -1.3828
11162TIP3    H254902   2.276   3.542   3.525  0.9304 -2.6037 -0.3831
11163TIP3   OH254903   1.695   6.712  14.627 -0.1842  0.4620  0.9106
11163TIP3    H154904   1.730   6.793  14.591 -0.2723  0.1767  0.1766
11163TIP3    H254905   1.772   6.659  14.648 -0.1573  0.0187 -0.2761
11164TIP3   OH254906   0.513   1.772   1.060  0.0103  0.2285 -0.6553
11164TIP3    H154907   0.602   1.745   1.081  0.0995 -0.5128 -1.9121
11164TIP3    H254908   0.465   1.761   1.142  0.9517  0.1564 -0.0987
11165TIP3   OH254909   4.581   6.537   3.125 -0.3064  0.2055  0.1655
11165TIP3    H154910   4.515   6.503   3.185 -0.3325 -0.9011 -0.4592
11165TIP3    H254911   4.558   6.629   3.113 -1.4916 -0.0589  0.2844
11166TIP3   OH254912   5.154   2.336  16.308  0.3286  0.2954  0.0319
11166TIP3    H154913   5.232   2.326  16.363  0.8180 -0.4089 -0.7707
11166TIP3    H254914   5.158   2.426  16.277  1.0389  0.1568 -0.3056
11167TIP3   OH254915   4.499   4.048   4.605  0.3226 -0.0323 -0.1956
11167TIP3    H154916   4.579   4.057   4.555 -1.1083  1.4806 -2.3744
11167TIP3    H254917   4.468   4.138   4.618 -1.9308 -0.6119 -1.0618
11168TIP3   OH254918   3.460   0.242   6.639  0.0305  0.1373 -0.2453
11168TIP3    H154919   3.384   0.199   6.600 -0.8167  1.3449 -0.0124
11168TIP3    H254920   3.423   0.291   6.713  0.5653  2.7486 -1.5869
11169TIP3   OH254921   2.118   5.202   3.550  0.3871 -0.4878 -0.1006
11169TIP3    H154922   2.186   5.138   3.574  1.3805  0.6427  0.2017
11169TIP3    H254923   2.162   5.261   3.489 -0.0213  0.8621  0.8774
11170TIP3   OH254924   5.419   5.734   2.082 -0.1047  0.2828  0.6654
11170TIP3    H154925   5.336   5.704   2.120 -1.5165  2.4952 -0.4720
11170TIP3    H254926   5.393   5.780   2.002  2.0463  2.5393  1.1516
11171TIP3   OH254927   2.229   0.828  13.421  0.4239 -0.1627  0.2293
11171TIP3    H154928   2.255   0.800  13.509 -0.5918  1.1887  0.9944
11171TIP3    H254929   2.134   0.813  13.418  0.0663  1.8065  0.1956
11172TIP3   OH254930   6.605   0.321   5.482 -0.1000 -0.2523 -0.4584
11172TIP3    H154931   6.677   0.311   5.419 -0.5242 -0.7442 -0.8767
11172TIP3    H254932   6.545   0.250   5.460 -0.9744  0.4770 -0.4684
11173TIP3   OH254933   3.412   4.135   6.042  0.0874 -0.7812 -0.0351
11173TIP3    H154934   3.422   4.117   6.135 -0.5732 -2.0251 -0.1744
11173TIP3    H254935   3.380   4.225   6.038 -0.0163 -0.7630  0.9363
11174TIP3   OH254936   4.048   4.262   2.888 -0.1978  0.1138 -0.0461
11174TIP3    H154937   4.037   4.167   2.890  0.6959  0.0174  1.8949
11174TIP3    H254938   4.083   4.284   2.974  0.0101  2.1643 -0.6153
11175TIP3   OH254939   5.004   6.697   0.962  0.8657  0.6960  0.3308
11175TIP3    H154940   5.006   6.646   0.881 -1.1024  0.1911  0.5590
11175TIP3    H254941   4.992   6.632   1.032  0.4792  1.2875  0.8294
11176TIP3   OH254942   3.597   4.628   4.909 -0.4140 -0.7266  0.1333
11176TIP3    H154943   3.627   4.616   4.819 -1.8252  0.5303 -0.5576
11176TIP3    H254944   3.661   4.582   4.962  0.0521 -2.1416 -1.5631
11177TIP3   OH254945   4.060   4.987   4.115 -0.1618  0.9208  0.0988
11177TIP3    H154946   4.074   4.989   4.021 -1.5271 -0.6326 -0.1862
11177TIP3    H254947   4.040   5.078   4.139 -1.2136  1.1152 -1.3633
11178TIP3   OH254948   6.249   3.847  15.114 -0.3132  0.4732  0.0082
11178TIP3    H154949   6.164   3.890  15.107 -0.0725  0.9463 -0.0392
11178TIP3    H254950   6.312   3.915  15.090  0.1519  0.4330  1.0673
11179TIP3   OH254951   4.755   5.434  15.758 -0.3865  0.3397  0.3613
11179TIP3    H154952   4.670   5.454  15.797 -1.0215 -1.9450  0.2761
11179TIP3    H254953   4.818   5.477  15.816 -1.5008  0.4702  1.5341
11180TIP3   OH254954   1.677   6.010  15.682  0.4187  0.0032 -0.2707
11180TIP3    H154955   1.752   6.043  15.730 -0.1494  0.7486  0.1245
11180TIP3    H254956   1.645   6.085  15.632 -0.0274 -0.3160 -0.4800
11181TIP3   OH254957   4.358   2.387  15.055  0.2049 -0.4265  0.8846
11181TIP3    H154958   4.327   2.368  14.966  1.2658  0.3630  0.3201
11181TIP3    H254959   4.396   2.475  15.048 -0.9532  0.2275  2.4546
11182TIP3   OH254960   0.251   0.782  11.197 -0.3547 -0.6125  0.6583
11182TIP3    H154961   0.235   0.819  11.110 -1.5784 -0.9316  0.7327
11182TIP3    H254962   0.219   0.692  11.192  0.2486 -0.8694  1.2269
11183TIP3   OH254963   1.349   5.972   3.436  0.3162  0.1323  0.1376
11183TIP3    H154964   1.333   6.014   3.521  1.6903 -1.2072  1.0965
11183TIP3    H254965   1.393   6.039   3.384 -0.1414  0.8217  0.6174
11184TIP3   OH254966   2.098   3.763  12.825  0.7862 -0.3937 -0.2225
11184TIP3    H154967   2.024   3.752  12.885 -0.2949 -0.3428 -1.4984
11184TIP3    H254968   2.093   3.688  12.766  1.4721 -0.1515 -0.6046
11185TIP3   OH254969   4.463   4.646  13.546 -0.2358 -0.0164 -0.5314
11185TIP3    H154970   4.394   4.677  13.605  0.1435  0.9304 -0.5589
11185TIP3    H254971   4.540   4.634  13.603 -0.3016 -0.6665 -0.5699
11186TIP3   OH254972   5.586   4.746  10.568  0.4620  0.3130 -0.1283
11186TIP3    H154973   5.593   4.705  10.654 -3.1521 -0.6583 -0.1604
11186TIP3    H254974   5.622   4.682  10.508  2.2615  0.6623  0.5048
11187TIP3   OH254975   3.747   0.654   4.059 -0.2037 -0.8584  0.1899
11187TIP3    H154976   3.752   0.602   3.978 -1.2414  0.8858 -1.0687
11187TIP3    H254977   3.717   0.740   4.030  1.6009  0.5299  2.1483
11188TIP3   OH254978   0.140   3.613   0.547  0.5427  0.1594 -0.5823
11188TIP3    H154979   0.182   3.663   0.477  0.8815  0.2366 -0.3270
11188TIP3    H254980   0.050   3.601   0.518  0.6409  0.3306 -0.9575
11189TIP3   OH254981   0.744   4.207   4.984  0.0196 -0.2740  0.6041
11189TIP3    H154982   0.769   4.260   4.909  1.2573 -1.0211  0.4619
11189TIP3    H254983   0.698   4.132   4.947  2.0534 -1.4864  0.3993
11190TIP3   OH254984   0.426   3.833   3.596 -0.1418 -0.0350 -0.3567
11190TIP3    H154985   0.333   3.818   3.581 -0.3136  0.3700  0.2651
11190TIP3    H254986   0.438   3.927   3.584  0.1606 -0.0641 -0.3048
11191TIP3   OH254987   6.745   5.024   2.778 -0.4664 -0.2263  0.1642
11191TIP3    H154988   6.650   5.018   2.782 -0.5077  0.9310  1.8058
11191TIP3    H254989   6.770   5.070   2.858  1.4263  0.1359 -0.5728
11192TIP3   OH254990   5.226   5.886   5.707 -0.1077  0.0903  0.7700
11192TIP3    H154991   5.286   5.883   5.781  0.1598 -0.6282  0.5333
11192TIP3    H254992   5.277   5.924   5.636 -0.1310  0.0724  0.7437
11193TIP3   OH254993   0.621   4.238  12.861  0.0809 -0.4779 -0.4778
11193TIP3    H154994   0.628   4.286  12.778  0.4094  0.1101 -0.1048
11193TIP3    H254995   0.590   4.302  12.924 -1.3171 -1.1964 -0.3881
11194TIP3   OH254996   2.874   1.253   3.698  0.1799  0.4265  0.0346
11194TIP3    H154997   2.907   1.163   3.707  1.8463  1.0689  0.7184
11194TIP3    H254998   2.898   1.277   3.609  1.1197  0.7023  0.3513
11195TIP3   OH254999   3.811   3.100  11.840 -0.3659 -0.8047  0.3164
11195TIP3    H155000   3.751   3.026  11.832 -0.2074 -0.8421 -0.6715
11195TIP3    H255001   3.834   3.103  11.933 -2.9631  0.0548  1.0185
11196TIP3   OH255002   0.600   5.985  12.962  0.2521  0.0057 -0.1120
11196TIP3    H155003   0.626   5.969  12.871 -0.3961  1.1647 -0.5172
11196TIP3    H255004   0.544   6.062  12.958  1.6570  1.1852  1.4932
11197TIP3   OH255005   6.491   4.891   6.153  0.7105  0.2152  0.2752
11197TIP3    H155006   6.585   4.875   6.138  0.9011  1.8746 -0.5634
11197TIP3    H255007   6.466   4.825   6.218  1.6776 -2.4602 -1.8391
11198TIP3   OH255008   2.749   5.766   1.309  0.1038  0.3437  0.3133
11198TIP3    H155009   2.777   5.769   1.400 -2.2137 -0.6028  1.1275
11198TIP3    H255010   2.654   5.752   1.313 -0.2647  1.5459 -2.2455
11199TIP3   OH255011   4.212   4.146  12.687  0.2757 -0.5370  0.2075
11199TIP3    H155012   4.126   4.158  12.727  0.6792 -1.0577  1.2840
11199TIP3    H255013   4.257   4.230  12.700  0.0678 -0.3949  0.0026
11200TIP3   OH255014   3.242   2.069   6.453  0.2594  0.2539  0.9433
11200TIP3    H155015   3.194   2.014   6.391 -0.5860 -0.9969  2.6123
11200TIP3    H255016   3.316   2.103   6.403 -0.8875  0.0940 -0.9979
11201TIP3   OH255017   1.424   1.193  16.742  0.2441  0.8989 -0.4110
11201TIP3    H155018   1.404   1.160  16.654  1.3953 -3.6094  0.7190
11201TIP3    H255019   1.519   1.208  16.740  0.5137 -0.4816  0.2752
11202TIP3   OH255020   6.116   2.053  15.913  0.0209  0.5324 -0.4177
11202TIP3    H155021   6.064   1.978  15.941  2.6742 -0.4653  2.3802
11202TIP3    H255022   6.135   2.101  15.993  3.4485  0.7182 -1.1870
11203TIP3   OH255023   1.034   4.596   1.331 -0.3013 -0.1625 -0.8294
11203TIP3    H155024   0.982   4.598   1.411  0.2307 -0.6791 -0.4557
11203TIP3    H255025   0.988   4.653   1.270 -1.8356 -1.3587 -0.8514
11204TIP3   OH255026   1.789   3.158  11.258  0.3406  0.1938 -0.1545
11204TIP3    H155027   1.839   3.230  11.298  1.0785 -1.6546  2.5217
11204TIP3    H255028   1.854   3.111  11.206  0.8078 -0.6318  1.1239
11205TIP3   OH255029   2.304   0.948   6.385  0.1733 -0.7359 -0.1512
11205TIP3    H155030   2.321   0.899   6.304  1.1487 -0.0142 -0.3891
11205TIP3    H255031   2.209   0.961   6.385  0.0990 -1.2043 -0.9092
11206TIP3   OH255032   2.133   5.465   5.260  0.5285  0.0374  0.0418
11206TIP3    H155033   2.166   5.375   5.260  1.6634  0.4320  0.8711
11206TIP3    H255034   2.180   5.508   5.331  2.4420  2.1403 -2.2750
11207TIP3   OH255035   4.127   3.760   3.638 -0.4906  0.8940 -0.5483
11207TIP3    H155036   4.099   3.849   3.618 -0.0957  1.2298  0.3328
11207TIP3    H255037   4.168   3.729   3.558 -0.3967  1.5965 -0.7819
11208TIP3   OH255038   1.461   0.365  15.630  0.2776  0.4564  0.2280
11208TIP3    H155039   1.470   0.329  15.718  1.7233  0.7494  0.2180
11208TIP3    H255040   1.381   0.325  15.596  1.4033 -2.1486  0.4847
11209TIP3   OH255041   5.549   6.560   4.179  0.2086 -0.4319 -0.1605
11209TIP3    H155042   5.628   6.587   4.227  1.2153 -0.7338 -1.5930
11209TIP3    H255043   5.581   6.501   4.111 -1.3048 -0.7920 -0.5937
11210TIP3   OH255044   3.410   4.276   3.912  0.1283  0.1080  0.4931
11210TIP3    H155045   3.409   4.372   3.921 -0.7348  0.0931  0.6498
11210TIP3    H255046   3.322   4.254   3.882  0.0179 -0.7149  1.3609
11211TIP3   OH255047   2.876   3.926  16.787 -0.0753 -0.2487 -0.1679
11211TIP3    H155048   2.904   3.905  16.698  0.6504 -0.6819  0.1545
11211TIP3    H255049   2.926   4.005  16.810  1.3139 -1.3116  0.5916
11212TIP3   OH255050   5.472   0.253  16.607 -0.4211 -0.2931 -0.2362
11212TIP3    H155051   5.407   0.286  16.669 -1.1889 -0.6379 -0.8411
11212TIP3    H255052   5.454   0.300  16.526 -0.9597 -1.5507 -0.8579
11213TIP3   OH255053   2.369   1.091  11.384 -0.4562 -0.4814  0.0425
11213TIP3    H155054   2.341   1.182  11.384  1.2358  0.0765 -0.9040
11213TIP3    H255055   2.405   1.077  11.472  1.9532  0.6950 -0.6712
11214TIP3   OH255056   4.137   5.839  12.199 -0.5021  0.3914  0.7377
11214TIP3    H155057   4.192   5.776  12.245  1.1317  1.1372 -0.1216
11214TIP3    H255058   4.161   5.924  12.236 -0.3931  0.8249 -0.2848
11215TIP3   OH255059   0.065   2.567   1.533 -0.7494 -0.3182 -0.1634
11215TIP3    H155060   0.047   2.565   1.439 -0.6976  0.7556 -0.2051
11215TIP3    H255061   0.137   2.630   1.543  0.0306 -1.2853  0.4765
11216TIP3   OH255062   5.841   0.166  17.078  0.3936 -0.7972 -0.0389
11216TIP3    H155063   5.933   0.184  17.060 -0.3180  2.3727 -1.0836
11216TIP3    H255064   5.816   0.099  17.014  0.7795  2.0248 -3.3934
11217TIP3   OH255065   3.469   6.336  14.385 -0.2801  0.3857  0.0009
11217TIP3    H155066   3.512   6.252  14.371 -1.7371 -0.3279 -0.3699
11217TIP3    H255067   3.489   6.387  14.306  0.8658  0.5327  0.3640
11218TIP3   OH255068   3.793   3.278  15.668 -0.2618  0.8627  0.6293
11218TIP3    H155069   3.783   3.370  15.642 -1.7488  0.4435 -0.3374
11218TIP3    H255070   3.712   3.235  15.640  0.4866 -0.7977  0.8808
11219TIP3   OH255071   4.262   6.422   1.628  0.3350  0.3276  0.7202
11219TIP3    H155072   4.214   6.446   1.548  2.1250 -0.4767 -0.6862
11219TIP3    H255073   4.209   6.457   1.699 -3.0175 -1.6125 -0.5805
11220TIP3   OH255074   0.566   4.802  14.602 -0.1860  0.6503 -0.0681
11220TIP3    H155075   0.503   4.771  14.537  1.0616  1.0707 -1.5398
11220TIP3    H255076   0.639   4.835  14.551  1.3167  0.0577  1.5697
11221TIP3   OH255077   3.006   1.624   5.690  0.1840 -0.2916 -0.1199
11221TIP3    H155078   2.943   1.696   5.691 -0.9016 -1.2118 -0.9232
11221TIP3    H255079   2.986   1.574   5.769 -1.5872 -1.8086 -1.4637
11222TIP3   OH255080   3.747   2.487   1.523 -0.8097  0.5422 -0.1116
11222TIP3    H155081   3.821   2.498   1.583 -0.4983 -1.5594 -0.0274
11222TIP3    H255082   3.670   2.494   1.579 -0.5157 -1.6335  0.6733
11223TIP3   OH255083   4.461   0.630   3.975  0.4856  0.0121 -0.4019
11223TIP3    H155084   4.528   0.563   3.987  0.2069  0.0667  1.9918
11223TIP3    H255085   4.477   0.665   3.887  4.1195  0.6085  0.3287
11224TIP3   OH255086   1.682   6.491   1.049 -0.0766  0.1599  0.5193
11224TIP3    H155087   1.604   6.463   1.001 -0.2567 -0.2466  1.0407
11224TIP3    H255088   1.699   6.420   1.111  0.1939  0.6444  1.0086
11225TIP3   OH255089   4.811   3.169  16.991 -0.2655  0.8434 -0.5747
11225TIP3    H155090   4.790   3.252  17.035 -1.4014  0.5447 -0.5306
11225TIP3    H255091   4.759   3.103  17.037 -0.4543  0.3219 -1.5171
11226TIP3   OH255092   4.731   5.749  14.822 -0.1882  0.4796 -0.2002
11226TIP3    H155093   4.767   5.701  14.748 -1.2542 -1.8528  0.6820
11226TIP3    H255094   4.806   5.762  14.880 -0.2454 -2.7726  0.8241
11227TIP3   OH255095   2.699   4.418   2.179 -0.0304  0.2571 -0.8567
11227TIP3    H155096   2.720   4.326   2.198 -1.6555 -0.0915 -0.6387
11227TIP3    H255097   2.704   4.425   2.084 -0.3847 -0.1937 -0.9113
11228TIP3   OH255098   2.651   3.313  14.655 -0.1916 -0.5409  0.0832
11228TIP3    H155099   2.713   3.372  14.613  0.3222 -1.1645 -0.0471
11228TIP3    H255100   2.694   3.288  14.737 -0.5032 -0.5619  0.2412
11229TIP3   OH255101   5.034   2.823  11.354 -0.5002 -0.7519 -0.4999
11229TIP3    H155102   5.088   2.780  11.288  3.1266 -0.3821  1.9106
11229TIP3    H255103   5.022   2.756  11.422  0.4329  0.2827  0.7598
11230TIP3   OH255104   4.694   1.717  13.278  0.5818  0.8447  0.0187
11230TIP3    H155105   4.652   1.777  13.217 -0.4669  0.6455  0.5134
11230TIP3    H255106   4.646   1.634  13.267  0.9270  0.5720  0.5140
11231TIP3   OH255107   0.900   1.812  17.032 -0.6787 -0.1885  0.6178
11231TIP3    H155108   0.823   1.857  16.997 -0.1533 -0.5131 -1.0393
11231TIP3    H255109   0.898   1.831  17.126 -1.6630  1.4581  0.3034
11232TIP3   OH255110   3.624   5.302  12.284 -0.2656 -0.3010 -0.1023
11232TIP3    H155111   3.593   5.372  12.226  0.4036 -0.3804 -0.5589
11232TIP3    H255112   3.687   5.344  12.342  0.3068 -0.5714 -0.5262
11233TIP3   OH255113   6.469   0.655  11.655 -0.4830  0.2598 -1.0136
11233TIP3    H155114   6.392   0.695  11.614 -0.7588  0.0269 -0.7284
11233TIP3    H255115   6.482   0.573  11.607  1.1143  1.4486 -2.7466
11234TIP3   OH255116   0.301   6.667   4.075  0.5260  0.5298  0.3029
11234TIP3    H155117   0.256   6.646   4.157 -0.6828  0.6052 -0.3146
11234TIP3    H255118   0.308   6.763   4.076  0.5524  0.5276  0.3374
11235TIP3   OH255119   3.104   3.325   0.948 -0.5285 -0.0026  0.0656
11235TIP3    H155120   3.101   3.233   0.974  1.8577 -0.1870 -0.1179
11235TIP3    H255121   3.196   3.349   0.954 -1.2374  2.8167  1.5024
11236TIP3   OH255122   1.748   5.179   1.631 -0.0643 -0.0378 -0.4929
11236TIP3    H155123   1.816   5.115   1.608  0.8279  0.6355  0.1944
11236TIP3    H255124   1.786   5.263   1.607 -0.0664  0.4678  1.1931
11237TIP3   OH255125   3.469   0.421  14.438 -0.2546 -0.3241  0.1331
11237TIP3    H155126   3.525   0.421  14.361 -0.2537  0.7236  0.1081
11237TIP3    H255127   3.525   0.388  14.509  0.5562  1.0790  0.1947
11238TIP3   OH255128   6.288   2.182  16.132 -0.0404  0.0941  0.0018
11238TIP3    H155129   6.200   2.197  16.169  0.8420  0.5845  2.0220
11238TIP3    H255130   6.331   2.267  16.139  1.8487 -0.9655  2.6726
11239TIP3   OH255131   1.497   2.515   5.315 -0.1803  0.5221 -0.4850
11239TIP3    H155132   1.476   2.563   5.395  1.4047 -0.6837  0.7079
11239TIP3    H255133   1.548   2.440   5.345 -2.0966 -1.6692 -2.3131
11240TIP3   OH255134   4.947   4.970  15.746 -0.0486 -0.0161 -0.2440
11240TIP3    H155135   4.877   5.030  15.722 -1.2644 -0.7468  1.2475
11240TIP3    H255136   4.967   4.923  15.665 -0.7382  0.7560 -0.8839
11241TIP3   OH255137   4.371   3.623   5.103 -0.1544  0.7542 -0.0614
11241TIP3    H155138   4.392   3.578   5.021  0.0704  1.3999 -0.3632
11241TIP3    H255139   4.300   3.683   5.080  0.1102  1.1509  0.1399
11242TIP3   OH255140   6.170   0.503   0.131 -0.3731  0.1470  0.0547
11242TIP3    H155141   6.234   0.499   0.201  1.5356  1.6937 -1.4771
11242TIP3    H255142   6.220   0.487   0.051 -2.3038 -0.7155 -1.0701
11243TIP3   OH255143   5.286   4.016  11.620 -0.1725  0.5330 -0.3465
11243TIP3    H155144   5.198   4.024  11.656 -0.1728  0.5090 -0.3415
11243TIP3    H255145   5.321   4.104  11.623 -0.4620  0.6762 -1.0291
11244TIP3   OH255146   0.310   0.289  12.618 -0.1821 -0.6322  0.1721
11244TIP3    H155147   0.349   0.312  12.703  0.8806  1.5090 -0.8021
11244TIP3    H255148   0.374   0.231  12.577  0.5378  0.3637 -0.1520
11245TIP3   OH255149   5.155   1.601   5.192 -0.9237 -0.0962 -0.3047
11245TIP3    H155150   5.207   1.675   5.161 -0.2259 -1.2345 -1.9404
11245TIP3    H255151   5.079   1.599   5.134 -0.1537 -1.5923 -1.3013
11246TIP3   OH255152   6.539   3.243   4.130  0.5394 -0.6526 -0.0775
11246TIP3    H155153   6.619   3.284   4.162  2.2373 -2.4132 -1.8149
11246TIP3    H255154   6.534   3.269   4.038 -0.9951 -0.4462  0.0399
11247TIP3   OH255155   0.793   1.665   5.501 -0.1451 -0.5240 -1.0608
11247TIP3    H155156   0.767   1.721   5.574  0.0334 -0.7370 -0.8296
11247TIP3    H255157   0.762   1.578   5.527  1.4422 -0.9398 -0.4191
11248TIP3   OH255158   2.723   6.302   0.383  0.0009  0.5305 -0.3038
11248TIP3    H155159   2.649   6.360   0.367 -0.1147  0.2969 -0.6171
11248TIP3    H255160   2.685   6.214   0.381  0.6682  0.2176 -2.9151
11249TIP3   OH255161   0.455   1.861  13.294  0.1156  0.2130  0.4634
11249TIP3    H155162   0.536   1.823  13.329 -0.7460 -3.2195 -0.8234
11249TIP3    H255163   0.483   1.910  13.216  0.9395 -1.8117 -0.5911
11250TIP3   OH255164   0.303   1.483   5.921 -0.0919  0.0990 -0.1619
11250TIP3    H155165   0.360   1.548   5.880 -0.5830  0.2008 -0.6926
11250TIP3    H255166   0.256   1.532   5.988  0.1495  0.1055  0.0028
11251TIP3   OH255167   2.659   3.718   0.492 -0.6313  0.2683 -0.0361
11251TIP3    H155168   2.656   3.642   0.551  1.8850 -0.1379 -0.3099
11251TIP3    H255169   2.681   3.791   0.549 -3.7422  1.0558  0.3464
11252TIP3   OH255170   1.074   2.571  12.683 -0.2571  1.0383  0.5073
11252TIP3    H155171   1.070   2.478  12.660  1.7079  0.0511  3.5505
11252TIP3    H255172   0.984   2.594  12.707 -1.1796  0.5793 -2.2127
11253TIP3   OH255173   5.980   4.816   1.874 -0.2279  0.1193  0.4233
11253TIP3    H155174   5.919   4.787   1.942 -2.4401 -0.7321 -1.7689
11253TIP3    H255175   5.953   4.906   1.855  0.9080  0.6382  1.1825
11254TIP3   OH255176   4.191   5.892  13.471 -0.4415 -0.0350 -0.8266
11254TIP3    H155177   4.259   5.904  13.405  0.5263 -0.8919 -0.0310
11254TIP3    H255178   4.239   5.865  13.550 -1.6408  0.0670 -0.0319
11255TIP3   OH255179   3.834   2.415  17.008  0.0801  0.2564 -0.2131
11255TIP3    H155180   3.813   2.439  16.918 -0.1342 -1.7101 -0.7487
11255TIP3    H255181   3.750   2.419  17.054  0.4140  2.6592  0.3177
11256TIP3   OH255182   5.957   6.495  14.473 -0.4011  0.3230 -0.3252
11256TIP3    H155183   5.967   6.539  14.557  1.7192  0.2968 -0.4970
11256TIP3    H255184   5.863   6.479  14.464 -0.7681  1.2120  1.5635
11257TIP3   OH255185   5.805   1.723  16.546  0.3880  0.2406  0.4961
11257TIP3    H155186   5.787   1.698  16.456 -1.5956  0.5370  0.7705
11257TIP3    H255187   5.892   1.763  16.543 -0.1226  1.3341 -1.5049
11258TIP3   OH255188   3.239   1.296  17.076 -0.2808 -0.2133 -0.4660
11258TIP3    H155189   3.261   1.240  17.002 -0.3156  0.4818 -1.0166
11258TIP3    H255190   3.313   1.287  17.135 -1.0198 -2.1151  0.2489
11259TIP3   OH255191   2.106   2.924   5.774 -0.1409  0.0736 -0.4313
11259TIP3    H155192   2.170   2.875   5.721 -1.8319 -1.7631 -0.9074
11259TIP3    H255193   2.039   2.950   5.711  0.0294  1.9066  0.0767
11260TIP3   OH255194   4.257   4.241   0.311  0.4168 -0.6605 -0.0977
11260TIP3    H155195   4.321   4.170   0.309 -0.8773 -1.8409 -1.3902
11260TIP3    H255196   4.186   4.208   0.366 -0.2186 -0.3846 -0.7430
11261TIP3   OH255197   3.060   6.351   5.792 -0.1513 -0.0737 -0.2590
11261TIP3    H155198   3.071   6.287   5.863  0.7445 -0.8048 -1.0320
11261TIP3    H255199   3.121   6.322   5.724 -0.4163  1.0785 -1.0085
11262TIP3   OH255200   1.922   4.565   6.132  0.1722  0.0528  0.9990
11262TIP3    H155201   1.860   4.536   6.065  1.5712 -1.3025  0.2002
11262TIP3    H255202   1.871   4.568   6.213 -1.3455  0.8077  0.0535
11263TIP3   OH255203   6.126   6.132  12.962  0.2401  0.3676 -0.2951
11263TIP3    H155204   6.153   6.040  12.958 -1.3055 -0.0965 -0.7099
11263TIP3    H255205   6.037   6.130  12.998  1.0768  1.9168  2.1130
11264TIP3   OH255206   2.249   4.784   3.042 -0.1734  0.3846 -0.2666
11264TIP3    H155207   2.164   4.801   3.000 -0.8619  1.6790  1.5242
11264TIP3    H255208   2.304   4.858   3.016  0.5073 -0.5191 -1.5318
11265TIP3   OH255209   1.986   3.678   6.195 -0.1691  0.0430 -0.4207
11265TIP3    H155210   2.048   3.749   6.210 -0.9332  0.3913  1.2035
11265TIP3    H255211   2.025   3.627   6.123  1.9319  0.3054  0.4773
11266TIP3   OH255212   6.364   0.710  13.424  0.4455  0.0495 -0.2231
11266TIP3    H155213   6.401   0.774  13.363  3.4130 -0.8877  0.4097
11266TIP3    H255214   6.406   0.729  13.508 -0.6566 -1.0555  0.6197
11267TIP3   OH255215   5.503   0.187  12.166  0.7752 -0.0892 -0.0438
11267TIP3    H155216   5.442   0.191  12.092  1.1954  2.1259 -0.3499
11267TIP3    H255217   5.461   0.128  12.228 -0.5226 -0.5040 -1.2461
11268TIP3   OH255218   3.522   4.043   3.936  0.0723 -0.0898  0.3904
11268TIP3    H155219   3.455   3.990   3.894 -0.0195  0.3509 -0.0300
11268TIP3    H255220   3.491   4.133   3.926  1.3943  0.2554 -1.0561
11269TIP3   OH255221   1.716   4.820   3.054  0.4204 -0.1570  0.4606
11269TIP3    H155222   1.772   4.854   3.124  0.6449 -0.0191  0.2180
11269TIP3    H255223   1.667   4.897   3.023  1.3051  0.0663 -0.4356
11270TIP3   OH255224   1.126   4.425  12.317  0.1577  0.4708  0.4614
11270TIP3    H155225   1.170   4.452  12.236  0.3639 -2.0833 -0.3702
11270TIP3    H255226   1.196   4.393  12.373 -0.3571 -1.4259  0.0676
11271TIP3   OH255227   3.688   4.944   5.302  0.0966 -0.2114 -0.3775
11271TIP3    H155228   3.744   4.982   5.370 -0.9333 -0.8594  0.8663
11271TIP3    H255229   3.747   4.886   5.253  0.9193  0.5036 -0.2665
11272TIP3   OH255230   5.851   3.430   5.437  0.8097  0.0605  0.1996
11272TIP3    H155231   5.945   3.433   5.454  0.9368 -1.5152 -0.0719
11272TIP3    H255232   5.826   3.339   5.457 -0.8344  0.6762  1.1611
11273TIP3   OH255233   0.090   1.169  15.273  0.3429 -0.7475 -0.2917
11273TIP3    H155234   0.019   1.173  15.209 -0.4877 -2.5873  0.4498
11273TIP3    H255235   0.159   1.118  15.230 -0.6196 -2.8796  0.5686
11274TIP3   OH255236   0.568   2.780   4.366 -0.5082 -0.1141  0.0427
11274TIP3    H155237   0.624   2.703   4.369  4.1289  2.7944 -1.3244
11274TIP3    H255238   0.526   2.777   4.280  1.2372 -0.2388 -0.8470
11275TIP3   OH255239   3.737   1.039  13.602  0.1280 -0.2713  0.0177
11275TIP3    H155240   3.685   0.989  13.539 -2.1484 -0.4966  1.9436
11275TIP3    H255241   3.772   0.973  13.662 -0.2650  0.1725  0.7431
11276TIP3   OH255242   6.654   0.189   1.903 -0.3459 -0.9058  0.2320
11276TIP3    H155243   6.566   0.163   1.930 -0.2453 -1.2416  0.2343
11276TIP3    H255244   6.700   0.107   1.889 -0.4112 -0.7630 -1.0157
11277TIP3   OH255245   5.555   1.126   4.958  0.0381  0.0457 -0.4934
11277TIP3    H155246   5.614   1.116   4.884  2.0135  0.1375  1.0010
11277TIP3    H255247   5.612   1.143   5.033 -1.9410  1.6349  0.7895
11278TIP3   OH255248   3.849   6.107   3.253 -0.2152  0.0965  0.6506
11278TIP3    H155249   3.755   6.097   3.268 -0.0623 -1.6678  0.6910
11278TIP3    H255250   3.889   6.070   3.331  0.5235 -0.5460 -0.0225
11279TIP3   OH255251   1.743   3.818  16.041 -0.0374  0.1206 -0.2191
11279TIP3    H155252   1.744   3.724  16.021 -0.2294  0.5773 -2.7052
11279TIP3    H255253   1.817   3.830  16.100  1.7693 -1.2183 -2.0672
11280TIP3   OH255254   1.518   0.674  15.083 -0.2360 -0.3383  0.1785
11280TIP3    H155255   1.610   0.648  15.077 -0.2463 -0.3793  0.1997
11280TIP3    H255256   1.485   0.665  14.994 -0.1302  0.0080  0.1026
11281TIP3   OH255257   4.430   1.020  13.678 -0.1093 -0.3740 -0.0770
11281TIP3    H155258   4.398   1.021  13.769  0.2785  0.9284  0.0700
11281TIP3    H255259   4.360   1.060  13.627 -0.5480 -1.5849 -0.4533
11282TIP3   OH255260   1.857   3.540  13.793  0.1315 -0.0664 -0.0195
11282TIP3    H155261   1.845   3.446  13.784  2.7031 -0.6519  1.6395
11282TIP3    H255262   1.815   3.577  13.716 -0.6806 -2.5774 -0.8770
11283TIP3   OH255263   2.864   3.294  15.301 -0.4293 -0.0702 -0.0663
11283TIP3    H155264   2.800   3.232  15.336 -0.1079  1.0523  2.7701
11283TIP3    H255265   2.813   3.372  15.279 -0.2725  0.2309  0.6176
11284TIP3   OH255266   0.062   1.075   0.864  0.4615 -0.9466 -0.1653
11284TIP3    H155267   0.071   1.131   0.941  2.0073  0.3087 -1.1619
11284TIP3    H255268  -0.022   1.030   0.875  0.6842 -0.8766  2.2489
11285TIP3   OH255269   0.465   1.127   3.387  0.9717  0.2659  0.3031
11285TIP3    H155270   0.517   1.167   3.317  0.6145 -0.6148 -0.4817
11285TIP3    H255271   0.450   1.038   3.358  0.2241  0.0871  1.1938
11286TIP3   OH255272   1.519   0.421   4.695  0.0989  0.2807 -0.7420
11286TIP3    H155273   1.611   0.420   4.721  0.3897 -0.2369 -1.7328
11286TIP3    H255274   1.521   0.417   4.599 -0.9719 -1.7290 -0.7330
11287TIP3   OH255275   2.075   6.665   3.616 -0.9087  0.0040 -0.6083
11287TIP3    H155276   2.082   6.674   3.521  2.0235  1.1051 -0.3701
11287TIP3    H255277   2.130   6.589   3.637 -0.1143  0.8324  0.3538
11288TIP3   OH255278   3.814   4.625  12.256 -0.5066  0.5532 -0.4851
11288TIP3    H155279   3.879   4.576  12.307 -0.5611  1.2276  0.2548
11288TIP3    H255280   3.788   4.697  12.314 -1.9692  0.2561 -0.7350
11289TIP3   OH255281   4.005   0.709   4.176 -0.5655  0.4783 -0.8195
11289TIP3    H155282   3.993   0.804   4.180 -0.2900  0.5281 -1.1715
11289TIP3    H255283   3.920   0.676   4.145 -0.4908  0.6583 -1.2285
11290TIP3   OH255284   4.319   1.115   0.003 -0.1176 -0.6207 -0.1121
11290TIP3    H155285   4.236   1.122  -0.045 -0.8621 -0.8167  1.1011
11290TIP3    H255286   4.293   1.121   0.095  1.4149  1.3289  0.2489
11291TIP3   OH255287   5.677   0.335  11.754 -0.2684 -0.0800 -0.2714
11291TIP3    H155288   5.634   0.252  11.733 -1.6922  0.2229  1.2633
11291TIP3    H255289   5.770   0.312  11.758 -0.5114 -1.3470 -0.9539
11292TIP3   OH255290   3.312   2.933   0.865 -0.2143 -0.2689  0.4492
11292TIP3    H155291   3.339   3.021   0.839 -0.4863  0.0259  1.1300
11292TIP3    H255292   3.219   2.929   0.841  0.2299 -1.0124 -1.2077
11293TIP3   OH255293   2.845   4.617  13.362 -0.0328  0.4804 -0.3110
11293TIP3    H155294   2.898   4.692  13.334 -0.4588  0.9069  0.0175
11293TIP3    H255295   2.907   4.544  13.366  0.4304  0.8665 -0.4092
11294TIP3   OH255296   3.960   6.716   5.765  0.1353  1.1020  0.0030
11294TIP3    H155297   3.995   6.643   5.817  2.4656  0.9991 -1.5918
11294TIP3    H255298   3.896   6.674   5.707 -0.2546  0.7466  0.6637
11295TIP3   OH255299   0.912   1.455  17.229 -0.0907  0.6189 -0.4754
11295TIP3    H155300   0.939   1.446  17.138  1.2796 -0.3951  0.0160
11295TIP3    H255301   0.820   1.426  17.230  0.5583 -1.6327 -1.1460
11296TIP3   OH255302   0.171   5.956  11.678 -0.6007 -0.6009  0.0632
11296TIP3    H155303   0.082   5.977  11.650 -0.4927  1.1026  0.8672
11296TIP3    H255304   0.212   5.917  11.600 -2.1033 -1.7028 -0.2247
11297TIP3   OH255305   4.063   1.111  17.336 -0.0145  0.2968 -0.1375
11297TIP3    H155306   4.074   1.063  17.253  0.3484  0.0873  0.0292
11297TIP3    H255307   3.992   1.173  17.318 -0.3849 -0.1951 -0.4047
11298TIP3   OH255308   6.712   2.206   2.749 -0.0770 -0.6480 -0.1932
11298TIP3    H155309   6.751   2.181   2.833  0.6483 -0.1474 -0.3736
11298TIP3    H255310   6.756   2.288   2.726 -1.1570 -0.1244 -0.4604
11299TIP3   OH255311   3.081   2.909   4.634  0.7767  0.4273 -0.6551
11299TIP3    H155312   3.083   2.925   4.539  1.2933  0.5306 -0.6292
11299TIP3    H255313   3.141   2.974   4.670  1.5901 -0.4438 -0.3847
11300TIP3   OH255314   4.243   2.240  13.569 -0.1213  0.1623 -0.2759
11300TIP3    H155315   4.336   2.220  13.559  0.0939  0.5604  0.8266
11300TIP3    H255316   4.202   2.203  13.490  0.4283 -3.4363  0.9369
11301TIP3   OH255317   2.039   0.080   0.290  0.1721 -0.1737  0.0530
11301TIP3    H155318   2.066   0.083   0.198 -1.0444 -0.1932 -0.3248
11301TIP3    H255319   2.064   0.165   0.326  4.4091 -1.5334  0.8698
11302TIP3   OH255320   4.462   2.350   2.557 -0.4353 -0.2942  0.4020
11302TIP3    H155321   4.447   2.292   2.483 -2.8923  0.5809  0.1244
11302TIP3    H255322   4.538   2.402   2.531 -0.7179 -0.5942 -1.1339
11303TIP3   OH255323   6.410   1.261   2.984 -0.4280 -0.3210  0.1039
11303TIP3    H155324   6.345   1.246   3.052  0.2625 -1.4311  0.5519
11303TIP3    H255325   6.360   1.292   2.909 -1.2571  0.5199  0.9706
11304TIP3   OH255326   6.172   3.350   2.819  0.1517  0.0934  0.0033
11304TIP3    H155327   6.116   3.295   2.873  0.0241 -0.0538 -0.2768
11304TIP3    H255328   6.112   3.395   2.759  0.1068  1.5378  1.0772
11305TIP3   OH255329   4.338   0.954  13.339 -0.1228  0.2272  0.0827
11305TIP3    H155330   4.431   0.976  13.339 -0.3375  1.2744  0.9375
11305TIP3    H255331   4.298   1.022  13.395 -1.0757 -1.5502  1.6664
11306TIP3   OH255332   3.008   1.703   6.288 -0.3811  0.1148 -0.2251
11306TIP3    H155333   2.984   1.617   6.254 -0.4658 -0.1068  0.3814
11306TIP3    H255334   3.016   1.690   6.382  2.0553  0.2132 -0.3584
11307TIP3   OH255335   5.013   5.642  11.965 -0.5235 -0.0358  0.1503
11307TIP3    H155336   5.060   5.572  12.010 -0.4669 -0.4170 -0.4965
11307TIP3    H255337   5.082   5.696  11.926 -0.5579  0.4950  0.7994
11308TIP3   OH255338   6.233   0.284  16.679  0.2404  0.5213 -0.8188
11308TIP3    H155339   6.286   0.332  16.615  0.9431 -0.5581 -1.0796
11308TIP3    H255340   6.221   0.345  16.751 -1.0270  1.9807 -2.1851
11309TIP3   OH255341   2.865   0.354  12.312 -0.3526  0.3403  0.0259
11309TIP3    H155342   2.902   0.277  12.355 -1.1765  0.0902  0.2990
11309TIP3    H255343   2.932   0.381  12.250  0.0596 -0.4342  0.1218
11310TIP3   OH255344   4.008   1.328   2.049  0.1467 -0.1520 -0.5640
11310TIP3    H155345   4.028   1.249   1.999  1.2263 -1.2155  1.4125
11310TIP3    H255346   4.085   1.340   2.106 -1.5115  0.2452  1.7221
11311TIP3   OH255347   5.409   1.824  12.167 -0.0245  0.3428 -0.6956
11311TIP3    H155348   5.443   1.886  12.232 -0.6459  0.9695 -0.9635
11311TIP3    H255349   5.375   1.879  12.097 -1.9437 -0.2330 -0.2745
11312TIP3   OH255350   2.814   5.099   2.047  0.9594 -0.0777  0.1968
11312TIP3    H155351   2.859   5.018   2.024  0.3840 -0.1631 -0.6682
11312TIP3    H255352   2.789   5.138   1.964  3.6148  2.4360  0.4469
11313TIP3   OH255353   0.645   0.083  14.714  0.0885  0.5564  0.7079
11313TIP3    H155354   0.552   0.097  14.731 -0.8907 -1.7941 -2.0453
11313TIP3    H255355   0.668   0.149  14.649 -0.1190  0.0524  0.1189
11314TIP3   OH255356   2.003   3.449  15.029  0.0713  0.1017  0.0085
11314TIP3    H155357   1.972   3.539  15.017 -1.3654 -0.1006  1.6980
11314TIP3    H255358   2.089   3.458  15.069  0.0147  0.7344 -0.0052
11315TIP3   OH255359   3.097   1.581  16.174 -0.4249  0.0707 -0.1848
11315TIP3    H155360   3.035   1.549  16.240  0.2693 -0.7334  0.0858
11315TIP3    H255361   3.041   1.621  16.107 -1.1723  0.3549  0.5852
11316TIP3   OH255362   5.672   4.113  12.578  0.1362  0.1747  0.1459
11316TIP3    H155363   5.729   4.190  12.569 -0.0048  0.1617 -0.9930
11316TIP3    H255364   5.727   4.039  12.555  0.1572 -0.0345  0.8448
11317TIP3   OH255365   1.018   1.159   4.045  0.0402 -0.4728 -0.1531
11317TIP3    H155366   1.039   1.199   3.961 -1.9556 -0.4300 -0.6743
11317TIP3    H255367   0.924   1.173   4.057 -0.2996 -2.8824  0.7628
11318TIP3   OH255368   0.095   0.010   2.821 -0.3599 -0.3700  0.1469
11318TIP3    H155369   0.097  -0.054   2.750 -1.4259 -0.0293 -0.2126
11318TIP3    H255370   0.152   0.081   2.791  0.9584 -1.1944  0.6194
11319TIP3   OH255371   3.071   1.053  12.562 -0.2226 -0.3044  0.4830
11319TIP3    H155372   2.981   1.022  12.564  0.2931 -1.8922  0.2574
11319TIP3    H255373   3.095   1.052  12.470 -0.2744  1.1070  0.4306
11320TIP3   OH255374   4.053   1.765   1.550  0.0073 -0.3491 -0.2095
11320TIP3    H155375   3.963   1.787   1.526 -0.1702  0.3516  1.0157
11320TIP3    H255376   4.083   1.705   1.481 -1.2387 -0.2365 -0.8656
11321TIP3   OH255377   4.574   2.643   3.671  0.4416  0.5706 -0.4574
11321TIP3    H155378   4.589   2.598   3.754  0.9309  0.5348 -0.5606
11321TIP3    H255379   4.479   2.648   3.663  0.1624 -3.2136 -1.8883
11322TIP3   OH255380   0.939   1.805   5.753 -0.6968  0.0901  0.2223
11322TIP3    H155381   0.978   1.830   5.837 -0.3637  1.3762 -0.2953
11322TIP3    H255382   0.921   1.888   5.709 -0.8024 -0.5672 -1.0210
11323TIP3   OH255383   3.604   0.196   0.279 -0.1410  0.3531  0.3277
11323TIP3    H155384   3.628   0.139   0.352 -0.6370  1.5855  1.4874
11323TIP3    H255385   3.686   0.241   0.257 -0.1683  0.5715  0.6655
11324TIP3   OH255386   3.188   0.179  14.133 -0.4007  0.4996  0.0116
11324TIP3    H155387   3.131   0.110  14.097  0.7357 -1.4805  1.7396
11324TIP3    H255388   3.275   0.160  14.096  0.5712 -0.9593  2.7416
11325TIP3   OH255389   0.198   2.135   6.531 -0.3544  0.4477 -0.1834
11325TIP3    H155390   0.237   2.213   6.570 -1.0745  1.0610 -0.6616
11325TIP3    H255391   0.107   2.159   6.515 -0.2607 -0.0173 -1.5811
11326TIP3   OH255392   3.848   4.684   2.022  0.1241 -0.2678  0.2917
11326TIP3    H155393   3.813   4.671   2.110  0.3275 -3.2247  0.0380
11326TIP3    H255394   3.770   4.690   1.966 -0.0145  1.9985  0.6305
11327TIP3   OH255395   5.072   2.118   1.446 -0.5390  0.4989 -0.0218
11327TIP3    H155396   5.150   2.107   1.391 -0.6848  3.3627 -0.9657
11327TIP3    H255397   5.016   2.045   1.421  0.7060 -0.0508 -1.4044
11328TIP3   OH255398   2.041   4.506   2.087 -0.5223 -0.5759 -0.2403
11328TIP3    H155399   2.088   4.589   2.075  0.2341 -1.1839 -1.7729
11328TIP3    H255400   1.975   4.526   2.153  1.0032  0.6847  1.0066
11329TIP3   OH255401   3.122   4.422   4.411  0.2958  0.5062  0.1029
11329TIP3    H155402   3.076   4.339   4.413  1.0570  0.0322 -1.1634
11329TIP3    H255403   3.179   4.417   4.334  0.9899  1.8536  0.4859
11330TIP3   OH255404   3.018   3.513   5.844  0.2169  0.1969  0.2732
11330TIP3    H155405   2.945   3.575   5.844 -0.0328 -0.0840  0.9719
11330TIP3    H255406   3.010   3.467   5.928  0.3684 -0.8120 -0.2542
11331TIP3   OH255407   5.138   3.741  15.827  0.4420 -0.3351  0.1731
11331TIP3    H155408   5.086   3.674  15.781 -0.1882  0.9822 -1.1432
11331TIP3    H255409   5.085   3.764  15.903  0.5591 -1.1696  0.5137
11332TIP3   OH255410   1.979   1.548   1.255 -0.0400 -0.1912 -0.3353
11332TIP3    H155411   1.923   1.524   1.328 -2.2219  2.6432 -0.8776
11332TIP3    H255412   2.009   1.636   1.276  1.7972 -0.4899 -1.4940
11333TIP3   OH255413   5.375   4.406   4.635 -0.0279  0.0365  0.1922
11333TIP3    H155414   5.437   4.336   4.658  0.0329 -1.3976 -3.6437
11333TIP3    H255415   5.430   4.475   4.597 -0.5242 -0.0651 -0.7303
11334TIP3   OH255416   0.391   4.329   4.986 -0.3815 -0.2771 -0.3407
11334TIP3    H155417   0.435   4.383   4.921 -0.1880 -0.4575 -0.3621
11334TIP3    H255418   0.331   4.275   4.935  0.4750 -1.1166 -0.4859
11335TIP3   OH255419   1.495   3.878  17.387  0.0618 -0.5263  0.1005
11335TIP3    H155420   1.440   3.818  17.437  0.8396 -0.8772  0.5495
11335TIP3    H255421   1.448   3.890  17.305 -1.0723 -0.2131  0.7584
11336TIP3   OH255422   3.707   5.297  10.490 -0.1982  0.3986 -0.5115
11336TIP3    H155423   3.614   5.307  10.468 -0.6198 -1.0801  0.4241
11336TIP3    H255424   3.738   5.228  10.432  0.4634  1.1932 -1.1315
11337TIP3   OH255425   5.516   4.829   3.159  0.2924 -0.3318 -0.1355
11337TIP3    H155426   5.545   4.918   3.141 -1.2387  0.1587 -0.3692
11337TIP3    H255427   5.426   4.840   3.192 -0.4768 -1.8512 -1.5561
11338TIP3   OH255428   5.639   2.283  15.949 -1.0775 -0.5731 -0.7636
11338TIP3    H155429   5.633   2.378  15.937 -1.6817 -0.5034 -0.0225
11338TIP3    H255430   5.657   2.249  15.862 -0.4332  0.2521 -0.9691
11339TIP3   OH255431   4.253   1.735   5.257  0.8221 -0.2189 -0.1679
11339TIP3    H155432   4.296   1.817   5.282  2.8600 -1.4016  0.4797
11339TIP3    H255433   4.190   1.718   5.327  2.0566 -0.3439  0.9569
11340TIP3   OH255434   1.526   1.834  15.883  0.9331 -0.2390  0.0911
11340TIP3    H155435   1.462   1.895  15.919  0.4091 -1.1048  0.6591
11340TIP3    H255436   1.604   1.888  15.866  0.2596  0.7105 -0.0620
11341TIP3   OH255437   5.533   6.158  13.181 -0.3941 -1.2534 -0.2001
11341TIP3    H155438   5.454   6.173  13.129 -1.0953 -2.0061  0.6101
11341TIP3    H255439   5.538   6.232  13.241 -0.3582 -1.0878 -0.4088
11342TIP3   OH255440   1.640   6.682  13.321  0.2871  0.2802  0.5286
11342TIP3    H155441   1.566   6.654  13.375  0.4383 -0.9790  0.1192
11342TIP3    H255442   1.715   6.633  13.355  0.1792 -1.4617 -1.5013
11343TIP3   OH255443   5.677   2.236  11.438 -0.3252  0.3313 -0.1517
11343TIP3    H155444   5.636   2.244  11.352  0.2334  0.7873 -0.3837
11343TIP3    H255445   5.615   2.186  11.490 -1.7827  2.1151 -0.0871
11344TIP3   OH255446   1.265   1.037   4.265 -0.5705  0.1489  0.3432
11344TIP3    H155447   1.296   0.999   4.183  0.6644 -0.8573  1.2301
11344TIP3    H255448   1.207   1.108   4.238  0.3941  0.3393 -1.3918
11345TIP3   OH255449   5.532   3.487   0.702  0.1108  0.2454  0.3639
11345TIP3    H155450   5.573   3.521   0.781 -0.9476  0.2839  0.8993
11345TIP3    H255451   5.489   3.562   0.661  1.0491  0.3310 -0.5216
11346TIP3   OH255452   2.005   1.638  12.734  0.3048 -0.0270  0.0286
11346TIP3    H155453   2.012   1.566  12.671 -1.0100  0.4095 -0.6476
11346TIP3    H255454   2.057   1.709  12.697 -0.4739  0.2318 -0.5807
11347TIP3   OH255455   5.381   4.311   0.657 -0.1482 -0.0226  0.4964
11347TIP3    H155456   5.376   4.406   0.670 -1.4174  0.3600 -1.9910
11347TIP3    H255457   5.431   4.301   0.576 -1.0670 -1.3848  0.0713
11348TIP3   OH255458   0.709   3.481   7.008  0.3291 -0.0305 -0.1850
11348TIP3    H155459   0.690   3.388   6.994  1.0674  0.0512 -1.9630
11348TIP3    H255460   0.639   3.527   6.962  0.8018  0.2873 -0.5899
11349TIP3   OH255461   2.519   4.521  11.913  0.4901  0.1463  0.3310
11349TIP3    H155462   2.601   4.495  11.954  0.2977  0.2992  0.8135
11349TIP3    H255463   2.543   4.540  11.822  0.9292 -0.1098  0.3892
11350TIP3   OH255464   5.956   6.610   4.225 -0.7029  0.1826 -0.3613
11350TIP3    H155465   6.018   6.614   4.298 -0.1891 -1.5132 -0.6498
11350TIP3    H255466   5.904   6.531   4.243 -0.7176 -0.1406 -1.7006
11351TIP3   OH255467   2.249   4.726  15.258  0.0392  0.7012  0.1685
11351TIP3    H155468   2.321   4.719  15.320  1.2669 -1.8165 -1.3603
11351TIP3    H255469   2.282   4.685  15.178 -2.9050 -0.1292 -0.7636
11352TIP3   OH255470   4.228   0.498   5.869 -0.5959 -0.6161 -0.2356
11352TIP3    H155471   4.262   0.547   5.943 -1.4499  0.9559 -0.8361
11352TIP3    H255472   4.196   0.565   5.808 -2.7211 -1.9014 -0.6620
11353TIP3   OH255473   4.590   0.192  17.415  0.3913 -0.1183 -0.0081
11353TIP3    H155474   4.665   0.243  17.445 -0.2673  0.0317  1.4771
11353TIP3    H255475   4.516   0.253  17.419 -0.1336 -0.7555  0.3171
11354TIP3   OH255476   3.770   1.358  12.387  0.4925  0.6254  0.2124
11354TIP3    H155477   3.808   1.335  12.472 -0.0451 -0.3469  0.2104
11354TIP3    H255478   3.775   1.277  12.336 -2.2384  0.1949  0.4771
11355TIP3   OH255479   1.444   1.723  15.247 -0.0394  0.3558 -0.5366
11355TIP3    H155480   1.527   1.741  15.291  0.5945 -0.5865 -1.2968
11355TIP3    H255481   1.387   1.691  15.316  0.2323  0.9957 -0.0079
11356TIP3   OH255482   4.699   2.668  13.310 -0.1135  0.2947 -0.0616
11356TIP3    H155483   4.747   2.678  13.392 -0.4103  3.5059 -0.1621
11356TIP3    H255484   4.638   2.597  13.326  1.4575 -0.7450  1.6426
11357TIP3   OH255485   2.702   4.058  15.346 -0.2575  0.7892  0.0985
11357TIP3    H155486   2.788   4.072  15.385 -0.2735  0.7197  0.1576
11357TIP3    H255487   2.714   3.985  15.285 -0.6691 -0.4070  1.3934
11358TIP3   OH255488   6.120   0.241   0.286  0.9176  0.7534  0.4695
11358TIP3    H155489   6.158   0.328   0.273  0.2966  0.9884  0.1595
11358TIP3    H255490   6.186   0.193   0.335  2.1533  0.7622 -1.1066
11359TIP3   OH255491   3.463   2.387   0.066  0.0769 -0.3275 -0.0028
11359TIP3    H155492   3.556   2.384   0.044 -0.1501 -1.1379 -0.9358
11359TIP3    H255493   3.418   2.373  -0.017 -0.8868  0.0085  0.4405
11360TIP3   OH255494   4.435   1.978  13.852  0.2447 -0.1127  0.5765
11360TIP3    H155495   4.490   1.978  13.773  0.3419 -0.1720  0.6437
11360TIP3    H255496   4.496   1.999  13.923 -0.1904  1.9792  0.3976
11361TIP3   OH255497   5.267   0.521   1.290 -0.2650  0.3484  0.6882
11361TIP3    H155498   5.248   0.611   1.316 -0.9735 -0.1834  2.0921
11361TIP3    H255499   5.230   0.467   1.359 -0.2455 -1.0584 -0.3434
11362TIP3   OH255500   4.772   2.617  16.292 -0.1962  0.3941 -0.3402
11362TIP3    H155501   4.682   2.600  16.320 -0.8062  1.1740 -1.7206
11362TIP3    H255502   4.812   2.531  16.286 -0.6111  0.0814  0.9816
11363TIP3   OH255503   2.599   5.434   6.247 -0.2430  0.0610 -0.8097
11363TIP3    H155504   2.647   5.467   6.171  0.3031  1.5791  0.1502
11363TIP3    H255505   2.507   5.450   6.226 -0.2094 -0.8285 -1.7231
11364TIP3   OH255506   0.461   0.006   5.416  0.3555 -0.6511 -0.5241
11364TIP3    H155507   0.457  -0.046   5.496  0.0966  0.0041 -0.0994
11364TIP3    H255508   0.395   0.074   5.429 -1.5029 -1.9917 -2.3615
11365TIP3   OH255509   6.733   4.819  14.939 -0.2954 -0.2377 -0.5858
11365TIP3    H155510   6.738   4.914  14.942 -0.5626 -0.2187 -0.7220
11365TIP3    H255511   6.824   4.790  14.937 -0.0179 -0.1270  3.2338
11366TIP3   OH255512   2.190   0.124   5.080 -0.6589  0.1327  1.3216
11366TIP3    H155513   2.265   0.098   5.026  0.2808 -0.2108  2.7421
11366TIP3    H255514   2.114   0.101   5.027  0.2060  0.4695 -0.1541
11367TIP3   OH255515   4.191   5.542   5.785  0.1808  0.3874 -0.1357
11367TIP3    H155516   4.271   5.591   5.801  0.5978  0.6082 -2.5440
11367TIP3    H255517   4.216   5.450   5.798  0.2858  0.5479  0.9501
11368TIP3   OH255518   0.990   5.945  14.039  0.4448 -0.0640  0.3330
11368TIP3    H155519   0.997   6.041  14.036 -1.2245  0.1435  1.6596
11368TIP3    H255520   1.056   5.915  13.977 -0.3845  2.0068 -1.7471
11369TIP3   OH255521   3.831   3.771  11.417  0.4242 -0.0977 -0.3471
11369TIP3    H155522   3.835   3.749  11.324 -0.0202  0.9461 -0.6280
11369TIP3    H255523   3.746   3.739  11.446 -0.8549  2.3930 -1.1003
11370TIP3   OH255524   2.596   3.958  12.753  0.3814  0.5893  0.3603
11370TIP3    H155525   2.670   3.932  12.807 -0.9456 -0.6154  1.6886
11370TIP3    H255526   2.565   3.875  12.715 -0.9945  0.8900  0.7912
11371TIP3   OH255527   0.911   0.659   1.153 -0.1206 -0.4572  0.1590
11371TIP3    H155528   0.907   0.754   1.159  1.4158 -0.2289 -1.6915
11371TIP3    H255529   1.003   0.638   1.169 -0.1825 -1.5119 -0.7945
11372TIP3   OH255530   4.071   6.663   1.301  0.3210  0.0901  0.1587
11372TIP3    H155531   4.112   6.749   1.287  0.5905  0.0763  0.8168
11372TIP3    H255532   4.059   6.628   1.212 -0.9298  1.3215 -0.1950
11373TIP3   OH255533   1.876   6.629   3.883 -0.0458  0.7653  0.3756
11373TIP3    H155534   1.825   6.710   3.879  2.0565  2.1419  0.0169
11373TIP3    H255535   1.952   6.646   3.828  1.2701 -0.8386  1.5969
11374TIP3   OH255536   2.051   5.853   1.863  0.4014 -0.1286  0.1185
11374TIP3    H155537   1.973   5.895   1.899  0.0530 -1.6721  1.2497
11374TIP3    H255538   2.115   5.923   1.855 -1.0145  1.1316 -0.6246
11375TIP3   OH255539   5.668   4.799  12.287 -0.2686 -0.3714  0.2444
11375TIP3    H155540   5.582   4.759  12.276 -0.5312  0.5630 -1.5456
11375TIP3    H255541   5.664   4.879  12.235  1.0544  0.7212  1.7142
11376TIP3   OH255542   3.433   1.976  16.322  0.1405 -0.0077  0.1991
11376TIP3    H155543   3.374   2.032  16.271 -0.5936 -0.2362  0.7656
11376TIP3    H255544   3.454   2.028  16.400  0.3691 -0.0846  0.1897
11377TIP3   OH255545   3.092   4.520   3.419  0.3966 -0.0169 -0.6928
11377TIP3    H155546   3.129   4.497   3.334 -0.5320 -1.6675 -0.6785
11377TIP3    H255547   3.100   4.441   3.472  0.1612  0.7115  0.4961
11378TIP3   OH255548   4.075   5.475   0.728 -0.3105 -0.0578  0.4044
11378TIP3    H155549   4.155   5.429   0.702 -0.7916 -0.5150 -0.3081
11378TIP3    H255550   4.090   5.565   0.698 -0.9938 -0.6491 -1.8817
11379TIP3   OH255551   1.534   4.492   4.826  0.7077  0.5695 -0.1859
11379TIP3    H155552   1.573   4.413   4.862 -1.6224 -1.4618 -1.8334
11379TIP3    H255553   1.608   4.541   4.790  2.0779 -1.5572 -0.4007
11380TIP3   OH255554   2.813   4.101  12.597  0.1625 -0.4447  0.1370
11380TIP3    H155555   2.723   4.075  12.617  0.5579 -0.9075  1.4128
11380TIP3    H255556   2.805   4.187  12.556 -0.8005 -0.0442  1.1249
11381TIP3   OH255557   0.590   5.452   5.853  0.1736 -0.4525  0.2176
11381TIP3    H155558   0.653   5.418   5.790 -0.0055 -0.0298 -0.2002
11381TIP3    H255559   0.606   5.403   5.933  1.9480  0.5376  0.5259
11382TIP3   OH255560   2.438   4.122   2.353  0.0199  0.9351  0.4256
11382TIP3    H155561   2.451   4.216   2.353 -1.3201  1.1412  0.3942
11382TIP3    H255562   2.466   4.093   2.267 -0.9954  1.5445 -0.1342
11383TIP3   OH255563   0.702   4.669   5.803  0.1474  0.1424  0.0905
11383TIP3    H155564   0.623   4.703   5.846  0.0306  0.3100 -0.2539
11383TIP3    H255565   0.722   4.733   5.735  1.6686  1.1013  1.3671
11384TIP3   OH255566   3.526   4.326   5.034  0.0090  0.0468  0.4557
11384TIP3    H155567   3.453   4.266   5.042  0.2536 -0.3875 -0.4345
11384TIP3    H255568   3.486   4.408   5.005  0.1278 -1.1288 -3.7040
11385TIP3   OH255569   6.667   2.215  16.630  0.5254  0.6036 -0.7739
11385TIP3    H155570   6.759   2.231  16.609  0.6845  1.7572  0.5908
11385TIP3    H255571   6.624   2.201  16.546  2.3376 -2.4705 -1.3468
11386TIP3   OH255572   3.787   2.985   4.731 -0.0283 -0.1099 -0.0060
11386TIP3    H155573   3.766   3.074   4.702 -1.1764 -0.5392 -0.5620
11386TIP3    H255574   3.776   2.931   4.653 -0.3843 -0.8894  0.5626
11387TIP3   OH255575   2.752   0.149   0.115 -0.1278  0.8465  0.3283
11387TIP3    H155576   2.751   0.227   0.170  1.9879  0.9304  0.3210
11387TIP3    H255577   2.666   0.149   0.072 -0.7183  2.3552  1.4140
11388TIP3   OH255578   0.598   4.703   2.504 -0.4183 -0.3989  0.4715
11388TIP3    H155579   0.667   4.655   2.549 -0.5528 -0.0111  1.1014
11388TIP3    H255580   0.518   4.655   2.526 -0.3808 -0.6995 -0.0470
11389TIP3   OH255581   2.406   5.015   3.912 -0.6092 -0.1518 -0.1240
11389TIP3    H155582   2.412   4.927   3.876  0.2363 -0.4182  0.6154
11389TIP3    H255583   2.421   5.073   3.838 -1.1752 -0.6223 -0.6192
11390TIP3   OH255584   3.529   1.987  15.863 -0.0220 -0.6218  0.1730
11390TIP3    H155585   3.625   1.989  15.858  0.0834 -2.0710  1.1351
11390TIP3    H255586   3.505   2.078  15.881  1.1885 -0.2621  0.0936
11391TIP3   OH255587   4.640   5.803   3.564  0.4567  0.5370  0.0879
11391TIP3    H155588   4.669   5.891   3.587 -0.5507  1.0123 -0.4073
11391TIP3    H255589   4.682   5.747   3.630  1.4167  1.3251  0.1788
11392TIP3   OH255590   5.963   6.063  17.054 -0.1351 -0.2626 -1.0807
11392TIP3    H155591   6.012   6.145  17.055 -0.7564  0.1155 -0.8450
11392TIP3    H255592   5.942   6.046  17.146  0.7555 -1.1626 -1.0336
11393TIP3   OH255593   3.431   4.863  14.325 -0.0078  0.0280  0.3221
11393TIP3    H155594   3.407   4.845  14.234 -0.7542  2.2799  0.0094
11393TIP3    H255595   3.520   4.899  14.319  0.6526 -1.4396  0.7196
11394TIP3   OH255596   6.029   0.905  17.226 -0.2325 -0.5585 -0.2378
11394TIP3    H155597   6.078   0.823  17.220 -1.4066 -1.3429  0.3601
11394TIP3    H255598   6.085   0.970  17.185  0.4469 -1.7871 -1.3220
11395TIP3   OH255599   2.943   0.486  14.559  0.5126 -0.2571  0.0150
11395TIP3    H155600   3.030   0.508  14.594  1.4386 -0.0735 -2.2266
11395TIP3    H255601   2.960   0.463  14.468 -1.7133 -1.0714 -0.2348
11396TIP3   OH255602   0.669   3.213  16.560 -0.2715 -0.6497 -0.1848
11396TIP3    H155603   0.726   3.285  16.535  1.1347 -2.5467 -2.9465
11396TIP3    H255604   0.593   3.220  16.501 -0.4170 -1.0633 -0.0504
11397TIP3   OH255605   4.013   2.777   2.482 -0.0496  0.1305  0.0982
11397TIP3    H155606   4.017   2.847   2.547 -0.4130 -1.0405  1.4339
11397TIP3    H255607   4.083   2.798   2.420 -0.6581  2.0771  0.0024
11398TIP3   OH255608   1.892   3.127   4.523  0.0054  0.3936 -0.1266
11398TIP3    H155609   1.976   3.143   4.564  1.0009  0.2309 -1.9878
11398TIP3    H255610   1.890   3.186   4.447 -0.7258 -0.9154 -1.1815
11399TIP3   OH255611   5.002   0.893   4.212 -0.0955  0.4406  0.4886
11399TIP3    H155612   4.979   0.894   4.119 -1.7415  1.8031  0.8529
11399TIP3    H255613   5.097   0.885   4.214 -0.1819 -2.9365 -1.2105
11400TIP3   OH255614   6.609   5.964  16.093 -0.2459 -0.1523 -0.4242
11400TIP3    H155615   6.562   5.943  16.012  0.5417  1.9612 -1.5312
11400TIP3    H255616   6.542   5.997  16.152 -0.4956  0.8080 -1.2140
11401TIP3   OH255617   1.960   4.551  13.809 -0.1760 -0.4016  0.3055
11401TIP3    H155618   1.972   4.646  13.811 -0.1882 -0.4009  0.3381
11401TIP3    H255619   1.900   4.535  13.737 -0.6226 -0.3360  0.6582
11402TIP3   OH255620   6.464   4.030  12.260 -0.0828 -0.1471 -0.2426
11402TIP3    H155621   6.422   3.945  12.247  1.6539 -0.9747 -0.8429
11402TIP3    H255622   6.480   4.063  12.172  0.3656  0.2186 -0.0286
11403TIP3   OH255623   2.375   3.057   1.736 -0.5728 -0.1175 -0.2264
11403TIP3    H155624   2.459   3.094   1.762 -0.4834 -1.7042  2.0190
11403TIP3    H255625   2.310   3.116   1.774 -0.4260 -0.6555  0.9199
11404TIP3   OH255626   2.309   3.514   3.991 -0.0545 -0.0968 -0.0424
11404TIP3    H155627   2.327   3.475   4.077 -1.3853  0.3993  0.5007
11404TIP3    H255628   2.226   3.476   3.964  0.9617 -1.2206 -1.7531
11405TIP3   OH255629   1.077   2.487  13.509  0.0963  0.4392  0.2517
11405TIP3    H155630   1.066   2.512  13.418 -0.7085  1.9179  0.7228
11405TIP3    H255631   1.079   2.391  13.508 -0.8481  0.4055 -1.2185
11406TIP3   OH255632   2.232   5.646   2.079  0.3279  0.3211  0.0765
11406TIP3    H155633   2.296   5.591   2.124  2.7489  0.9086 -2.3965
11406TIP3    H255634   2.283   5.716   2.038 -1.9594  1.2093 -1.5426
11407TIP3   OH255635   1.454   0.351   5.195  0.3935  0.6249 -0.6670
11407TIP3    H155636   1.415   0.272   5.233 -1.1351  1.4708 -0.3903
11407TIP3    H255637   1.386   0.387   5.138  0.6429  2.3177  0.0338
11408TIP3   OH255638   4.800   1.839   4.592  0.4882  0.3475 -0.6751
11408TIP3    H155639   4.784   1.745   4.581  0.9426  0.5210 -3.8498
11408TIP3    H255640   4.753   1.880   4.519  1.3698  2.4841 -0.1236
11409TIP3   OH255641   5.846   6.328   1.083 -0.2134 -0.3837  0.2939
11409TIP3    H155642   5.869   6.306   1.173  0.5136  0.7746  0.4081
11409TIP3    H255643   5.929   6.322   1.035 -0.5135 -0.5697 -0.2120
11410TIP3   OH255644   0.251   4.012   5.579  0.2324  0.8972  0.1928
11410TIP3    H155645   0.334   4.006   5.627 -0.9704  1.2397  2.4128
11410TIP3    H255646   0.201   4.079   5.626 -0.9769  1.3494 -1.6546
11411TIP3   OH255647   2.313   4.386   4.337 -0.2914 -0.3121 -0.8763
11411TIP3    H155648   2.255   4.365   4.264 -0.9986 -0.2593 -0.3366
11411TIP3    H255649   2.391   4.332   4.322 -1.2030 -1.7191 -0.6582
11412TIP3   OH255650   3.928   6.493  15.709 -0.6021 -0.0672  0.3287
11412TIP3    H155651   4.013   6.532  15.727 -1.1918  0.7515  1.4402
11412TIP3    H255652   3.873   6.521  15.782 -1.8311 -0.5599 -0.3839
11413TIP3   OH255653   0.115   1.320  13.045  0.0157  0.1070 -0.1832
11413TIP3    H155654   0.059   1.319  12.967  3.4544  0.8290 -2.8974
11413TIP3    H255655   0.150   1.408  13.048  2.9945 -0.9644 -0.2839
11414TIP3   OH255656   2.488   4.506  14.368 -0.2377 -0.3352 -0.0662
11414TIP3    H155657   2.402   4.540  14.343 -0.3580 -0.5947 -0.0086
11414TIP3    H255658   2.548   4.579  14.352 -0.4238 -0.2471 -0.3915
11415TIP3   OH255659   4.038   1.860   0.115  0.8288  0.4476  0.2537
11415TIP3    H155660   4.123   1.885   0.152  0.1821  0.3846  1.8721
11415TIP3    H255661   4.058   1.829   0.027  2.4594  0.6192  0.5368
11416TIP3   OH255662   5.351   5.904  14.969  0.2422 -0.3389 -0.4121
11416TIP3    H155663   5.358   5.933  15.060  0.2741 -0.2585 -0.4401
11416TIP3    H255664   5.388   5.816  14.969 -1.2677 -1.0131 -0.0139
11417TIP3   OH255665   0.472   1.394  14.651  0.1176 -0.0751  0.1201
11417TIP3    H155666   0.528   1.318  14.636  0.6601  0.6016 -1.6087
11417TIP3    H255667   0.386   1.368  14.616  0.3583  0.1599 -0.6649
11418TIP3   OH255668   5.410   0.446  10.894 -0.0961 -0.1403  0.4500
11418TIP3    H155669   5.371   0.533  10.886 -1.0036 -0.7015 -2.0890
11418TIP3    H255670   5.372   0.395  10.823  1.4884 -2.2325  0.9812
11419TIP3   OH255671   0.910   4.137  14.685 -0.6221 -1.0072 -0.0010
11419TIP3    H155672   0.881   4.167  14.771 -1.0330 -1.2776 -0.0465
11419TIP3    H255673   0.939   4.047  14.699  0.3609 -0.6950  0.0795
11420TIP3   OH255674   0.136   6.740  15.734 -0.2157  0.4685 -0.0353
11420TIP3    H155675   0.056   6.726  15.683 -0.0568  2.0847 -0.7795
11420TIP3    H255676   0.193   6.666  15.711 -0.8108  0.2551 -0.8539
11421TIP3   OH255677   1.722   4.818   5.981  0.6354  0.2636 -0.2985
11421TIP3    H155678   1.723   4.896   5.926  1.2082  0.2471 -0.3228
11421TIP3    H255679   1.632   4.788   5.979  0.9753 -0.8203 -2.8015
11422TIP3   OH255680   3.276   4.024   3.158  0.4136 -0.3506 -0.2796
11422TIP3    H155681   3.352   4.058   3.205  0.3629  0.0638 -0.4829
11422TIP3    H255682   3.255   4.094   3.096  0.1227 -0.6414 -0.5075
11423TIP3   OH255683   1.133   1.322   3.836 -0.0585 -0.0918 -0.1444
11423TIP3    H155684   1.205   1.284   3.886  1.6456  1.6914 -1.0803
11423TIP3    H255685   1.148   1.292   3.746 -1.2233 -0.6798 -0.1627
11424TIP3   OH255686   1.777   1.532   2.733  0.0046 -0.1513  0.1589
11424TIP3    H155687   1.847   1.497   2.677  0.2134 -0.4847  0.6208
11424TIP3    H255688   1.710   1.464   2.733  0.3027 -0.4526  0.8577
11425TIP3   OH255689   6.167   2.587  17.228  0.5081  0.9246  0.3032
11425TIP3    H155690   6.083   2.627  17.251  0.3984  0.7925  0.1349
11425TIP3    H255691   6.194   2.632  17.148  0.1941  0.3952 -0.1060
11426TIP3   OH255692   3.208   2.238  11.500 -0.0594  0.4710  0.0586
11426TIP3    H155693   3.183   2.325  11.470 -1.7508  0.0898  0.2680
11426TIP3    H255694   3.259   2.201  11.428 -0.7852  1.0065 -0.7530
11427TIP3   OH255695   6.296   1.397   1.502 -0.2546 -0.4005  0.0886
11427TIP3    H155696   6.227   1.387   1.437 -0.3677  0.8419 -0.0128
11427TIP3    H255697   6.252   1.436   1.578  0.1423 -0.5343  0.3915
11428TIP3   OH255698   4.997   6.702  16.850  0.7244 -0.3893 -0.4262
11428TIP3    H155699   5.045   6.746  16.779  0.0469  0.2797 -0.4875
11428TIP3    H255700   5.060   6.641  16.888  1.3380 -0.1831 -1.0944
11429TIP3   OH255701   5.746   4.901   1.580 -0.5752 -0.3818 -0.0053
11429TIP3    H155702   5.768   4.993   1.592 -0.7993 -0.1461 -1.3216
11429TIP3    H255703   5.691   4.880   1.656  0.4470  0.2318  0.9235
11430TIP3   OH255704   3.041   5.227   3.256 -0.2974 -0.3963 -0.6387
11430TIP3    H155705   3.007   5.169   3.324  1.2439 -0.5206  0.0484
11430TIP3    H255706   3.124   5.188   3.230  0.1407  0.7921 -1.0930
11431TIP3   OH255707   0.021   1.708  12.248 -0.3365  0.9183  0.1138
11431TIP3    H155708  -0.062   1.663  12.232  1.3852 -2.4452 -0.4110
11431TIP3    H255709   0.028   1.714  12.343 -0.7531  0.2941  0.1881
11432TIP3   OH255710   1.124   4.392  11.143 -0.2979 -0.2701 -0.4108
11432TIP3    H155711   1.161   4.417  11.059 -1.4413  2.6330 -0.1620
11432TIP3    H255712   1.200   4.392  11.203  0.1701 -0.0143 -0.9933
11433TIP3   OH255713   0.158   6.237  16.465 -0.1112  0.3955 -0.5508
11433TIP3    H155714   0.096   6.284  16.520 -0.7277  0.0013 -0.8912
11433TIP3    H255715   0.117   6.235  16.378  0.5423  0.4368 -0.8688
11434TIP3   OH255716   5.347   2.769   2.343  0.2039 -0.1074  0.6221
11434TIP3    H155717   5.283   2.759   2.272  1.4294  1.3969 -0.7593
11434TIP3    H255718   5.295   2.763   2.423 -1.1674 -2.3049 -0.3406
11435TIP3   OH255719   1.801   0.339   4.023  0.3107  0.5956  0.6209
11435TIP3    H155720   1.758   0.403   3.966  1.3759 -0.0401 -0.9778
11435TIP3    H255721   1.768   0.254   3.992  1.7465  0.1760  0.1580
11436TIP3   OH255722   6.593   4.096  14.224 -0.1309  1.0639 -0.6848
11436TIP3    H155723   6.620   4.098  14.316 -1.1919  0.8446 -0.3571
11436TIP3    H255724   6.571   4.187  14.204 -0.2363  1.0517 -0.6224
11437TIP3   OH255725   6.091   1.431   5.473 -0.4387  0.1092 -0.2047
11437TIP3    H155726   6.006   1.471   5.492  0.1873  1.1768  0.4420
11437TIP3    H255727   6.080   1.392   5.386 -1.7270 -0.1965  0.0722
11438TIP3   OH255728   4.268   3.164  17.055 -0.2122  0.3393  0.2804
11438TIP3    H155729   4.252   3.074  17.083  2.2830 -0.7147 -1.3977
11438TIP3    H255730   4.214   3.217  17.115 -0.6343 -2.1283  2.2728
11439TIP3   OH255731   3.022   0.665  13.637  0.0842  0.4033 -0.0257
11439TIP3    H155732   2.959   0.666  13.565  0.6750 -1.1126 -0.6127
11439TIP3    H255733   3.060   0.753  13.637 -1.4162  1.0860 -0.1825
11440TIP3   OH255734   0.793   1.672  10.833  0.2267  0.3643 -0.2333
11440TIP3    H155735   0.769   1.718  10.752  0.0226 -1.8693 -1.5113
11440TIP3    H255736   0.858   1.607  10.805  2.0603  1.1548  1.8561
11441TIP3   OH255737   5.235   4.928   2.264 -0.2658  0.1604  0.2630
11441TIP3    H155738   5.155   4.876   2.274 -0.3384  0.4654  1.3823
11441TIP3    H255739   5.231   4.960   2.174 -1.7170  0.6805  0.4780
11442TIP3   OH255740   1.896   2.096  16.669  0.1287 -0.9746 -0.0236
11442TIP3    H155741   1.863   2.007  16.661 -0.5424 -0.7142 -0.3305
11442TIP3    H255742   1.990   2.089  16.658  0.0301 -1.5944 -0.5171
11443TIP3   OH255743   0.915   3.402   5.496  0.1624  0.2771 -0.2104
11443TIP3    H155744   1.010   3.409   5.481  0.4798 -0.8171  1.0704
11443TIP3    H255745   0.887   3.491   5.514  1.0035  0.5748 -0.3050
11444TIP3   OH255746   3.021   4.539   5.595 -0.0811  0.1252  0.1396
11444TIP3    H155747   3.021   4.634   5.582 -1.5215 -0.0117 -1.1680
11444TIP3    H255748   2.939   4.521   5.641  0.6311 -0.4272  1.2679
11445TIP3   OH255749   1.684   3.997  16.288  0.9818  0.2992  0.4016
11445TIP3    H155750   1.767   4.015  16.243 -0.2103  0.2028 -1.9949
11445TIP3    H255751   1.692   3.906  16.316  0.5897 -0.8216 -2.6917
11446TIP3   OH255752   2.270   2.700   4.313  0.0737  0.4202  0.1164
11446TIP3    H155753   2.205   2.653   4.261  2.1684  0.1466 -2.4333
11446TIP3    H255754   2.274   2.651   4.396 -1.0499 -1.1491 -0.7015
11447TIP3   OH255755   0.764   4.598   2.720  0.6683  0.1250 -0.2845
11447TIP3    H155756   0.695   4.569   2.780  1.2204 -0.1164  0.2449
11447TIP3    H255757   0.816   4.660   2.771 -0.3719  1.9684 -1.3331
11448TIP3   OH255758   5.766   2.482  11.872  0.4616  0.5999 -0.0960
11448TIP3    H155759   5.802   2.570  11.861  1.2474  0.3905  0.6571
11448TIP3    H255760   5.797   2.433  11.797  1.9075  0.3863  0.6058
11449TIP3   OH255761   6.652   5.290   5.941  0.0476  0.1074 -0.2183
11449TIP3    H155762   6.574   5.246   5.909  1.1241 -2.3127  0.2451
11449TIP3    H255763   6.657   5.265   6.034 -0.1778  2.6539  0.5484
11450TIP3   OH255764   1.365   3.821  12.192  0.3473  0.7373 -0.4872
11450TIP3    H155765   1.318   3.769  12.257 -0.1386 -0.2381 -1.5718
11450TIP3    H255766   1.296   3.869  12.146  0.6456  1.0909 -0.5682
11451TIP3   OH255767   1.227   3.643   5.634  0.3878 -0.3125 -0.3115
11451TIP3    H155768   1.212   3.639   5.728  1.9122 -1.1549 -0.0776
11451TIP3    H255769   1.306   3.696   5.624 -0.4913  0.8935 -1.2387
11452TIP3   OH255770   4.120   3.473  17.485 -0.3175 -0.1523  0.1806
11452TIP3    H155771   4.150   3.410  17.550  1.8163 -0.8376 -1.3737
11452TIP3    H255772   4.144   3.558  17.521  2.4285 -0.6065 -0.3602
11453TIP3   OH255773   6.513   2.924  16.130 -0.2535  0.0625 -0.3135
11453TIP3    H155774   6.504   2.879  16.214 -0.1564  1.9307  0.7506
11453TIP3    H255775   6.536   2.854  16.069  0.5991 -1.2330  1.3738
11454TIP3   OH255776   3.246   1.027  14.167 -0.0338  0.0197  0.5739
11454TIP3    H155777   3.224   1.044  14.259  0.2300  0.2449  0.5964
11454TIP3    H255778   3.202   0.944  14.147  1.5166 -1.0615  1.4820
11455TIP3   OH255779   6.601   2.458   5.186  0.7278  0.5929  0.0225
11455TIP3    H155780   6.673   2.492   5.239 -0.3809  0.4294  1.7348
11455TIP3    H255781   6.595   2.365   5.212  0.2774  0.4677 -0.5212
11456TIP3   OH255782   4.982   0.400  13.123 -0.0038 -0.0821  0.7473
11456TIP3    H155783   4.999   0.489  13.153 -0.1007 -0.6127  2.4543
11456TIP3    H255784   5.016   0.398  13.034 -1.9438  2.2956 -0.1679
11457TIP3   OH255785   2.175   5.615  15.441 -0.0564 -1.1202  0.7688
11457TIP3    H155786   2.230   5.541  15.463 -0.0937 -0.3395  3.9175
11457TIP3    H255787   2.102   5.611  15.503 -0.2179  1.3298  0.8554
11458TIP3   OH255788   1.113   3.556  16.567  0.1222  0.4159 -0.4173
11458TIP3    H155789   1.093   3.636  16.519 -1.7234  1.0477  1.2571
11458TIP3    H255790   1.146   3.586  16.652  0.5087 -0.6238 -0.1826
11459TIP3   OH255791   2.457   0.885  13.834  0.0224  0.0233 -0.1306
11459TIP3    H155792   2.374   0.924  13.807 -0.1591 -0.0024  0.3877
11459TIP3    H255793   2.453   0.795  13.800 -0.2625 -0.0485  0.0847
11460TIP3   OH255794   1.591   0.333   1.286 -0.3750  0.3117 -0.2762
11460TIP3    H155795   1.547   0.413   1.256 -0.3422 -0.1288 -1.5156
11460TIP3    H255796   1.663   0.365   1.341 -1.1987  1.0824  0.4047
11461TIP3   OH255797   5.545   6.279  11.211 -0.0425 -0.3890  0.5847
11461TIP3    H155798   5.560   6.184  11.215 -0.5691 -0.5517 -0.6536
11461TIP3    H255799   5.457   6.287  11.174  0.4149  0.5807 -0.3402
11462TIP3   OH255800   0.197   1.030   3.424 -0.1058 -0.5069  0.2583
11462TIP3    H155801   0.230   1.117   3.447 -0.2640 -0.2037 -0.6312
11462TIP3    H255802   0.277   0.978   3.409 -0.0027 -0.6545  1.2332
11463TIP3   OH255803   1.166   4.335   4.252  0.5623 -0.4140 -0.1304
11463TIP3    H155804   1.214   4.294   4.180  0.3634 -1.6511  0.4199
11463TIP3    H255805   1.142   4.422   4.218  0.5859 -0.9145 -1.5064
11464TIP3   OH255806   2.871   3.578  13.440 -0.5795  0.2477  0.0658
11464TIP3    H155807   2.946   3.634  13.425 -0.8726  0.7238  0.3685
11464TIP3    H255808   2.907   3.500  13.482 -0.4923  1.3340  2.1557
11465TIP3   OH255809   2.351   1.057   1.736  0.2302 -0.0339 -0.0292
11465TIP3    H155810   2.433   1.107   1.729  0.5400 -0.4343  0.6398
11465TIP3    H255811   2.282   1.123   1.728  0.5800  0.1839 -1.7266
11466TIP3   OH255812   6.423   2.167   3.220  0.1266  0.0440 -0.1746
11466TIP3    H155813   6.376   2.212   3.150  0.5071 -0.4379 -0.7592
11466TIP3    H255814   6.509   2.149   3.182  0.5550  0.3379  0.6460
11467TIP3   OH255815   0.637   5.183  16.687  0.0950  0.3723 -0.0988
11467TIP3    H155816   0.638   5.196  16.782 -1.0759  1.0105 -0.1541
11467TIP3    H255817   0.721   5.140  16.667  2.3182  3.9495  0.6810
11468TIP3   OH255818   6.579   3.970  11.516 -0.3361  0.1207  0.0658
11468TIP3    H155819   6.499   3.937  11.558  0.3855 -1.9430 -0.0891
11468TIP3    H255820   6.637   3.894  11.510  1.1392  1.2632 -1.0590
11469TIP3   OH255821   3.734   6.741   2.299 -0.4263 -0.2666  0.6264
11469TIP3    H155822   3.650   6.707   2.331  1.1495 -2.1530  3.0655
11469TIP3    H255823   3.726   6.836   2.308 -2.8576 -0.2519 -0.8234
11470TIP3   OH255824   4.283   2.064   1.973 -0.3295 -0.6399 -0.2314
11470TIP3    H155825   4.242   2.021   1.898 -0.8846 -0.9666  0.2508
11470TIP3    H255826   4.211   2.103   2.021  0.0229 -0.4460  0.1452
11471TIP3   OH255827   1.687   2.819  13.370 -0.3889 -0.3703  0.3335
11471TIP3    H155828   1.725   2.906  13.355  1.0061 -0.2498  3.7668
11471TIP3    H255829   1.737   2.761  13.312  2.4392  0.4159  1.7960
11472TIP3   OH255830   4.960   6.166   3.806  0.3364  0.1618  0.0189
11472TIP3    H155831   4.964   6.231   3.736  1.5380 -0.1879 -0.2648
11472TIP3    H255832   5.003   6.089   3.769  0.0396 -0.3823  0.7842
11473TIP3   OH255833   6.339   2.721   1.785  0.2399 -0.2911  0.4235
11473TIP3    H155834   6.322   2.804   1.740  1.1454  0.2922  1.1127
11473TIP3    H255835   6.276   2.719   1.856 -0.0353 -0.3772  0.1777
11474TIP3   OH255836   2.100   1.871  13.133 -0.1816 -0.1421 -0.0148
11474TIP3    H155837   2.060   1.790  13.102  0.0643 -1.2334  2.3566
11474TIP3    H255838   2.179   1.844  13.179  0.9157  1.6257 -0.7215
11475TIP3   OH255839   2.350   5.147   1.676  0.2583 -0.1704  0.1456
11475TIP3    H155840   2.382   5.141   1.766  0.4588 -0.8537  0.0349
11475TIP3    H255841   2.269   5.199   1.682 -0.9319 -2.0112  1.0450
11476TIP3   OH255842   5.140   1.906  14.579 -0.6450 -0.6319 -0.1522
11476TIP3    H155843   5.139   1.986  14.632 -0.2078 -0.1015 -0.9351
11476TIP3    H255844   5.169   1.838  14.640 -0.9284 -0.1856  0.4980
11477TIP3   OH255845   6.417   6.653   0.950  0.5605  0.0033 -0.0686
11477TIP3    H155846   6.396   6.559   0.952  2.4360 -0.4361  0.2636
11477TIP3    H255847   6.434   6.672   0.858 -0.7656  0.2746 -0.2829
11478TIP3   OH255848   2.250   4.765   5.611  0.0454  0.0127  0.1774
11478TIP3    H155849   2.179   4.821   5.581 -1.0394  0.0492  2.5989
11478TIP3    H255850   2.206   4.685   5.640  0.8550  0.2875  2.3431
11479TIP3   OH255851   2.869   2.694   5.913 -0.1330 -0.3626  0.1578
11479TIP3    H155852   2.923   2.674   5.836 -0.2068 -0.1903  0.0601
11479TIP3    H255853   2.782   2.710   5.877 -0.5553 -1.8896  0.4312
11480TIP3   OH255854   1.979   3.981   2.466 -0.1659  0.5804  0.3845
11480TIP3    H155855   1.930   3.940   2.537 -1.2602  0.6231 -0.3242
11480TIP3    H255856   1.988   4.072   2.492 -0.6600  0.6195  0.4186
11481TIP3   OH255857   3.575   3.738  11.911 -0.1034 -0.0126  0.0834
11481TIP3    H155858   3.644   3.804  11.904  1.5748 -1.7723 -0.7167
11481TIP3    H255859   3.537   3.734  11.823  1.0310 -1.3343 -0.3792
11482TIP3   OH255860   1.196   4.203  12.053  0.1193  0.1011 -1.2879
11482TIP3    H155861   1.142   4.231  11.980 -1.7355 -0.0415 -0.0268
11482TIP3    H255862   1.154   4.124  12.086 -0.1583  1.1312  1.0245
11483TIP3   OH255863   4.783   6.151   2.719  0.2152 -0.3388 -0.3094
11483TIP3    H155864   4.719   6.204   2.767 -1.2619 -2.3778  0.1213
11483TIP3    H255865   4.832   6.215   2.667 -1.2800  1.4565  0.3392
11484TIP3   OH255866   0.683   1.646   4.992 -0.3038 -0.4616  0.5529
11484TIP3    H155867   0.744   1.600   5.049 -0.8001 -0.9186  0.7237
11484TIP3    H255868   0.611   1.585   4.979 -0.0010 -0.5311 -0.9351
11485TIP3   OH255869   3.444   6.645  11.323 -0.1216  0.2170  0.0138
11485TIP3    H155870   3.462   6.596  11.403 -0.1385  0.1724 -0.0099
11485TIP3    H255871   3.366   6.697  11.343  0.1582  0.5735  0.1904
11486TIP3   OH255872   0.219   3.488  16.373 -0.1098 -0.1328 -0.4841
11486TIP3    H155873   0.146   3.544  16.400 -0.0125 -0.6735  0.9574
11486TIP3    H255874   0.259   3.536  16.300 -2.1070 -0.0095 -1.5893
11487TIP3   OH255875   0.569   3.336  12.392  0.7707 -0.2132 -0.5557
11487TIP3    H155876   0.550   3.263  12.451  1.0245 -0.7701 -1.1311
11487TIP3    H255877   0.657   3.364  12.416  0.2447  0.6617  0.4107
11488TIP3   OH255878   3.758   3.584   3.484 -0.5024  0.3914 -0.2921
11488TIP3    H155879   3.699   3.658   3.480 -1.1825 -0.1794 -2.5328
11488TIP3    H255880   3.701   3.507   3.485  0.0188 -0.2263 -3.9276
11489TIP3   OH255881   2.392   2.958  13.576 -0.5771 -0.4135 -0.0300
11489TIP3    H155882   2.477   2.947  13.618 -0.5197  0.2896  0.0562
11489TIP3    H255883   2.411   3.007  13.496 -1.1853  2.2013  1.3238
11490TIP3   OH255884   1.490   3.734   0.605 -0.2719  0.8779 -0.1290
11490TIP3    H155885   1.477   3.700   0.516 -0.0740  0.7596 -0.1116
11490TIP3    H255886   1.403   3.767   0.630 -0.3820  0.7031 -0.2762
11491TIP3   OH255887   5.976   5.805  15.811 -0.1948 -0.4157 -0.3660
11491TIP3    H155888   5.957   5.761  15.893  2.1764  0.6535  0.8566
11491TIP3    H255889   5.894   5.802  15.762 -1.6069 -1.2818  1.9170
11492TIP3   OH255890   5.681   3.411  14.191 -0.9514  0.0015  0.4013
11492TIP3    H155891   5.642   3.368  14.115 -1.0374  1.8494 -0.6542
11492TIP3    H255892   5.610   3.417  14.255 -0.9404 -1.3550  0.5592
11493TIP3   OH255893   3.108   2.461  16.636 -0.1809 -0.0113  0.1802
11493TIP3    H155894   3.034   2.436  16.581  0.0754 -0.0632 -0.1419
11493TIP3    H255895   3.163   2.515  16.580  0.6779 -1.0262  0.0074
11494TIP3   OH255896   3.754   5.361   1.467 -0.3383  0.0027 -0.1624
11494TIP3    H155897   3.718   5.446   1.443  1.3483  0.5605 -0.8509
11494TIP3    H255898   3.687   5.298   1.439 -0.8394  0.9910 -1.2876
11495TIP3   OH255899   4.146   1.103   5.175 -0.4419  0.2117 -0.6510
11495TIP3    H155900   4.237   1.130   5.185 -0.2492 -0.4326 -0.6478
11495TIP3    H255901   4.147   1.038   5.105 -0.6410 -1.0590  0.4823
11496TIP3   OH255902   5.163   2.100   1.047 -0.0895  0.1431  0.1741
11496TIP3    H155903   5.231   2.076   1.110  1.1863  1.4086 -0.6355
11496TIP3    H255904   5.175   2.038   0.975 -0.7642 -0.5487  0.6456
11497TIP3   OH255905   4.663   3.238   0.473 -0.1462  0.2704  0.5166
11497TIP3    H155906   4.573   3.246   0.440 -0.0144 -3.8461 -1.4810
11497TIP3    H255907   4.657   3.172   0.542  1.4197 -0.8705 -0.3781
11498TIP3   OH255908   2.895   1.813   0.326  0.1454 -0.4113  0.2364
11498TIP3    H155909   2.855   1.728   0.346 -1.5380  0.4165  0.6375
11498TIP3    H255910   2.825   1.861   0.281  0.6439  1.1643  1.0735
11499TIP3   OH255911   3.635   4.960   2.588 -0.0622 -0.5174  0.1227
11499TIP3    H155912   3.568   4.982   2.654  0.0845  0.4388 -0.0315
11499TIP3    H255913   3.586   4.951   2.507 -0.4234 -2.9452  0.5428
11500TIP3   OH255914   0.244   4.731  14.910  0.2830 -0.1774 -0.6862
11500TIP3    H155915   0.259   4.712  15.002  0.3229 -0.4103 -0.7387
11500TIP3    H255916   0.332   4.737  14.872  0.3366  1.9369 -0.3229
11501TIP3   OH255917   5.430   4.787  14.321  0.4115  0.0179  0.0439
11501TIP3    H155918   5.362   4.855  14.315  1.4109  1.0607  0.1380
11501TIP3    H255919   5.451   4.782  14.414  0.8203  0.0629 -0.0454
11502TIP3   OH255920   4.185   2.017   4.534 -0.8560  0.1214  0.4901
11502TIP3    H155921   4.094   1.997   4.510 -0.8211 -1.2296  1.4063
11502TIP3    H255922   4.180   2.050   4.624 -0.6329  2.0792 -0.1611
11503TIP3   OH255923   1.301   2.999   4.401  0.5607  0.1577  0.0351
11503TIP3    H155924   1.235   2.984   4.333  0.2258 -1.3084  0.6292
11503TIP3    H255925   1.260   2.966   4.481  1.0759  1.5460  0.8976
11504TIP3   OH255926   3.873   0.838  11.673 -0.1922 -0.0007 -0.2525
11504TIP3    H155927   3.833   0.903  11.616 -0.5106  1.3484  1.4660
11504TIP3    H255928   3.800   0.790  11.710 -0.0049 -0.4694 -0.4717
11505TIP3   OH255929   6.358   2.743   3.892 -0.4141 -0.1147  0.1260
11505TIP3    H155930   6.364   2.801   3.968 -0.1834 -0.6103  0.4934
11505TIP3    H255931   6.448   2.732   3.862 -0.2542 -1.5434  1.0374
11506TIP3   OH255932   2.942   5.845  16.121 -0.4376  0.2841  0.3289
11506TIP3    H155933   3.002   5.782  16.161 -1.3282  0.2183  1.6389
11506TIP3    H255934   2.855   5.813  16.145 -0.9795  0.8261 -0.8470
11507TIP3   OH255935   2.770   5.140  17.041  0.1767  1.0205 -0.4799
11507TIP3    H155936   2.770   5.064  16.982 -3.5935  0.1499  0.3456
11507TIP3    H255937   2.694   5.191  17.014  1.3691  3.4156  0.4010
11508TIP3   OH255938   0.188   5.144  12.220  0.1185 -0.3114  0.0073
11508TIP3    H155939   0.282   5.142  12.238  0.8877  0.1849 -3.2348
11508TIP3    H255940   0.165   5.237  12.223 -0.2441 -0.4176  0.6436
11509TIP3   OH255941   5.712   4.010   5.290  0.0525 -0.1410  0.1271
11509TIP3    H155942   5.734   3.933   5.237 -0.9727 -0.8177  0.6558
11509TIP3    H255943   5.718   3.979   5.380 -0.9974  0.2278  0.3288
11510TIP3   OH255944   4.685   5.346   2.358  0.2979  0.4703  0.4108
11510TIP3    H155945   4.645   5.433   2.360  0.2177  0.4713 -0.7143
11510TIP3    H255946   4.654   5.307   2.277  0.4823 -0.5489  0.8147
11511TIP3   OH255947   0.491   2.215   2.339  0.2289  0.0526 -0.6628
11511TIP3    H155948   0.482   2.120   2.347  0.3207 -0.1081 -2.1801
11511TIP3    H255949   0.404   2.245   2.313  0.3696  0.2952 -0.8598
11512TIP3   OH255950   6.236   6.443   5.123  0.1263  0.1554 -0.3406
11512TIP3    H155951   6.244   6.506   5.051 -1.0367 -1.8862 -2.4183
11512TIP3    H255952   6.248   6.358   5.081 -0.8883 -1.1529  1.8529
11513TIP3   OH255953   1.256   6.463  13.117 -0.6208 -0.3499  0.3526
11513TIP3    H155954   1.322   6.433  13.179  0.5068  0.9605 -0.1851
11513TIP3    H255955   1.264   6.403  13.042  1.1389  0.7992 -0.4219
11514TIP3   OH255956   4.521   1.316  15.488 -0.0786 -0.7564  0.1381
11514TIP3    H155957   4.480   1.235  15.518  0.1589 -0.4058  1.4569
11514TIP3    H255958   4.615   1.299  15.495 -0.0031 -0.7818 -0.7737
11515TIP3   OH255959   3.228   0.212   2.310 -0.2246 -0.5328 -0.2295
11515TIP3    H155960   3.157   0.276   2.307 -0.5054 -0.7381  1.3144
11515TIP3    H255961   3.277   0.227   2.230 -0.5390  1.3153 -0.1190
11516TIP3   OH255962   3.763   5.289   1.125 -0.4361 -0.5193  0.0549
11516TIP3    H155963   3.775   5.379   1.098 -0.6767 -0.6282 -0.4261
11516TIP3    H255964   3.683   5.290   1.179 -0.8205 -0.5525 -0.5058
11517TIP3   OH255965   5.426   4.878  15.976 -0.1005 -0.1414  0.3855
11517TIP3    H155966   5.507   4.856  16.021 -0.5011 -4.0009 -0.4423
11517TIP3    H255967   5.452   4.944  15.911  2.4838 -1.4392 -0.0346
11518TIP3   OH255968   4.482   0.245  13.282  0.3191  0.0973  0.0345
11518TIP3    H155969   4.456   0.155  13.260  1.4238 -0.0186 -0.9171
11518TIP3    H255970   4.419   0.300  13.236  0.1113 -0.1930 -0.0360
11519TIP3   OH255971   3.533   5.027  12.883 -0.0490  0.3252  0.1234
11519TIP3    H155972   3.499   5.048  12.969 -1.4858 -0.7509 -0.1503
11519TIP3    H255973   3.623   5.061  12.883  0.7388 -1.4542  2.7948
11520TIP3   OH255974   4.553   6.530  14.980 -0.6390 -0.2579 -0.0298
11520TIP3    H155975   4.553   6.480  15.062  0.0903 -0.1214  0.0600
11520TIP3    H255976   4.646   6.540  14.958 -0.7943  0.4788 -0.3956
11521TIP3   OH255977   5.290   2.738  15.985  0.1689 -0.2025 -0.4596
11521TIP3    H155978   5.204   2.777  15.998  0.2392  0.0756 -0.8229
11521TIP3    H255979   5.303   2.738  15.890 -0.1060 -1.7012 -0.5201
11522TIP3   OH255980   5.362   0.978   4.840 -0.5424 -0.6495 -0.3415
11522TIP3    H155981   5.426   1.032   4.886  0.7540  0.2344 -2.9665
11522TIP3    H255982   5.395   0.889   4.847 -0.7941 -0.6573  1.0211
11523TIP3   OH255983   2.208   4.948  11.732 -0.5156  0.3125 -0.4304
11523TIP3    H155984   2.297   4.932  11.761 -0.8187 -0.8870 -0.0755
11523TIP3    H255985   2.181   4.865  11.692 -2.6295 -0.6410  2.5830
11524TIP3   OH255986   1.987   6.275  14.034  0.4216 -0.5870  0.0273
11524TIP3    H155987   1.998   6.297  14.127  1.0989  0.6683 -0.3282
11524TIP3    H255988   2.039   6.340  13.988 -0.5721 -0.6861 -1.2907
11525TIP3   OH255989   1.483   0.338  13.508  0.4633  0.3625  0.0436
11525TIP3    H155990   1.541   0.273  13.547 -0.3249  0.1375  0.8640
11525TIP3    H255991   1.442   0.382  13.582 -0.1586  0.7466 -0.5154
11526TIP3   OH255992   2.576   6.631   5.460  0.4250 -0.0970 -0.0851
11526TIP3    H155993   2.518   6.595   5.527 -0.5694  0.0744 -0.8257
11526TIP3    H255994   2.545   6.721   5.448 -1.3822 -0.9822 -2.8421
11527TIP3   OH255995   0.580   3.052  12.292 -0.0272 -0.3472 -0.2492
11527TIP3    H155996   0.495   3.068  12.250 -0.9367 -3.4168  0.1970
11527TIP3    H255997   0.561   3.057  12.386  0.5069 -0.1879 -0.1473
11528TIP3   OH255998   0.001   2.066  12.145 -0.3989  0.0743  0.3501
11528TIP3    H155999   0.095   2.049  12.146 -0.5119 -0.5766  0.1724
11528TIP3    H256000  -0.014   2.121  12.222  0.4407  1.9436 -0.7655
11529TIP3   OH256001   1.437   4.743   6.014 -0.1366 -0.1182 -0.3818
11529TIP3    H156002   1.456   4.746   6.108 -0.8328 -0.1074 -0.2402
11529TIP3    H256003   1.368   4.807   6.001 -0.3326 -0.4158 -0.8318
11530TIP3   OH256004   1.081   2.938  16.328 -0.5003  0.4909  0.1077
11530TIP3    H156005   1.069   2.886  16.408  0.6551 -0.2256 -0.1569
11530TIP3    H256006   1.012   3.005  16.332 -2.5223 -1.4834  0.0866
11531TIP3   OH256007   5.717   2.162   4.330  0.0816 -0.3854  0.4869
11531TIP3    H156008   5.777   2.168   4.404 -0.1801  1.5787  0.5996
11531TIP3    H256009   5.703   2.253   4.303  0.6381 -1.0450 -2.3698
11532TIP3   OH256010   3.397   2.042  12.609  0.8699 -0.1362  0.3693
11532TIP3    H156011   3.335   1.974  12.583 -0.6290  1.6465 -1.0412
11532TIP3    H256012   3.443   2.064  12.527 -1.9544  3.6570 -0.4644
11533TIP3   OH256013   1.126   2.920  11.149  0.1884  0.2473 -0.1725
11533TIP3    H156014   1.197   2.985  11.143 -0.2623  0.6562 -1.2523
11533TIP3    H256015   1.049   2.971  11.173  0.2087 -0.1756  0.8322
11534TIP3   OH256016   2.112   3.861  11.873  0.2299 -0.3757 -0.7361
11534TIP3    H156017   2.041   3.852  11.808 -0.3419 -1.1259 -0.0203
11534TIP3    H256018   2.093   3.795  11.939  0.4492  0.7968  0.5370
11535TIP3   OH256019   2.294   0.502   2.389 -0.0857  0.0526  0.2822
11535TIP3    H156020   2.223   0.557   2.422  0.2099  1.0060 -0.6176
11535TIP3    H256021   2.255   0.415   2.380 -0.0812 -0.3883  3.4315
11536TIP3   OH256022   0.925   4.451   3.508 -0.1721 -0.3463 -0.3252
11536TIP3    H156023   0.906   4.485   3.596  1.2137  1.2078 -0.5626
11536TIP3    H256024   0.845   4.407   3.481 -0.7526 -0.5663  1.5727
11537TIP3   OH256025   4.114   5.070   3.848 -0.0640  0.0946 -0.1865
11537TIP3    H156026   4.153   5.157   3.858  0.7648 -0.2630 -0.2022
11537TIP3    H256027   4.133   5.045   3.757  0.2332 -0.3527 -0.0038
11538TIP3   OH256028   2.578   0.862  13.475 -0.1619 -0.4386 -0.6033
11538TIP3    H156029   2.530   0.790  13.433 -1.3830 -0.9757  1.5228
11538TIP3    H256030   2.625   0.819  13.547  1.4991  0.4988 -1.0749
11539TIP3   OH256031   2.742   3.887   1.150  0.0421  0.1459 -0.4662
11539TIP3    H156032   2.783   3.951   1.092  1.0513 -0.7568 -0.7864
11539TIP3    H256033   2.815   3.832   1.180 -0.4601  0.5644  1.6508
11540TIP3   OH256034   3.794   6.689   3.360 -0.1830 -0.3137  0.0998
11540TIP3    H156035   3.842   6.636   3.424  0.9638 -2.8226 -2.6389
11540TIP3    H256036   3.707   6.650   3.357 -0.4454  0.2136  0.5052
11541TIP3   OH256037   2.460   3.998   3.032 -0.1364 -0.0996  0.8876
11541TIP3    H156038   2.366   4.000   3.050 -0.5776  1.2667 -1.1752
11541TIP3    H256039   2.466   3.980   2.938  1.6989 -0.7682  1.0903
11542TIP3   OH256040   1.782   4.258   4.407 -0.2408  0.5787 -0.0421
11542TIP3    H156041   1.874   4.235   4.423 -0.5286  0.4695  1.6585
11542TIP3    H256042   1.777   4.351   4.429 -0.6139  0.5014  0.1975
11543TIP3   OH256043   5.658   0.808  12.574 -0.4598  0.3502  0.5611
11543TIP3    H156044   5.565   0.802  12.550 -0.8645  0.4893  1.9634
11543TIP3    H256045   5.705   0.785  12.495 -1.6885  0.9590 -0.3924
11544TIP3   OH256046   5.192   0.653  15.750 -0.0521 -0.5343 -0.4236
11544TIP3    H156047   5.213   0.611  15.834  0.3501  0.7748  0.1628
11544TIP3    H256048   5.157   0.583  15.696 -0.7801 -1.3178  1.0071
11545TIP3   OH256049   6.735   6.111  15.035 -0.2547 -0.1369  0.1736
11545TIP3    H156050   6.645   6.106  15.067 -0.2702  2.0642  0.6036
11545TIP3    H256051   6.785   6.148  15.108  1.3154 -2.5500  0.4344
11546TIP3   OH256052   3.521   0.565   5.471  0.1781  0.0896 -0.5300
11546TIP3    H156053   3.459   0.607   5.411  0.1874 -0.6912 -1.1105
11546TIP3    H256054   3.466   0.508   5.526  0.1921  0.6611  0.0884
11547TIP3   OH256055   5.375   1.125   0.216 -0.4122  0.1688 -0.3238
11547TIP3    H156056   5.348   1.059   0.152 -0.6304  1.7696 -1.9423
11547TIP3    H256057   5.407   1.198   0.164 -3.2296  2.7035  1.2083
11548TIP3   OH256058   2.611   3.938   2.415  0.0973  0.1720 -0.3609
11548TIP3    H156059   2.680   4.003   2.399  0.1564  0.5100  1.0787
11548TIP3    H256060   2.529   3.987   2.402  0.1201 -0.0088 -1.2432
11549TIP3   OH256061   6.434   5.875  11.397  0.0972  0.4270  0.2843
11549TIP3    H156062   6.425   5.890  11.303 -0.5008 -1.0802  0.0760
11549TIP3    H256063   6.435   5.963  11.435 -0.8121  1.0381 -1.0376
11550TIP3   OH256064   6.435   0.207  16.339 -0.4717 -0.0999 -0.0885
11550TIP3    H156065   6.527   0.229  16.324 -0.3324 -0.3710  0.3709
11550TIP3    H256066   6.434   0.113  16.355 -0.8386 -0.1080 -0.1377
11551TIP3   OH256067   0.747   5.708  16.734 -0.2127 -0.3653 -0.1264
11551TIP3    H156068   0.815   5.643  16.716  0.0526  0.1419 -1.0453
11551TIP3    H256069   0.791   5.793  16.724 -0.7431 -0.0424  0.2408
11552TIP3   OH256070   4.943   4.542  12.176  0.0061 -0.0263 -0.4191
11552TIP3    H156071   4.858   4.497  12.178  0.4666 -0.8967  1.4253
11552TIP3    H256072   5.004   4.476  12.144  0.3538 -0.1080  0.4013
11553TIP3   OH256073   2.395   6.066  14.863  0.0127 -0.3667  0.6360
11553TIP3    H156074   2.430   5.976  14.864  0.1594 -0.3132  0.2753
11553TIP3    H256075   2.402   6.095  14.954  1.4503 -0.1479  0.4685
11554TIP3   OH256076   4.655   1.726   0.474 -0.3178 -0.1519 -0.0259
11554TIP3    H156077   4.692   1.801   0.427 -1.4452  1.3310  1.3557
11554TIP3    H256078   4.671   1.745   0.566 -1.5136 -1.1176  0.3990
11555TIP3   OH256079   1.258   3.558   0.109  0.1056  0.0024 -0.4600
11555TIP3    H156080   1.205   3.566   0.188 -0.1977 -0.7251 -0.5781
11555TIP3    H256081   1.251   3.643   0.066 -2.4407 -0.5873 -1.3778
11556TIP3   OH256082   5.629   0.474  15.776  0.4671  0.3438 -0.5843
11556TIP3    H156083   5.624   0.550  15.835 -0.6808 -0.1282 -0.0380
11556TIP3    H256084   5.539   0.442  15.770  0.7744 -0.3906 -1.5979
11557TIP3   OH256085   3.329   6.147  14.740 -0.1165 -0.3417  0.1275
11557TIP3    H156086   3.393   6.182  14.800 -0.3865 -0.4510  0.4834
11557TIP3    H256087   3.323   6.212  14.670 -0.0363 -0.0603  0.3804
11558TIP3   OH256088   0.722   3.520   4.913 -0.0100 -0.2566 -0.3042
11558TIP3    H156089   0.794   3.489   4.968  0.1136 -0.7294 -0.7194
11558TIP3    H256090   0.758   3.598   4.869 -0.2502  0.3744  0.5796
11559TIP3   OH256091   5.841   3.758   5.123 -0.2968  0.5203  0.5552
11559TIP3    H156092   5.891   3.745   5.043 -0.2069  0.8231  0.5591
11559TIP3    H256093   5.793   3.676   5.136  0.0304  0.3084  0.4347
11560TIP3   OH256094   0.790   2.466   1.960  0.7297 -0.3673 -0.5130
11560TIP3    H156095   0.712   2.413   1.977  1.3712 -1.0257  0.5160
11560TIP3    H256096   0.757   2.545   1.918 -0.2202 -1.7414 -2.4915
11561TIP3   OH256097   3.398   3.185  14.409  0.1487 -0.3198 -0.0064
11561TIP3    H156098   3.434   3.273  14.395  0.2068 -0.3188  0.1497
11561TIP3    H256099   3.414   3.140  14.326 -0.0497 -0.1251 -0.1516
11562TIP3   OH256100   2.704   0.404   0.568 -0.1624  0.2425  0.1030
11562TIP3    H156101   2.610   0.394   0.581 -0.4901 -0.4848 -2.3313
11562TIP3    H256102   2.716   0.498   0.552 -1.0796 -0.0411 -2.9281
11563TIP3   OH256103   2.585   3.248   2.451  0.0464  0.0581 -0.5619
11563TIP3    H156104   2.520   3.300   2.498 -1.9218 -2.4083 -0.3277
11563TIP3    H256105   2.621   3.308   2.386 -0.3227  2.3388  1.2100
11564TIP3   OH256106   4.880   2.205   0.148  0.0643 -0.1223 -0.2927
11564TIP3    H156107   4.822   2.278   0.166  0.4410 -0.1319  1.0758
11564TIP3    H256108   4.968   2.242   0.156  0.2517 -0.5589 -0.3133
11565TIP3   OH256109   1.921   0.158  14.221 -0.7691  0.7645 -0.2716
11565TIP3    H156110   1.973   0.098  14.168  1.8358  0.0242  2.8085
11565TIP3    H256111   1.959   0.244  14.204  0.3321  0.4738  0.5950
11566TIP3   OH256112   3.560   2.401   4.608 -0.6043  0.1401  0.7433
11566TIP3    H156113   3.540   2.478   4.662  1.0173  0.7649  0.5051
11566TIP3    H256114   3.538   2.326   4.664  0.4162  0.7772  2.0716
11567TIP3   OH256115   4.291   5.460  16.875  0.0349  0.2334  0.0065
11567TIP3    H156116   4.276   5.369  16.851  2.1032  0.4001 -2.3022
11567TIP3    H256117   4.216   5.507  16.838  0.6807 -0.1647 -1.9176
11568TIP3   OH256118   6.341   0.641  14.486  0.6921 -0.1730  0.1175
11568TIP3    H156119   6.280   0.593  14.542  1.3116 -0.4854  0.5301
11568TIP3    H256120   6.399   0.574  14.450  0.5370  0.0711 -0.6050
11569TIP3   OH256121   4.949   4.861   5.573 -0.4281  0.0020  0.1811
11569TIP3    H156122   5.014   4.861   5.644 -0.4632 -0.7108  0.2155
11569TIP3    H256123   4.887   4.793   5.597 -0.5629 -0.0932 -0.4297
11570TIP3   OH256124   6.069   6.341  16.553  0.0123 -0.5044  0.3670
11570TIP3    H156125   6.142   6.289  16.520  0.1821 -1.2261  1.7698
11570TIP3    H256126   5.992   6.305  16.509  0.2549 -1.2760  0.5479
11571TIP3   OH256127   4.823   0.032  13.349 -0.3942  0.2888  0.1446
11571TIP3    H156128   4.916   0.022  13.330 -0.6713 -2.0207 -0.3794
11571TIP3    H256129   4.779  -0.008  13.274 -1.7959  0.9147  0.6047
11572TIP3   OH256130   2.258   5.151   4.949  0.7347  0.2211  0.5074
11572TIP3    H156131   2.319   5.077   4.951  0.2043 -0.3666 -1.7185
11572TIP3    H256132   2.313   5.228   4.940  1.3243 -0.4330 -3.7518
11573TIP3   OH256133   0.020   3.893   5.096 -0.1277 -0.1512 -0.0122
11573TIP3    H156134  -0.021   3.818   5.054 -1.0307  1.2901 -1.8998
11573TIP3    H256135   0.111   3.890   5.068 -0.2168 -0.4209 -0.2784
11574TIP3   OH256136   0.503   3.418   2.715 -0.5719  0.2491  0.5165
11574TIP3    H156137   0.562   3.411   2.790 -1.2204 -1.4837  0.9143
11574TIP3    H256138   0.507   3.511   2.690  1.2340  0.4516  1.3800
11575TIP3   OH256139   4.679   2.143   2.905 -0.5111 -0.0313 -0.2639
11575TIP3    H156140   4.614   2.081   2.872 -0.3515  0.3508 -1.3537
11575TIP3    H256141   4.749   2.088   2.938 -0.4015 -0.4514 -1.1517
11576TIP3   OH256142   0.133   0.404   2.499  0.1051  0.0102 -0.3752
11576TIP3    H156143   0.197   0.461   2.542 -0.6470  0.1039  0.6640
11576TIP3    H256144   0.180   0.322   2.485  0.9233  0.5768 -1.0732
11577TIP3   OH256145   4.852   4.712   3.924  0.6414  0.6861 -0.4170
11577TIP3    H156146   4.804   4.708   4.006  0.9229 -1.1359 -0.3028
11577TIP3    H256147   4.787   4.738   3.858 -0.3030 -0.8490 -0.1203
11578TIP3   OH256148   1.268   1.893  12.702 -0.4485  0.5386 -0.1030
11578TIP3    H156149   1.185   1.848  12.687 -0.0555 -0.1032 -0.4227
11578TIP3    H256150   1.320   1.873  12.624  0.5617 -0.3652  0.7737
11579TIP3   OH256151   2.722   2.272   0.622 -0.3320  0.4810  0.3378
11579TIP3    H156152   2.720   2.184   0.584  2.3931  0.5217 -0.0920
11579TIP3    H256153   2.774   2.323   0.560 -2.0377  2.5233  0.4561
11580TIP3   OH256154   1.715   0.137  11.946  0.2947 -0.1787  0.0130
11580TIP3    H156155   1.729   0.231  11.955  1.1191 -0.0983 -1.6561
11580TIP3    H256156   1.619   0.127  11.942  0.2028  0.8884 -1.9632
11581TIP3   OH256157   5.666   3.772  12.739 -0.2032 -0.0694  0.4084
11581TIP3    H156158   5.702   3.804  12.656 -0.7347  1.2349  0.6531
11581TIP3    H256159   5.606   3.842  12.767 -2.9344 -2.0822  0.0091
11582TIP3   OH256160   6.198   2.538   5.784 -0.0357 -0.8243  0.4832
11582TIP3    H156161   6.215   2.620   5.738  0.4306 -0.4779  1.2493
11582TIP3    H256162   6.111   2.512   5.756  0.3884 -0.8325 -0.8841
11583TIP3   OH256163   4.187   1.898  13.090  0.0486 -0.4840 -0.0493
11583TIP3    H156164   4.098   1.888  13.057 -0.3856 -0.9716  1.2033
11583TIP3    H256165   4.243   1.876  13.015 -0.8867 -3.4072 -0.0310
11584TIP3   OH256166   6.008   4.186  16.393 -0.9326  0.0773  0.0202
11584TIP3    H156167   5.959   4.119  16.439  0.3915 -0.4768  0.6892
11584TIP3    H256168   5.975   4.269  16.428  0.4732 -0.3314  2.5423
11585TIP3   OH256169   3.935   1.860  14.003  0.2004 -0.0010  0.3083
11585TIP3    H156170   3.913   1.899  14.088  0.6694 -0.3907  0.6146
11585TIP3    H256171   3.870   1.792  13.990 -0.0572  0.2610  0.2086
11586TIP3   OH256172   4.949   0.771   1.161  0.6621 -0.0592 -0.8822
11586TIP3    H156173   4.945   0.715   1.084  0.1590 -0.3818 -0.6226
11586TIP3    H256174   4.858   0.783   1.189  0.9328 -1.7629  0.9463
11587TIP3   OH256175   6.419   5.352  12.525  0.1976  0.1760  0.1595
11587TIP3    H156176   6.417   5.271  12.474 -0.5740 -0.3352  0.9778
11587TIP3    H256177   6.349   5.406  12.488  0.7008  0.4730 -0.3749
11588TIP3   OH256178   6.534   1.410   6.524  0.3387 -0.1573  0.2861
11588TIP3    H156179   6.583   1.488   6.551 -0.0568  0.1822  0.0336
11588TIP3    H256180   6.502   1.431   6.437 -0.3015 -0.3562  0.4723
11589TIP3   OH256181   2.704   3.279  12.087  0.2473  0.1208  0.2904
11589TIP3    H156182   2.788   3.323  12.075  0.1979  0.8343  2.1836
11589TIP3    H256183   2.695   3.223  12.010  2.4256  0.0617  0.0178
11590TIP3   OH256184   3.002   1.524   2.669 -0.5747 -0.6712  0.1685
11590TIP3    H156185   3.084   1.506   2.715 -0.7045 -1.2284  0.1950
11590TIP3    H256186   2.938   1.538   2.740 -0.6337 -0.8710  0.1562
11591TIP3   OH256187   4.572   0.777   2.712 -0.0405  0.4910 -0.4714
11591TIP3    H156188   4.633   0.734   2.773 -0.1852  0.9394 -0.0034
11591TIP3    H256189   4.512   0.707   2.686  0.2085  0.2223 -0.3411
11592TIP3   OH256190   1.415   1.029  16.503  0.9726 -0.5360 -0.1601
11592TIP3    H156191   1.483   0.964  16.520  1.4807 -0.0596 -0.3322
11592TIP3    H256192   1.394   1.018  16.411  1.0644 -0.4546 -0.1918
11593TIP3   OH256193   4.180   3.290  16.496 -0.7017 -0.1356  0.1227
11593TIP3    H156194   4.200   3.234  16.421 -0.8119 -1.4834  1.0682
11593TIP3    H256195   4.265   3.320  16.527 -0.1461 -3.4803  2.3400
11594TIP3   OH256196   2.339   5.516  13.490  0.5185 -0.0050  0.8302
11594TIP3    H156197   2.347   5.468  13.407 -0.6492  0.3790  0.4845
11594TIP3    H256198   2.304   5.452  13.551 -0.5290  0.2393  0.5046
11595TIP3   OH256199   5.294   5.007  14.772 -0.5726  0.1194 -0.2598
11595TIP3    H156200   5.233   5.044  14.836 -0.3629  1.3540 -0.7504
11595TIP3    H256201   5.253   5.023  14.687  0.5174  1.2257 -0.6227
11596TIP3   OH256202   5.247   4.507   2.149 -0.3548 -0.7799 -0.0281
11596TIP3    H156203   5.331   4.499   2.195  0.8998 -0.1209 -2.0659
11596TIP3    H256204   5.246   4.434   2.087 -0.3554  0.3114 -1.3666
11597TIP3   OH256205   3.290   1.145   1.240  0.1385 -0.0457  0.0097
11597TIP3    H156206   3.218   1.200   1.208  2.2704  2.5346 -0.7208
11597TIP3    H256207   3.368   1.186   1.204  1.9690 -3.2079  0.1057
11598TIP3   OH256208   0.956   0.348  14.382  0.4878  0.1299 -0.0299
11598TIP3    H156209   0.991   0.259  14.371  0.4498  0.1764 -0.5758
11598TIP3    H256210   0.957   0.385  14.293  1.6243  1.0991  0.3508
11599TIP3   OH256211   1.920   4.485   5.648  0.6075  0.1397  0.0030
11599TIP3    H156212   1.848   4.475   5.586  0.1346  0.9676  0.3992
11599TIP3    H256213   1.921   4.579   5.669  0.4756 -0.1772  1.5655
11600TIP3   OH256214   4.018   0.507   0.537 -0.2646 -0.0597 -0.2210
11600TIP3    H156215   4.076   0.575   0.503 -1.2552  2.2546  2.4436
11600TIP3    H256216   3.952   0.496   0.468 -0.0379  1.6239 -0.7531
11601TIP3   OH256217   4.961   2.564   2.724  0.0196 -0.2342  0.8398
11601TIP3    H156218   5.040   2.617   2.731  0.1016 -0.5571  3.3947
11601TIP3    H256219   4.890   2.628   2.712  0.5521  0.0864 -0.8841
11602TIP3   OH256220   5.222   5.697   3.474 -0.0721 -0.1047 -0.4068
11602TIP3    H156221   5.282   5.644   3.421  1.3249  0.1547  0.8197
11602TIP3    H256222   5.273   5.775   3.497 -0.9601  0.2283  0.5108
11603TIP3   OH256223   3.437   4.531  11.492 -0.1523  0.0891  0.0896
11603TIP3    H156224   3.477   4.456  11.448  0.0251 -0.7221  1.5788
11603TIP3    H256225   3.345   4.507  11.499  0.1204 -0.6335  1.7380
11604TIP3   OH256226   1.979   2.171   2.882 -0.0215 -0.3104  0.5424
11604TIP3    H156227   1.918   2.223   2.933 -0.7988 -2.1069  1.5280
11604TIP3    H256228   1.925   2.128   2.815  0.0143 -2.2400  1.6809
11605TIP3   OH256229   0.744   0.656   6.445 -0.1527  0.3618  0.3853
11605TIP3    H156230   0.671   0.596   6.429  0.8699 -0.3916 -1.8678
11605TIP3    H256231   0.822   0.604   6.425  0.9530  1.5360  1.4637
11606TIP3   OH256232   3.179   0.651   6.859  0.1718  0.2727 -0.0003
11606TIP3    H156233   3.231   0.677   6.783 -2.2976  1.9565 -1.2541
11606TIP3    H256234   3.173   0.730   6.912  1.1480 -0.6608  1.5754
11607TIP3   OH256235   3.773   4.521   1.644  0.4728  0.3517  0.4069
11607TIP3    H156236   3.793   4.463   1.571  0.3621  0.0544  0.6083
11607TIP3    H256237   3.826   4.599   1.629  2.6629 -0.8440  1.5200
11608TIP3   OH256238   2.717   1.989   1.773 -0.1136 -0.2520 -0.0460
11608TIP3    H156239   2.740   1.904   1.810  1.6762 -0.1579 -0.8519
11608TIP3    H256240   2.688   2.041   1.849 -1.8738 -1.7243  0.3675
11609TIP3   OH256241   4.567   4.842  15.775  0.0439  0.1603 -0.4362
11609TIP3    H156242   4.571   4.895  15.854  1.2239  0.9184 -0.9856
11609TIP3    H256243   4.657   4.815  15.759  0.0268  0.9754 -2.1446
11610TIP3   OH256244   5.282   5.183   3.325 -0.5487 -0.0888  0.0147
11610TIP3    H156245   5.215   5.128   3.365  0.3900 -0.4915  1.0816
11610TIP3    H256246   5.357   5.177   3.384 -0.3038  2.0972  0.0106
11611TIP3   OH256247   0.351   5.730  17.468 -0.0721 -0.0306 -0.1582
11611TIP3    H156248   0.383   5.741  17.379  0.4525 -1.1307 -0.1253
11611TIP3    H256249   0.303   5.647  17.467  0.3243 -0.2876  0.6741
11612TIP3   OH256250   0.205   4.111   3.340  0.4756 -0.3953 -0.0372
11612TIP3    H156251   0.292   4.088   3.305 -0.3875 -2.9287 -0.7651
11612TIP3    H256252   0.164   4.162   3.271  1.9075  2.2826  0.9744
11613TIP3   OH256253   2.924   0.635  16.581  0.0756  0.2510 -0.2355
11613TIP3    H156254   3.006   0.606  16.542  0.3243 -0.3009  0.6807
11613TIP3    H256255   2.915   0.726  16.552  0.3147 -0.0985 -1.4541
11614TIP3   OH256256   5.711   6.025   4.419  0.3822 -0.0119  0.1756
11614TIP3    H156257   5.697   5.977   4.500 -1.4526 -0.5334 -0.4045
11614TIP3    H256258   5.635   6.084   4.413 -0.1204 -0.7885 -1.6912
11615TIP3   OH256259   3.989   6.676  15.998  0.1245  0.0601  0.2383
11615TIP3    H156260   4.032   6.609  16.051 -1.3718 -0.3358  1.0018
11615TIP3    H256261   3.911   6.633  15.964 -1.5897  1.7474  1.8197
11616TIP3   OH256262   3.430   4.526   0.513  0.0845  0.0048 -0.3614
11616TIP3    H156263   3.392   4.480   0.439 -0.5949  2.1741 -1.4311
11616TIP3    H256264   3.523   4.504   0.510 -0.0805 -0.6089 -1.3347
11617TIP3   OH256265   0.577   0.576   5.403 -0.0237 -0.3645  0.1261
11617TIP3    H156266   0.526   0.635   5.458  2.0226 -0.5317  2.3410
11617TIP3    H256267   0.512   0.517   5.364 -1.6549  0.4787  1.4771
11618TIP3   OH256268   4.569   0.493  13.082  0.2159 -0.3608  0.4575
11618TIP3    H156269   4.665   0.490  13.089  0.5100  0.8260 -1.9514
11618TIP3    H256270   4.547   0.586  13.086 -0.5902 -0.4515 -0.9945
11619TIP3   OH256271   4.783   2.427  16.854 -0.1276  0.3287  0.3218
11619TIP3    H156272   4.711   2.483  16.827  0.5353  1.3948  0.6994
11619TIP3    H256273   4.741   2.354  16.899 -0.9948  0.6143  0.0034
11620TIP3   OH256274   3.029   2.009   2.595  0.0214  0.3082 -0.3414
11620TIP3    H156275   3.117   2.040   2.576 -0.3633  1.4617 -0.3294
11620TIP3    H256276   2.998   2.067   2.665 -1.0672  0.5088 -0.9594
11621TIP3   OH256277   3.768   2.841   3.680 -0.0941 -0.5654 -0.2459
11621TIP3    H156278   3.739   2.769   3.737 -0.8192  0.3133  0.5273
11621TIP3    H256279   3.716   2.916   3.708  0.0026  0.0557 -1.6573
11622TIP3   OH256280   1.551   1.428  11.895  0.0732  0.1343  0.3997
11622TIP3    H156281   1.573   1.470  11.812  0.2616 -1.6364 -0.4886
11622TIP3    H256282   1.628   1.444  11.951  2.0804 -2.5609 -1.3523
11623TIP3   OH256283   1.143   6.714   0.992  0.3555 -0.2546 -0.3088
11623TIP3    H156284   1.233   6.747   0.979  0.3072 -0.0492 -0.1345
11623TIP3    H256285   1.128   6.722   1.086 -0.1195  0.4350 -0.4338
11624TIP3   OH256286   2.461   5.510   2.741 -0.0282  0.1181  0.0280
11624TIP3    H156287   2.486   5.429   2.695  0.6770  0.8012 -0.8357
11624TIP3    H256288   2.369   5.498   2.764 -0.2809 -0.4238 -1.2017
11625TIP3   OH256289   1.978   1.001  10.627  0.7416 -0.3878 -0.2877
11625TIP3    H156290   1.952   1.093  10.618 -0.8059 -0.6465  1.0191
11625TIP3    H256291   1.896   0.952  10.618  1.5327 -1.6509 -0.9027
11626TIP3   OH256292   0.879   2.045   5.672  0.3168 -0.1950  0.0048
11626TIP3    H156293   0.872   2.131   5.713 -2.2722 -0.5481  0.4528
11626TIP3    H256294   0.822   2.050   5.595 -0.5421 -1.7384  0.5008
11627TIP3   OH256295   2.289   1.136   3.872  0.3309 -0.1714 -0.2373
11627TIP3    H156296   2.355   1.133   3.942  1.1646 -1.2190 -1.0315
11627TIP3    H256297   2.264   1.045   3.859  0.0106  0.0417 -1.1331
11628TIP3   OH256298   4.171   4.561  15.009  0.3685  0.0087  0.2852
11628TIP3    H156299   4.098   4.499  15.011  0.2371  0.1702  0.9281
11628TIP3    H256300   4.244   4.512  15.047  0.0457  0.4947  1.5978
11629TIP3   OH256301   1.685   0.869  17.147 -0.3225  0.3677 -0.0672
11629TIP3    H156302   1.686   0.951  17.098 -1.9554  0.7928  0.5367
11629TIP3    H256303   1.592   0.850  17.160  0.0425 -0.6302  1.3500
11630TIP3   OH256304   3.221   5.799  12.730  0.2693  0.0750  0.7438
11630TIP3    H156305   3.187   5.713  12.756  0.8599 -0.3499  0.1427
11630TIP3    H256306   3.298   5.812  12.784  1.0920 -0.4964 -0.2366
11631TIP3   OH256307   4.492   0.752  13.087  0.1798  0.1203 -1.0890
11631TIP3    H156308   4.488   0.782  12.996 -0.3084 -0.1588 -1.1635
11631TIP3    H256309   4.420   0.797  13.130  0.0571 -0.1806 -0.9752
11632TIP3   OH256310   4.833   4.733  15.851 -0.5367 -0.6845  0.0319
11632TIP3    H156311   4.791   4.704  15.770  0.3165 -2.1377  0.0775
11632TIP3    H256312   4.884   4.810  15.825  0.9814 -2.0364 -1.2083
11633TIP3   OH256313   2.233   2.583  14.906 -0.1549 -0.7972  0.0539
11633TIP3    H156314   2.236   2.616  14.996 -0.5582  0.3629 -0.3409
11633TIP3    H256315   2.185   2.500  14.913 -0.0409 -0.8067  0.9179
11634TIP3   OH256316   6.264   3.927  12.731  0.1839 -0.2101  0.3619
11634TIP3    H156317   6.290   3.958  12.817  0.4797 -2.3066  1.1049
11634TIP3    H256318   6.236   3.837  12.746  0.9874 -0.9044 -1.8365
11635TIP3   OH256319   5.394   5.735   0.026  0.1431  0.2119 -0.2442
11635TIP3    H156320   5.374   5.825   0.049  0.0701 -0.1490  1.2359
11635TIP3    H256321   5.324   5.684   0.067  1.0514 -0.6267  0.3146
11636TIP3   OH256322   1.730   1.418  15.036 -0.0132 -0.3671 -0.1913
11636TIP3    H156323   1.693   1.376  15.113  0.2394 -0.8089 -0.3115
11636TIP3    H256324   1.654   1.452  14.988 -0.1029  1.0460  0.8895
11637TIP3   OH256325   4.422   1.195  14.239 -0.2443  1.0803  0.4921
11637TIP3    H156326   4.356   1.162  14.178  0.5148 -0.2226  0.3351
11637TIP3    H256327   4.375   1.208  14.321 -0.4854 -1.1591  0.7855
11638TIP3   OH256328   4.059   4.104  14.066  0.6026 -0.0640 -0.2360
11638TIP3    H156329   4.076   4.165  14.137 -1.1014 -0.1183  0.2547
11638TIP3    H256330   3.970   4.073  14.081  1.0562 -1.9120 -1.0450
11639TIP3   OH256331   3.608   0.081  16.475 -0.5798 -0.2691 -0.1011
11639TIP3    H156332   3.691   0.124  16.453 -0.8102 -0.0854 -0.6263
11639TIP3    H256333   3.628   0.028  16.552  0.5890 -2.0101 -1.5413
11640TIP3   OH256334   2.141   1.651  15.859  0.0214 -0.2824  0.2491
11640TIP3    H156335   2.172   1.565  15.889  1.5064  0.9547  2.5344
11640TIP3    H256336   2.162   1.652  15.766  2.5926 -1.3857  0.7142
11641TIP3   OH256337   5.285   1.120   5.104  0.1668 -0.2819 -0.2200
11641TIP3    H156338   5.372   1.159   5.115  0.4508 -0.7419 -0.7724
11641TIP3    H256339   5.230   1.191   5.072  0.8354 -0.4611 -1.8588
11642TIP3   OH256340   5.580   6.679  11.325 -0.5795 -0.0057 -0.0778
11642TIP3    H156341   5.639   6.751  11.348  0.5931 -0.6619 -0.9094
11642TIP3    H256342   5.527   6.713  11.253 -0.0055  0.0205 -0.4920
11643TIP3   OH256343   1.856   1.798   2.687 -0.3294 -0.6829  0.5527
11643TIP3    H156344   1.908   1.787   2.767  0.8895 -1.4844 -0.3242
11643TIP3    H256345   1.790   1.729   2.692  0.5407 -1.5653  0.2910
11644TIP3   OH256346   5.772   2.864   3.915 -0.2994 -0.3305 -0.3746
11644TIP3    H156347   5.753   2.807   3.840 -3.6275 -0.7305  0.5855
11644TIP3    H256348   5.781   2.951   3.877 -0.0896 -0.7876 -1.4085
11645TIP3   OH256349   4.206   4.019  12.462  0.2094  0.2125  0.0721
11645TIP3    H156350   4.120   4.027  12.419 -0.0184  2.8058  0.8184
11645TIP3    H256351   4.188   4.039  12.554  1.0269 -3.2040  1.0979
11646TIP3   OH256352   2.394   2.355   5.226  0.2725  0.3999  0.8145
11646TIP3    H156353   2.374   2.286   5.162  0.2269 -0.3394  1.6006
11646TIP3    H256354   2.420   2.430   5.173  0.4000 -0.2460 -0.0701
11647TIP3   OH256355   2.626   3.773   5.990 -0.1898 -0.1351 -0.7012
11647TIP3    H156356   2.697   3.725   6.033  0.1386  0.6791 -0.3083
11647TIP3    H256357   2.561   3.706   5.969  0.1197 -0.7039  0.1037
11648TIP3   OH256358   6.444   2.163   1.426 -0.0108  0.1860  0.1765
11648TIP3    H156359   6.427   2.097   1.359 -1.6613  0.2888  0.4663
11648TIP3    H256360   6.455   2.245   1.378  0.6565 -0.0422 -0.0780
11649TIP3   OH256361   6.250   6.447   5.705  0.3660  0.2439 -0.0249
11649TIP3    H156362   6.297   6.441   5.622  1.2406 -0.7735  0.5252
11649TIP3    H256363   6.263   6.538   5.733  1.5360  0.1398 -0.1711
11650TIP3   OH256364   0.085   2.016  15.246 -0.2474  0.5235 -0.0476
11650TIP3    H156365   0.055   1.952  15.311 -0.6838 -0.6957 -1.4010
11650TIP3    H256366   0.168   2.049  15.282  1.3237 -2.6431 -0.3990
11651TIP3   OH256367   5.207   2.587  13.518 -0.0151  0.3503  0.1971
11651TIP3    H156368   5.188   2.640  13.441 -1.8004  0.8758  0.9369
11651TIP3    H256369   5.148   2.511  13.510  1.2440 -0.6432  0.0410
11652TIP3   OH256370   3.433   3.172   5.144 -0.2573  0.5204  0.8900
11652TIP3    H156371   3.414   3.247   5.088 -0.8573 -1.1355 -1.2632
11652TIP3    H256372   3.352   3.159   5.194 -0.4229  0.8525  0.7130
11653TIP3   OH256373   2.151   5.733   3.120  0.2912  0.4488  0.4311
11653TIP3    H156374   2.227   5.731   3.178  0.5763  0.2280  0.0577
11653TIP3    H256375   2.076   5.732   3.179  0.5748  0.1501  0.7974
11654TIP3   OH256376   2.993   2.817  14.394  0.0140  0.2294 -0.0617
11654TIP3    H156377   2.951   2.860  14.319  0.6797 -1.2432 -1.3319
11654TIP3    H256378   3.081   2.855  14.398 -0.0385  0.3437  0.0047
11655TIP3   OH256379   6.645   1.137  13.104  0.2977  0.3793 -0.0842
11655TIP3    H156380   6.574   1.133  13.040  0.7258  0.5531 -0.5839
11655TIP3    H256381   6.687   1.222  13.087 -1.9780  2.3789  3.0340
11656TIP3   OH256382   0.165   0.651  15.750  0.3647  0.2378 -0.2812
11656TIP3    H156383   0.140   0.618  15.837  1.6785  0.4622  0.2023
11656TIP3    H256384   0.204   0.575  15.706 -2.1223 -0.4507 -1.4971
11657TIP3   OH256385   6.237   4.480  11.302  0.4699  0.5381  0.5201
11657TIP3    H156386   6.224   4.513  11.212  0.0821  0.6284  0.6043
11657TIP3    H256387   6.155   4.502  11.347  0.7080  0.5981  0.9296
11658TIP3   OH256388   5.927   0.559   0.047 -0.4754  0.2105 -0.2196
11658TIP3    H156389   5.926   0.524  -0.042 -0.6700  2.0583 -0.9940
11658TIP3    H256390   6.014   0.537   0.080 -0.5570 -0.8783 -0.6975
11659TIP3   OH256391   0.736   2.382  15.575  0.1946 -0.5395 -0.2110
11659TIP3    H156392   0.794   2.397  15.650 -0.0566  0.7972 -0.2617
11659TIP3    H256393   0.692   2.466  15.562  2.5344  0.3546 -3.7894
11660TIP3   OH256394   5.685   5.439   5.173 -0.0414  0.2007 -0.0897
11660TIP3    H156395   5.602   5.419   5.216  0.5826 -0.3514  0.8916
11660TIP3    H256396   5.688   5.379   5.099 -2.5686  3.2099 -2.9475
11661TIP3   OH256397   1.516   2.851  16.828  0.0661 -0.2598  0.9497
11661TIP3    H156398   1.603   2.885  16.848 -0.9809  2.6785  1.1278
11661TIP3    H256399   1.464   2.872  16.906 -0.9677 -1.2470  0.5530
11662TIP3   OH256400   6.286   5.678  16.503 -0.2308  0.0417  0.0256
11662TIP3    H156401   6.341   5.649  16.430  1.7335  1.1947  0.9693
11662TIP3    H256402   6.343   5.671  16.580 -0.8563  2.7566  0.8291
11663TIP3   OH256403   6.303   3.096   0.752  0.2652 -0.4818 -0.1348
11663TIP3    H156404   6.213   3.111   0.724  0.5267 -1.9287 -1.9406
11663TIP3    H256405   6.296   3.068   0.844 -1.3391 -2.4209 -0.7825
11664TIP3   OH256406   0.419   6.218  11.389 -0.6439 -0.2840 -0.1989
11664TIP3    H156407   0.425   6.130  11.426  1.3363  0.0634  0.4409
11664TIP3    H256408   0.357   6.210  11.316 -1.8674 -1.7848  0.9585
11665TIP3   OH256409   1.021   0.117  12.277 -0.0489  0.2296 -0.2276
11665TIP3    H156410   0.935   0.158  12.269 -0.4661 -0.1970  1.6681
11665TIP3    H256411   1.083   0.183  12.246 -1.0065  0.6818 -1.2349
11666TIP3   OH256412   4.491   1.156   6.456 -0.5148 -0.1518 -0.7041
11666TIP3    H156413   4.537   1.218   6.513  1.9719  0.2696 -2.9369
11666TIP3    H256414   4.400   1.184   6.458 -0.6623 -0.3304  3.1352
11667TIP3   OH256415   1.945   1.638   2.907 -0.0836 -0.2270 -0.4189
11667TIP3    H156416   1.904   1.649   2.993  0.1053  1.3068 -0.5101
11667TIP3    H256417   1.878   1.595   2.854 -0.6229 -0.0979  0.1531
11668TIP3   OH256418   3.640   5.047  13.667 -0.0182  0.2269  0.2520
11668TIP3    H156419   3.616   5.110  13.735  2.4736  1.9063 -0.3177
11668TIP3    H256420   3.711   4.996  13.705  1.3953  1.1738 -0.9815
11669TIP3   OH256421   5.510   3.616  17.182  0.2340 -0.0618  0.1946
11669TIP3    H156422   5.581   3.560  17.152 -0.2689 -0.3735 -0.4249
11669TIP3    H256423   5.431   3.566  17.163 -0.2307  0.9302 -0.5181
11670TIP3   OH256424   4.326   1.255  16.186 -0.2630  0.3540 -0.1886
11670TIP3    H156425   4.295   1.325  16.244  0.7182  0.7333 -0.0973
11670TIP3    H256426   4.247   1.216  16.151 -0.8503  0.8959  0.5001
11671TIP3   OH256427   0.285   5.371   1.235 -0.2343 -0.1927  0.0470
11671TIP3    H156428   0.307   5.464   1.222  0.5311 -0.1853  1.3019
11671TIP3    H256429   0.369   5.327   1.241 -0.5794 -0.7564  0.9536
11672TIP3   OH256430   6.215   1.210   6.039  0.3471  0.2609  0.0831
11672TIP3    H156431   6.178   1.157   5.967  1.2407 -1.0232  0.5226
11672TIP3    H256432   6.151   1.280   6.052 -1.2375 -1.0816 -0.0988
11673TIP3   OH256433   3.969   0.092   0.170 -0.1905  0.3385  0.3614
11673TIP3    H156434   4.016   0.159   0.221  0.5945  0.1741 -0.1298
11673TIP3    H256435   4.038   0.042   0.126 -0.7889 -0.5138  0.3626
11674TIP3   OH256436   3.608   0.332   5.145 -0.3135 -0.1318 -0.5479
11674TIP3    H156437   3.662   0.387   5.202 -2.7367 -0.5089  2.3436
11674TIP3    H256438   3.553   0.394   5.097 -0.7014  0.0664  0.1545
11675TIP3   OH256439   3.908   3.741  14.600 -0.6096 -0.3395 -0.0053
11675TIP3    H156440   3.875   3.668  14.652  0.1647  0.0883  1.1248
11675TIP3    H256441   3.918   3.813  14.663  2.8567 -0.5694 -0.1113
11676TIP3   OH256442   4.797   6.116  12.077 -0.3253 -0.2423 -0.6341
11676TIP3    H156443   4.727   6.181  12.085 -0.5889 -0.6637  0.8353
11676TIP3    H256444   4.824   6.120  11.985 -1.7302  0.4898 -1.0339
11677TIP3   OH256445   5.628   3.337   4.199  0.6216  0.5052  0.0323
11677TIP3    H156446   5.553   3.383   4.161 -0.5781 -0.9041  0.6261
11677TIP3    H256447   5.643   3.381   4.283 -0.5557 -0.1656  0.6234
11678TIP3   OH256448   2.041   5.908  12.637  0.2143  0.1378 -0.4100
11678TIP3    H156449   1.953   5.943  12.628  0.7915  2.2952  1.3255
11678TIP3    H256450   2.029   5.814  12.641 -1.9774  0.3591 -0.5112
11679TIP3   OH256451   5.667   5.813   0.521 -0.0240  0.0127 -0.1334
11679TIP3    H156452   5.661   5.816   0.617 -0.0542  0.6007 -0.1472
11679TIP3    H256453   5.760   5.823   0.503 -0.1021  0.7878 -0.1787
11680TIP3   OH256454   0.679   5.260  11.396 -0.4350 -0.5436  0.2091
11680TIP3    H156455   0.700   5.349  11.426  0.0597 -0.0294 -1.5814
11680TIP3    H256456   0.666   5.268  11.302  0.7800 -2.5719 -0.1970
11681TIP3   OH256457   3.823   5.794  17.338 -0.2273 -0.2527 -0.0634
11681TIP3    H156458   3.867   5.713  17.363  0.0654  0.2629  1.1641
11681TIP3    H256459   3.817   5.790  17.242  1.1442 -1.0227 -0.1335
11682TIP3   OH256460   0.041   2.043   4.978  0.0575  0.4983  0.2382
11682TIP3    H156461  -0.038   1.999   4.947 -0.8431  2.4212 -0.3765
11682TIP3    H256462   0.026   2.055   5.072  1.7334 -3.1907  1.1624
11683TIP3   OH256463   5.376   6.195  15.835  0.0019 -0.0201  0.0627
11683TIP3    H156464   5.442   6.134  15.870 -0.3854 -0.2803  0.3454
11683TIP3    H256465   5.380   6.183  15.741 -1.1216 -1.6076  0.1760
11684TIP3   OH256466   1.959   4.491  17.449  0.6232 -0.0306  0.2230
11684TIP3    H156467   2.015   4.414  17.434  0.2422 -0.4701  0.9901
11684TIP3    H256468   1.893   4.461  17.511 -1.7305 -0.1002 -2.1582
11685TIP3   OH256469   2.726   0.641   4.650 -0.1015 -0.3235  0.0741
11685TIP3    H156470   2.692   0.577   4.588 -1.2152  0.5257 -0.2430
11685TIP3    H256471   2.700   0.726   4.614  3.2463  0.5245 -0.6795
11686TIP3   OH256472   5.797   6.289  12.508  0.0954  0.0510 -0.3787
11686TIP3    H156473   5.808   6.377  12.474 -1.3594  0.3384 -0.1638
11686TIP3    H256474   5.793   6.300  12.603 -2.1702  0.0558 -0.4189
11687TIP3   OH256475   4.057   0.271   2.383  0.2437 -0.4365  0.6472
11687TIP3    H156476   4.110   0.349   2.367 -1.8064  1.4528  2.3516
11687TIP3    H256477   3.966   0.302   2.380 -0.6432 -1.8030  5.0554
11688TIP3   OH256478   1.315   3.617   2.190 -0.1566 -0.2971 -0.4406
11688TIP3    H156479   1.283   3.706   2.175  3.6415  1.4162  0.4450
11688TIP3    H256480   1.359   3.594   2.108  2.5762  0.5576  0.6511
11689TIP3   OH256481   5.572   3.382  11.659  0.1250 -0.3614  0.8979
11689TIP3    H156482   5.613   3.348  11.738 -1.0198 -2.8070  0.5293
11689TIP3    H256483   5.569   3.308  11.599 -0.9511  0.8587 -0.6566
11690TIP3   OH256484   4.336   2.845   2.655  0.0413  0.2597 -0.2804
11690TIP3    H156485   4.287   2.845   2.573  0.4004  0.3308 -0.5016
11690TIP3    H256486   4.297   2.915   2.707 -0.6153 -0.2176 -0.1282
11691TIP3   OH256487   2.544   6.060   2.526 -0.2561 -0.1372 -0.1504
11691TIP3    H156488   2.497   6.139   2.553  2.4958  0.9704  1.9225
11691TIP3    H256489   2.583   6.082   2.442  0.2469  0.6327  0.2727
11692TIP3   OH256490   1.451   6.586  15.235 -0.1970 -0.8140 -0.5277
11692TIP3    H156491   1.424   6.636  15.157  1.4879  2.1575  0.6027
11692TIP3    H256492   1.532   6.543  15.208  0.1605 -0.1293 -0.5870
11693TIP3   OH256493   1.349   6.695   2.809 -0.0634  0.5003 -0.3940
11693TIP3    H156494   1.363   6.711   2.716  0.4144  0.4903 -0.3236
11693TIP3    H256495   1.376   6.605   2.823  0.2982  0.6390 -0.1610
11694TIP3   OH256496   2.257   4.087  17.114 -0.2334 -0.5849 -0.1320
11694TIP3    H156497   2.175   4.117  17.075  0.4016 -0.4740 -1.4173
11694TIP3    H256498   2.248   3.992  17.121  0.1165 -0.7660 -1.7466
11695TIP3   OH256499   0.927   4.390   1.142  0.6976 -0.0865  0.3032
11695TIP3    H156500   0.966   4.410   1.227  2.0155 -0.0469 -0.2932
11695TIP3    H256501   0.987   4.327   1.103  0.4921  0.4375 -0.8876
11696TIP3   OH256502   0.088   3.340   6.261 -0.2014  0.6461  0.1519
11696TIP3    H156503   0.160   3.402   6.272 -1.3183  2.1956 -0.8040
11696TIP3    H256504   0.021   3.369   6.323 -1.0780  0.9880 -0.9138
11697TIP3   OH256505   6.646   3.281   5.885 -0.4355 -0.0454 -0.3941
11697TIP3    H156506   6.609   3.272   5.973 -2.0228  2.5529 -0.6994
11697TIP3    H256507   6.632   3.195   5.844  0.6965 -1.4365  1.9365
11698TIP3   OH256508   5.743   4.722  11.552 -0.6217 -0.4213 -0.0674
11698TIP3    H156509   5.769   4.744  11.641 -0.2696  0.6806 -0.4235
11698TIP3    H256510   5.825   4.724  11.502 -0.9724  0.1895 -0.6421
11699TIP3   OH256511   4.299   6.743   2.876  0.4775 -0.1415  0.0711
11699TIP3    H156512   4.204   6.732   2.872  0.2171  1.7287  0.3334
11699TIP3    H256513   4.330   6.666   2.925 -1.2242  0.6733  2.6021
11700TIP3   OH256514   3.436   5.130   1.772 -0.1939 -0.1156 -0.6203
11700TIP3    H156515   3.428   5.035   1.783 -0.3680 -0.1580 -1.1131
11700TIP3    H256516   3.505   5.155   1.834  0.2437 -0.6399 -0.8876
11701TIP3   OH256517   3.952   2.365  15.246 -0.0040 -0.2679 -0.2440
11701TIP3    H156518   3.887   2.295  15.237 -0.7106  0.2885  0.4562
11701TIP3    H256519   4.015   2.331  15.308 -1.8133  0.7145  2.3142
11702TIP3   OH256520   5.990   0.085  14.716  0.1720  0.1091 -0.3036
11702TIP3    H156521   5.941   0.105  14.637  0.2080  1.1241 -0.0837
11702TIP3    H256522   6.082   0.090  14.689  0.1935 -1.5652 -0.6625
11703TIP3   OH256523   4.792   6.691   4.715  0.6074  0.5108  0.6994
11703TIP3    H156524   4.782   6.707   4.809 -1.9091 -0.6953  0.7032
11703TIP3    H256525   4.704   6.700   4.680  1.4173  0.3830 -1.4921
11704TIP3   OH256526   6.293   1.420   1.147 -0.6897 -0.5766 -0.9083
11704TIP3    H156527   6.286   1.450   1.057  0.8934 -0.1367 -0.9148
11704TIP3    H256528   6.364   1.356   1.146  0.6769  0.8427  0.3438
11705TIP3   OH256529   1.254   4.505   5.457 -0.0608 -0.6857  0.1849
11705TIP3    H156530   1.245   4.429   5.515 -2.6228 -1.4336 -1.0393
11705TIP3    H256531   1.342   4.538   5.475 -0.2114 -1.6665  3.4841
11706TIP3   OH256532   0.637   5.081   2.953  0.0166 -0.4247 -0.4894
11706TIP3    H156533   0.610   5.034   2.875 -0.4166 -0.2669 -0.4347
11706TIP3    H256534   0.697   5.149   2.921 -0.3452 -0.2097 -0.7103
11707TIP3   OH256535   3.689   2.407  12.159  0.5485  0.6861 -0.3999
11707TIP3    H156536   3.607   2.365  12.136  0.4697  0.7211 -0.1859
11707TIP3    H256537   3.752   2.374  12.095  0.2742  0.9968 -0.8388
11708TIP3   OH256538   3.561   2.904   3.272 -0.6083  0.4181 -0.1923
11708TIP3    H156539   3.530   2.987   3.236  0.5029 -0.4236 -3.3812
11708TIP3    H256540   3.502   2.838   3.235 -0.4381 -0.4206  0.9580
11709TIP3   OH256541   2.573   1.405   2.297 -0.0374 -0.2029 -0.3798
11709TIP3    H156542   2.516   1.438   2.227  0.6855  0.6027 -0.5966
11709TIP3    H256543   2.661   1.427   2.269  0.3361 -0.7848  0.3146
11710TIP3   OH256544   6.693   1.877   4.011 -0.4744 -0.0330 -0.1717
11710TIP3    H156545   6.769   1.820   4.015 -1.6943 -1.7253 -0.0089
11710TIP3    H256546   6.670   1.892   4.103 -2.3488 -2.4609 -0.1262
11711TIP3   OH256547   6.257   3.680  12.503 -0.6453  0.0449 -0.2237
11711TIP3    H156548   6.229   3.702  12.592 -0.0707 -0.0930 -0.0016
11711TIP3    H256549   6.340   3.726  12.492 -0.4984 -0.2881 -0.5311
11712TIP3   OH256550   4.831   0.079   4.954  0.1797 -0.4913 -0.3133
11712TIP3    H156551   4.796   0.167   4.970  0.4119 -0.8717  2.8292
11712TIP3    H256552   4.926   0.089   4.964  0.1851 -1.1210  0.3591
11713TIP3   OH256553   2.811   2.275   1.882 -0.1694  0.3852 -0.5435
11713TIP3    H156554   2.782   2.316   1.801  0.0704  0.0407 -0.8112
11713TIP3    H256555   2.733   2.271   1.937 -1.1177 -2.1214 -1.9031
11714TIP3   OH256556   2.960   1.735  16.455 -0.3079  0.2405 -0.0354
11714TIP3    H156557   2.983   1.671  16.523 -1.8033 -0.2422  0.0433
11714TIP3    H256558   3.042   1.782  16.438  1.1320 -2.3395 -0.7994
11715TIP3   OH256559   0.813   3.386  13.830  0.3762 -0.2771 -0.1688
11715TIP3    H156560   0.738   3.351  13.782  0.4152 -0.3639 -0.1666
11715TIP3    H256561   0.887   3.332  13.802  0.4895 -0.0140 -0.3820
11716TIP3   OH256562   2.680   3.138  15.094  0.5591  0.3245 -0.0746
11716TIP3    H156563   2.606   3.077  15.083 -0.3737  1.4099  0.0223
11716TIP3    H256564   2.688   3.148  15.189  1.2571 -0.2656 -0.0584
11717TIP3   OH256565   3.470   2.865   2.043  0.3053  0.5478 -0.2285
11717TIP3    H156566   3.549   2.898   2.086 -0.8196  2.0552  0.8051
11717TIP3    H256567   3.405   2.935   2.055 -1.0264 -0.3920 -1.5481
11718TIP3   OH256568   3.607   6.323  15.856  0.2404  0.0885  0.1609
11718TIP3    H156569   3.697   6.332  15.888 -0.0852  0.8279  0.8640
11718TIP3    H256570   3.603   6.232  15.824  1.6936  0.4959 -1.3342
11719TIP3   OH256571   0.797   0.340  15.147  0.0973 -0.3316 -0.6529
11719TIP3    H156572   0.835   0.289  15.218  0.3062 -0.8554 -1.1363
11719TIP3    H256573   0.745   0.278  15.097  0.9881 -0.2712 -1.7090
11720TIP3   OH256574   4.074   1.195  15.885  0.8125  0.1906  0.3895
11720TIP3    H156575   4.119   1.277  15.905 -2.5107  1.8894  1.7388
11720TIP3    H256576   4.042   1.207  15.795  1.0032  0.0421  0.3024
11721TIP3   OH256577   4.238   6.731  13.319 -0.0212 -0.1676 -0.9642
11721TIP3    H156578   4.184   6.768  13.388  2.4971  1.4780  0.2780
11721TIP3    H256579   4.236   6.636  13.334  0.0799  0.1172  1.0955
11722TIP3   OH256580   1.168   1.836  11.752  0.2217  0.1956 -0.4452
11722TIP3    H156581   1.223   1.761  11.774  0.4469  0.5829  0.3633
11722TIP3    H256582   1.228   1.911  11.751 -0.1491  0.4990 -0.3712
11723TIP3   OH256583   2.430   4.708   3.783 -0.2048 -0.2857  0.8234
11723TIP3    H156584   2.524   4.697   3.789 -0.3510 -1.5328  1.2119
11723TIP3    H256585   2.394   4.622   3.806 -1.3915 -0.2520 -0.7051
11724TIP3   OH256586   4.085   4.380  11.206 -0.3399  0.5155 -0.5236
11724TIP3    H156587   3.995   4.404  11.230  0.0213  0.8190  0.5638
11724TIP3    H256588   4.081   4.285  11.193 -0.4973  0.2574  1.1288
11725TIP3   OH256589   1.399   2.532   0.538 -0.1077  0.4742 -0.0773
11725TIP3    H156590   1.352   2.603   0.496 -1.2195  1.0190  1.9585
11725TIP3    H256591   1.444   2.487   0.467 -0.2411  2.5463 -1.5496
11726TIP3   OH256592   6.333   0.169   2.950  0.2585  0.3680 -0.4920
11726TIP3    H156593   6.412   0.126   2.916  0.6724  0.2276  0.5822
11726TIP3    H256594   6.354   0.188   3.041 -0.9310  0.4021 -0.2060
11727TIP3   OH256595   4.750   2.491   3.515  0.5698  0.1405 -0.1117
11727TIP3    H156596   4.812   2.534   3.456  0.4866  0.1829 -0.1684
11727TIP3    H256597   4.713   2.562   3.567 -1.2925  0.4629 -1.7778
11728TIP3   OH256598   1.259   1.600  15.385 -0.0367  0.5897 -0.2099
11728TIP3    H156599   1.184   1.626  15.439  0.1543  0.5570  0.0715
11728TIP3    H256600   1.241   1.509  15.362  1.3722 -0.4255  2.3852
11729TIP3   OH256601   3.283   4.152   4.450  0.0927  0.9368  0.5347
11729TIP3    H156602   3.351   4.102   4.494  2.2629  2.2986 -1.0285
11729TIP3    H256603   3.201   4.109   4.474  1.6753 -2.6314  0.1821
11730TIP3   OH256604   5.207   0.402   4.473  0.6590 -0.3082  0.3098
11730TIP3    H156605   5.158   0.460   4.531  0.4994  3.4842 -3.1536
11730TIP3    H256606   5.156   0.400   4.392  1.8066 -3.7234 -0.5227
11731TIP3   OH256607   1.611   5.945   3.893 -0.6137  0.7305  0.1362
11731TIP3    H156608   1.519   5.970   3.894 -1.1484 -1.0687  0.8393
11731TIP3    H256609   1.643   5.968   3.980 -1.3487 -1.6282  1.1191
11732TIP3   OH256610   1.954   5.442   1.631 -0.0455 -0.1819 -0.5660
11732TIP3    H156611   1.998   5.489   1.703  1.6270 -0.3169 -1.4545
11732TIP3    H256612   1.988   5.483   1.552 -1.3838 -0.4661 -1.3084
11733TIP3   OH256613   4.681   1.503  17.026  0.0527  0.1611 -0.5544
11733TIP3    H156614   4.640   1.509  16.939  1.5952 -1.9092 -1.4983
11733TIP3    H256615   4.753   1.566  17.021  1.2997 -1.2793 -1.5214
11734TIP3   OH256616   3.740   1.709  13.201  0.1251  0.2531 -0.3172
11734TIP3    H156617   3.696   1.624  13.196 -1.9049  1.1015  1.4110
11734TIP3    H256618   3.682   1.769  13.154  0.3684  1.0703  0.3858
11735TIP3   OH256619   0.775   2.329  14.783 -0.0019  0.2916 -0.0771
11735TIP3    H156620   0.824   2.248  14.770  0.0497  0.3379 -0.1796
11735TIP3    H256621   0.774   2.370  14.696 -0.6097  0.0745 -0.1753
11736TIP3   OH256622   1.308   4.248   0.847  0.4758  0.4861  0.0610
11736TIP3    H156623   1.391   4.263   0.891  0.4357  0.5438  0.1178
11736TIP3    H256624   1.242   4.281   0.908  0.4054  0.3625  0.0533
11737TIP3   OH256625   6.736   6.735   4.857  0.3976 -0.5832  0.2463
11737TIP3    H156626   6.823   6.713   4.890  0.7274  1.0148  0.5045
11737TIP3    H256627   6.744   6.824   4.824 -1.1082 -0.4546  0.1510
11738TIP3   OH256628   4.743   1.885   1.877  0.3865 -0.9642  0.5926
11738TIP3    H156629   4.799   1.851   1.807 -1.6079 -0.1248 -1.5149
11738TIP3    H256630   4.725   1.975   1.852 -0.6491 -0.7329  2.0401
11739TIP3   OH256631   5.067   3.478   4.415  0.2815 -0.2380 -0.2882
11739TIP3    H156632   5.097   3.414   4.350  0.6384  0.3304 -0.7020
11739TIP3    H256633   5.031   3.550   4.362 -0.0029 -0.0421  0.1651
11740TIP3   OH256634   3.482   5.392   5.867  0.3520 -0.0297 -0.7634
11740TIP3    H156635   3.398   5.360   5.834 -1.1892  1.9664  0.9074
11740TIP3    H256636   3.517   5.446   5.796 -0.6173  0.4270 -0.9188
11741TIP3   OH256637   1.582   3.973  13.670 -0.1375  0.4879 -0.6026
11741TIP3    H156638   1.609   3.963  13.761  0.8167  2.9319 -0.5444
11741TIP3    H256639   1.486   3.963  13.672 -0.2005  1.1975  0.7769
11742TIP3   OH256640   3.062   3.375  13.558  0.7558  0.2754  0.2736
11742TIP3    H156641   3.008   3.384  13.636 -0.8918 -0.7399 -0.6972
11742TIP3    H256642   3.144   3.419  13.580 -0.2230  1.3112  2.0231
11743TIP3   OH256643   1.677   3.687  13.608  0.1115  0.0074  0.4674
11743TIP3    H156644   1.655   3.780  13.607 -1.6258 -0.2989  2.0799
11743TIP3    H256645   1.592   3.643  13.601  0.7600 -1.4093  1.1014
11744TIP3   OH256646   6.109   3.021   0.194  0.5489 -0.3680  0.2561
11744TIP3    H156647   6.179   3.082   0.169  0.9677 -0.6637  0.6929
11744TIP3    H256648   6.130   2.939   0.150 -0.6600  0.1012 -1.3064
11745TIP3   OH256649   0.202   6.501   2.592 -0.2670  0.7338 -0.1780
11745TIP3    H156650   0.169   6.505   2.502 -0.3450  0.4841 -0.1612
11745TIP3    H256651   0.257   6.579   2.600  1.6340 -0.3911 -1.2119
11746TIP3   OH256652   0.967   1.684  11.062 -0.0995  0.4636 -0.2480
11746TIP3    H156653   1.014   1.680  10.979 -1.0803 -1.0787 -0.7855
11746TIP3    H256654   0.887   1.732  11.041 -0.3368  0.0916 -0.2094
11747TIP3   OH256655   4.763   3.929   4.237 -0.3279  0.2368 -0.2722
11747TIP3    H156656   4.701   3.944   4.165 -1.5118  0.9886  0.8603
11747TIP3    H256657   4.742   3.998   4.301  1.4869  0.3215  0.2807
11748TIP3   OH256658   0.323   3.388  13.628 -0.2780 -0.3865  0.2737
11748TIP3    H156659   0.301   3.446  13.701 -2.3261  0.4548 -0.9212
11748TIP3    H256660   0.346   3.305  13.670 -0.7421  0.2554  1.8937
11749TIP3   OH256661   0.075   1.448   0.099  0.3685  0.4305 -0.2747
11749TIP3    H156662   0.145   1.438   0.164  0.8485  3.2946 -0.2109
11749TIP3    H256663   0.121   1.446   0.014  0.2830  0.4716 -0.3222
11750TIP3   OH256664   1.447   0.558  17.301  0.7393 -0.8537  0.4967
11750TIP3    H156665   1.447   0.593  17.212  1.6556  1.5635  1.3791
11750TIP3    H256666   1.381   0.610  17.347 -0.9738 -3.2204  0.8984
11751TIP3   OH256667   2.744   2.635  15.798  0.1968  0.0300  0.8086
11751TIP3    H156668   2.732   2.583  15.877 -1.6988  0.4156  0.8318
11751TIP3    H256669   2.798   2.709  15.825  0.8117 -0.6091  1.3707
11752TIP3   OH256670   4.093   2.108  12.160 -0.3158 -0.0246  0.1620
11752TIP3    H156671   4.107   2.104  12.254 -0.1120 -1.2915  0.1061
11752TIP3    H256672   4.155   2.174  12.129 -0.5297  0.5500  0.9327
11753TIP3   OH256673   4.633   3.398   1.066 -0.1336 -0.2880 -0.2222
11753TIP3    H156674   4.663   3.346   0.991 -1.3800 -0.8748 -0.3316
11753TIP3    H256675   4.654   3.344   1.142  0.8415  0.1703 -0.1409
11754TIP3   OH256676   3.203   0.744  14.763  0.2990  0.1863  0.4713
11754TIP3    H156677   3.278   0.723  14.819  2.2799  0.5144 -1.9116
11754TIP3    H256678   3.198   0.671  14.702 -0.6235  0.7346 -0.1297
11755TIP3   OH256679   0.675   5.125   5.481 -0.4221 -0.4047  0.0947
11755TIP3    H156680   0.588   5.126   5.440 -0.7683 -0.6167  0.7877
11755TIP3    H256681   0.681   5.210   5.524 -0.8562 -0.8883  1.1568
11756TIP3   OH256682   0.436   3.529   1.603 -0.3446 -0.3175  0.0138
11756TIP3    H156683   0.495   3.576   1.544  1.7297 -1.6778  0.8905
11756TIP3    H256684   0.441   3.577   1.686  0.7978 -1.2747  0.5377
11757TIP3   OH256685   4.617   0.306   5.537 -0.4908 -0.5712 -1.0771
11757TIP3    H156686   4.525   0.303   5.511 -1.4860  1.2198  1.7631
11757TIP3    H256687   4.661   0.350   5.465 -1.8606 -1.3504 -2.4408
11758TIP3   OH256688   4.795   4.426   3.347 -0.3146 -0.2733 -0.2685
11758TIP3    H156689   4.889   4.446   3.346 -0.1339 -1.0065  0.7014
11758TIP3    H256690   4.778   4.387   3.261  0.4828 -1.0349 -0.0939
11759TIP3   OH256691   1.835   0.676   0.483 -0.2331 -0.3659  0.2325
11759TIP3    H156692   1.750   0.674   0.441 -0.5946  0.3159  0.9016
11759TIP3    H256693   1.835   0.600   0.542 -0.3550 -0.3915  0.1980
11760TIP3   OH256694   3.746   1.389   1.770 -0.4415  0.0682  0.2606
11760TIP3    H156695   3.752   1.360   1.862 -1.8614  0.4974  0.5111
11760TIP3    H256696   3.657   1.368   1.744 -0.2076  0.4192 -0.8763
11761TIP3   OH256697   4.567   0.883  17.467  0.3368 -0.0363 -0.6958
11761TIP3    H156698   4.580   0.793  17.498  3.9059  0.5539  0.0417
11761TIP3    H256699   4.548   0.933  17.547 -3.5143 -0.2653 -1.3198
11762TIP3   OH256700   1.102   2.965  17.376  0.3416  0.4349 -0.3774
11762TIP3    H156701   1.030   2.957  17.439  0.2535  0.8029 -0.4275
11762TIP3    H256702   1.068   3.024  17.309  0.2582 -0.3391 -1.0305
11763TIP3   OH256703   4.031   0.638  11.965  0.0851 -0.4078  0.0158
11763TIP3    H156704   3.942   0.665  11.945 -0.2803 -0.7995  1.0606
11763TIP3    H256705   4.078   0.649  11.883 -0.8583  0.0539 -0.4811
11764TIP3   OH256706   5.884   5.692  15.214  0.0971 -0.4569 -0.1992
11764TIP3    H156707   5.847   5.603  15.217  1.2900 -1.0527 -1.7403
11764TIP3    H256708   5.938   5.698  15.293  1.1870 -1.6784 -0.8180
11765TIP3   OH256709   4.319   2.435   4.361  0.2519 -0.0193 -0.1645
11765TIP3    H156710   4.269   2.466   4.286  0.3946 -1.0465 -0.6942
11765TIP3    H256711   4.255   2.389   4.416  0.4578 -0.7134 -0.4908
11766TIP3   OH256712   1.083   4.700  12.477  1.1391 -0.3502 -0.3352
11766TIP3    H156713   1.139   4.741  12.412  1.3256 -0.7641 -0.4414
11766TIP3    H256714   1.058   4.616  12.437  0.0917  0.0146 -0.4771
11767TIP3   OH256715   0.830   2.595  13.925 -1.0201 -0.2525  0.8135
11767TIP3    H156716   0.922   2.610  13.903 -1.2561 -0.2176 -0.2123
11767TIP3    H256717   0.828   2.506  13.960 -0.4201  0.1790  1.9971
11768TIP3   OH256718   6.681   3.347  12.333  0.2925  0.0538 -0.8399
11768TIP3    H156719   6.587   3.365  12.325  0.3452  2.1738  1.8716
11768TIP3    H256720   6.722   3.409  12.273  0.0157  0.4280 -0.6476
11769TIP3   OH256721   5.079   6.467   2.874 -0.3973 -0.5759 -0.3402
11769TIP3    H156722   5.027   6.519   2.936  0.3758  0.7091 -0.7089
11769TIP3    H256723   5.018   6.444   2.804 -0.6065  0.5099 -0.5424
11770TIP3   OH256724   4.258   0.690   1.327  0.3649 -0.1002 -0.4626
11770TIP3    H156725   4.189   0.672   1.390  1.7802  0.6104  1.3714
11770TIP3    H256726   4.216   0.743   1.259 -1.5829 -2.2593 -1.0700
11771TIP3   OH256727   3.219   4.840  10.249  0.3485  0.4262 -0.0327
11771TIP3    H156728   3.276   4.785  10.195  0.0934 -0.8226  0.9252
11771TIP3    H256729   3.208   4.791  10.330 -0.6584  1.4743  0.4973
11772TIP3   OH256730   0.764   0.440   3.228  0.4879  0.2476 -0.4569
11772TIP3    H156731   0.799   0.529   3.221  1.7067 -0.2442 -0.8274
11772TIP3    H256732   0.761   0.423   3.322  0.3690  0.6372 -0.3882
11773TIP3   OH256733   4.677   5.521  11.549  0.5310 -0.1734  0.2303
11773TIP3    H156734   4.721   5.599  11.514 -2.3904  1.6371  0.3207
11773TIP3    H256735   4.665   5.540  11.642  1.1190 -1.4412  0.5850
11774TIP3   OH256736   2.379   6.425   3.392 -0.5255 -0.4200  0.7496
11774TIP3    H156737   2.447   6.362   3.369  1.5835  1.7089  0.8054
11774TIP3    H256738   2.398   6.502   3.339 -1.9682  0.8088  1.9012
11775TIP3   OH256739   2.232   5.098   2.735  0.9618  0.0611  0.1454
11775TIP3    H156740   2.249   5.161   2.665  0.2735  1.5852  1.3024
11775TIP3    H256741   2.188   5.025   2.691 -0.1098  1.2918 -0.9072
11776TIP3   OH256742   2.800   1.421  10.969  0.1711  0.1474 -0.2065
11776TIP3    H156743   2.828   1.330  10.984 -0.2311 -0.0066 -0.3777
11776TIP3    H256744   2.881   1.471  10.969  0.4203 -0.2506 -0.3821
11777TIP3   OH256745   3.637   4.570  13.339 -0.0994  0.2969  0.6339
11777TIP3    H156746   3.718   4.518  13.343 -0.8406 -0.8883  0.4672
11777TIP3    H256747   3.582   4.535  13.409 -1.6408 -0.9416 -1.1112
11778TIP3   OH256748   6.005   3.876   4.226 -0.6217  0.4785 -0.5209
11778TIP3    H156749   5.929   3.922   4.260  0.3299  2.1860 -0.5937
11778TIP3    H256750   6.001   3.890   4.131 -0.6454 -0.1254 -0.6142
11779TIP3   OH256751   3.975   0.378   5.810 -0.4304 -0.7901  0.7814
11779TIP3    H156752   4.069   0.395   5.824 -0.6789  0.3534  1.2303
11779TIP3    H256753   3.954   0.309   5.873  0.6724 -3.1080 -1.2209
11780TIP3   OH256754   0.700   0.495   1.841 -0.0647 -0.4918  1.4657
11780TIP3    H156755   0.670   0.515   1.929  0.5466 -0.8824  1.7653
11780TIP3    H256756   0.635   0.434   1.806 -0.9012  0.4959  1.2366
11781TIP3   OH256757   4.039   1.775  15.204  0.0300 -0.3322  0.5579
11781TIP3    H156758   3.947   1.754  15.218 -0.1160 -0.3177 -0.3453
11781TIP3    H256759   4.066   1.818  15.286 -0.0568 -2.5987  1.8565
11782TIP3   OH256760   1.848   1.730   3.632 -0.1416 -0.0337  0.4665
11782TIP3    H156761   1.866   1.641   3.664  1.5054  0.6680  1.6228
11782TIP3    H256762   1.808   1.774   3.707 -1.2696  0.1365 -0.2149
11783TIP3   OH256763   2.927   1.988   3.964 -0.5088  0.5963  0.1521
11783TIP3    H156764   2.834   2.001   3.948 -0.6780  0.6586  1.0938
11783TIP3    H256765   2.971   2.055   3.912 -0.8939 -0.2477 -1.3237
11784TIP3   OH256766   1.168   1.542  12.194 -0.4672 -0.0125  0.6654
11784TIP3    H156767   1.116   1.535  12.114 -1.1316 -0.0949  1.0929
11784TIP3    H256768   1.209   1.628  12.189  0.5037 -0.5183 -0.3506
11785TIP3   OH256769   6.131   5.271  10.980  0.4954 -0.2029  0.3920
11785TIP3    H156770   6.162   5.340  10.922  0.1964 -1.2576 -1.0722
11785TIP3    H256771   6.132   5.192  10.926  0.9389 -1.3821  2.0484
11786TIP3   OH256772   6.231   1.574  15.191  0.3804 -0.6360  0.5901
11786TIP3    H156773   6.242   1.667  15.210  0.5001 -0.4741 -0.2507
11786TIP3    H256774   6.137   1.561  15.187  0.3701 -0.2377 -0.7624
11787TIP3   OH256775   1.840   4.652  15.556 -0.3359 -0.8055  0.1351
11787TIP3    H156776   1.838   4.600  15.475  0.7403  1.2014 -1.2448
11787TIP3    H256777   1.925   4.695  15.555 -1.3801  1.4220  0.9023
11788TIP3   OH256778   5.788   1.442  17.045  0.0072 -0.2088 -0.0842
11788TIP3    H156779   5.748   1.456  17.131  0.0526 -0.5200 -0.0101
11788TIP3    H256780   5.762   1.519  16.993  2.8307  1.8187  1.2260
11789TIP3   OH256781   4.798   2.453  13.143  0.0000  0.1725 -0.5051
11789TIP3    H156782   4.836   2.541  13.141  0.6731 -0.1199 -0.8790
11789TIP3    H256783   4.704   2.468  13.153  0.2283  0.8991  0.8852
11790TIP3   OH256784   5.625   6.313   2.032 -0.3488  0.5904 -0.2182
11790TIP3    H156785   5.644   6.280   2.120 -1.3127  0.6874  0.0421
11790TIP3    H256786   5.556   6.255   1.999  0.5171  0.0970 -1.2176
11791TIP3   OH256787   6.389   5.885   4.900  0.2718 -0.0947 -0.4282
11791TIP3    H156788   6.466   5.828   4.903 -0.3735 -0.9773 -0.0264
11791TIP3    H256789   6.405   5.949   4.969  0.6346 -0.2927 -0.3248
11792TIP3   OH256790   6.330   2.367  12.528 -0.2650  0.4108  0.0203
11792TIP3    H156791   6.371   2.295  12.577 -1.4996  0.2330  0.8506
11792TIP3    H256792   6.389   2.384  12.455  0.2518 -1.1965  0.0303
11793TIP3   OH256793   4.070   2.705   0.118  0.2090  0.3166  0.0894
11793TIP3    H156794   3.976   2.707   0.135  0.1721  0.5779 -0.1310
11793TIP3    H256795   4.098   2.619   0.148 -0.3681 -0.3747 -1.2679
11794TIP3   OH256796   1.211   2.028   5.091  0.0915  0.1719  0.7575
11794TIP3    H156797   1.154   1.972   5.039  0.9438  0.5093 -0.5972
11794TIP3    H256798   1.203   1.995   5.180 -2.2694  0.2674  0.6432
11795TIP3   OH256799   5.727   3.168   3.585  0.4624 -0.0373  0.0512
11795TIP3    H156800   5.678   3.236   3.633  1.5999 -0.0269  1.2795
11795TIP3    H256801   5.786   3.131   3.651  1.0226 -1.0939 -1.0105
11796TIP3   OH256802   1.817   4.334  12.562  0.2068 -0.2495 -0.5487
11796TIP3    H156803   1.823   4.364  12.653  1.8625 -0.2205 -0.6382
11796TIP3    H256804   1.728   4.299  12.554  0.1699 -0.6405  1.1950
11797TIP3   OH256805   3.687   6.450  16.520  0.2791  0.0834  0.4268
11797TIP3    H156806   3.717   6.361  16.540  0.2512  0.0202  0.1904
11797TIP3    H256807   3.669   6.489  16.606  0.8529  0.0581  0.5597
11798TIP3   OH256808   0.642   2.104   4.676 -0.5851 -0.2711  0.8188
11798TIP3    H156809   0.553   2.134   4.657 -0.2530 -0.1285 -0.6235
11798TIP3    H256810   0.639   2.010   4.661  0.1683  0.0873 -2.2541
11799TIP3   OH256811   6.369   2.154  12.206 -0.5938 -0.3416 -0.2837
11799TIP3    H156812   6.440   2.217  12.196 -0.9543 -0.1393 -1.8969
11799TIP3    H256813   6.411   2.068  12.199 -0.1319 -0.3185  1.6997
11800TIP3   OH256814   1.155   1.572  14.258  0.0698  0.0632  0.5572
11800TIP3    H156815   1.074   1.520  14.259  0.1170 -0.0042  0.9362
11800TIP3    H256816   1.136   1.645  14.198  0.1281 -0.5887 -0.2726
11801TIP3   OH256817   0.107   0.086   0.370  0.5959 -0.3969  0.0711
11801TIP3    H156818   0.141   0.097   0.459  0.8667 -1.0522  0.0527
11801TIP3    H256819   0.032   0.145   0.366  0.2210 -0.8097  0.9255
11802TIP3   OH256820   6.497   6.057  13.276 -0.1012  0.0834  0.3725
11802TIP3    H156821   6.547   6.135  13.251 -0.0026  0.2911  1.1809
11802TIP3    H256822   6.554   5.983  13.256  0.5620  0.3154  1.3024
11803TIP3   OH256823   3.279   5.851   0.419 -0.5132  0.0743 -0.0799
11803TIP3    H156824   3.234   5.769   0.440  0.1093 -0.3197 -0.2510
11803TIP3    H256825   3.210   5.908   0.386 -0.5864 -1.2398 -2.4070
11804TIP3   OH256826   0.769   2.633  16.784  0.3516  0.1956 -0.1412
11804TIP3    H156827   0.845   2.677  16.822  0.1881  0.6115 -0.2883
11804TIP3    H256828   0.694   2.668  16.833  0.2296 -0.0010 -0.1869
11805TIP3   OH256829   4.422   4.804   4.046  0.1986  0.1712  0.4189
11805TIP3    H156830   4.405   4.788   4.139 -1.8270  1.6705  0.3894
11805TIP3    H256831   4.366   4.879   4.025  2.4781  1.4838 -1.4383
11806TIP3   OH256832   6.360   0.652  16.485  0.2229 -0.0978  0.0471
11806TIP3    H156833   6.396   0.638  16.573  1.1636  0.5380 -0.2285
11806TIP3    H256834   6.272   0.686  16.500  0.3626 -0.0337  0.7461
11807TIP3   OH256835   6.396   0.169   0.041 -0.3752  0.1919  0.1715
11807TIP3    H156836   6.368   0.238  -0.019  0.5441 -0.2058 -0.7482
11807TIP3    H256837   6.464   0.210   0.095 -1.7205  0.7723  1.5114
11808TIP3   OH256838   3.910   3.077  15.520  0.2094  0.4130  0.4210
11808TIP3    H156839   3.937   3.093  15.611  0.5259  0.0173  0.4000
11808TIP3    H256840   3.835   3.135  15.507 -0.7680 -0.5533  1.4078
11809TIP3   OH256841   5.885   6.310   2.530  0.3377 -0.1407  0.1065
11809TIP3    H156842   5.882   6.224   2.488  2.2731 -0.2512  0.0969
11809TIP3    H256843   5.818   6.306   2.598  0.1051 -1.4990 -0.1748
11810TIP3   OH256844   0.434   5.271   2.974 -0.0750  0.4565  0.2251
11810TIP3    H156845   0.469   5.236   3.055  1.0631  2.0464  0.4894
11810TIP3    H256846   0.364   5.331   3.001  0.1188  0.7791  0.0238
11811TIP3   OH256847   5.734   5.528  15.863 -0.1207  0.4046 -0.3283
11811TIP3    H156848   5.705   5.474  15.936  2.4021 -0.0240  0.4339
11811TIP3    H256849   5.777   5.603  15.904  0.7556  0.4957 -1.3830
11812TIP3   OH256850   3.321   1.770   3.018 -0.4225 -0.3488  1.0445
11812TIP3    H156851   3.394   1.769   2.956  0.5463  1.5757  2.0494
11812TIP3    H256852   3.243   1.764   2.963  0.4124  0.9079 -0.3583
11813TIP3   OH256853   5.269   0.959   3.108  0.3966 -0.5752 -0.2671
11813TIP3    H156854   5.190   1.010   3.123  0.8965 -0.0064  0.5541
11813TIP3    H256855   5.330   1.021   3.069  0.8884 -0.6294  0.3961
11814TIP3   OH256856   6.041   0.587   2.696 -0.0712  0.3649  0.1757
11814TIP3    H156857   5.972   0.550   2.641  0.1801  1.1046 -0.6688
11814TIP3    H256858   6.122   0.573   2.645  0.1627  1.0827  0.3356
11815TIP3   OH256859   3.693   4.632   2.258  0.1901  0.1916 -0.2837
11815TIP3    H156860   3.604   4.642   2.225  0.1143 -1.7457 -0.8117
11815TIP3    H256861   3.683   4.578   2.337  0.9668 -1.0994 -1.0326
11816TIP3   OH256862   4.729   2.067  16.012 -0.4345  0.1737 -0.0202
11816TIP3    H156863   4.796   2.004  15.985  2.8301  3.2696  0.0090
11816TIP3    H256864   4.745   2.143  15.957 -4.2947  1.0192 -0.1982
11817TIP3   OH256865   0.653   1.675  13.931 -0.1157 -0.8976 -0.1483
11817TIP3    H156866   0.582   1.716  13.980  2.0549  1.0920  1.5266
11817TIP3    H256867   0.694   1.615  13.993  0.2665 -1.3282 -0.8059
11818TIP3   OH256868   0.082   5.890   2.317  0.3078  0.5913 -0.1570
11818TIP3    H156869   0.009   5.868   2.374  0.9241 -2.0055 -0.2216
11818TIP3    H256870   0.044   5.891   2.229  0.0339  1.0387 -0.0379
11819TIP3   OH256871   3.551   6.619  14.742 -0.2447 -0.5437 -0.6451
11819TIP3    H156872   3.531   6.635  14.834 -2.4805 -0.8591 -1.0061
11819TIP3    H256873   3.526   6.700  14.697  0.4702 -0.5242 -1.0308
11820TIP3   OH256874   5.971   3.275   2.464  0.6532 -0.3354 -0.5515
11820TIP3    H156875   6.052   3.321   2.482  1.1072 -0.3960 -2.3170
11820TIP3    H256876   5.915   3.339   2.420  0.6352 -0.9422 -1.4431
11821TIP3   OH256877   6.582   6.094   6.738  0.0431 -0.3464  0.0772
11821TIP3    H156878   6.623   6.178   6.718 -1.0285  0.0084 -0.7473
11821TIP3    H256879   6.627   6.031   6.682 -0.0913 -0.0754 -0.3375
11822TIP3   OH256880   3.735   0.104   3.968 -0.3263  0.4084  0.4066
11822TIP3    H156881   3.777   0.158   3.900  0.7890 -0.3219  0.5007
11822TIP3    H256882   3.647   0.088   3.934  0.2385 -0.0125 -0.9239
11823TIP3   OH256883   3.132   3.969  12.380  0.1864 -0.4045  0.0339
11823TIP3    H156884   3.052   3.937  12.337 -1.3440  2.1792  0.7392
11823TIP3    H256885   3.122   3.942  12.471 -0.6538  1.1230  0.4305
11824TIP3   OH256886   5.336   3.442  16.755  0.3853  0.1719  0.4616
11824TIP3    H156887   5.391   3.519  16.771  0.8381 -0.3366  1.4829
11824TIP3    H256888   5.377   3.373  16.807  0.6208 -1.0569 -1.2757
11825TIP3   OH256889   6.546   4.939  14.677  0.4744 -0.4048 -0.2723
11825TIP3    H156890   6.573   5.016  14.727 -1.0798 -1.7608  3.0147
11825TIP3    H256891   6.457   4.960  14.647  0.1180 -0.7820  0.4755
11826TIP3   OH256892   6.558   1.991   4.507  0.5256  0.1373 -0.0657
11826TIP3    H156893   6.584   2.058   4.570  2.0296 -1.4067  1.0690
11826TIP3    H256894   6.557   1.910   4.559  1.6559 -1.1717 -1.9798
11827TIP3   OH256895   4.152   6.619   0.344  0.3441  0.7328  0.6293
11827TIP3    H156896   4.112   6.559   0.281 -1.0549  1.1621  1.0751
11827TIP3    H256897   4.228   6.655   0.297  1.0491 -1.1411  0.2572
11828TIP3   OH256898   4.358   3.775  15.558 -0.3619  0.6341  0.7729
11828TIP3    H156899   4.310   3.760  15.640 -1.1679  1.0720  0.3828
11828TIP3    H256900   4.415   3.850  15.577 -1.1709  1.2814  0.6774
11829TIP3   OH256901   1.811   0.920  12.186 -0.2712 -0.4477 -0.6924
11829TIP3    H156902   1.794   0.936  12.093  0.6773 -0.0497 -0.8126
11829TIP3    H256903   1.820   0.825  12.193  2.4379 -0.3524 -1.5608
11830TIP3   OH256904   6.223   2.049   0.014  0.5345  0.2231  0.2188
11830TIP3    H156905   6.282   1.974   0.028 -0.5549 -0.7138 -0.0920
11830TIP3    H256906   6.218   2.058  -0.081 -0.4094 -0.2056  0.2129
11831TIP3   OH256907   3.569   0.927  12.695 -0.3094  0.0152  0.3577
11831TIP3    H156908   3.596   0.923  12.603 -1.4016 -0.1859  0.0243
11831TIP3    H256909   3.477   0.952  12.691  0.2608  2.6286  1.5255
11832TIP3   OH256910   1.242   0.684  14.335 -0.3994  0.0629  0.0819
11832TIP3    H156911   1.148   0.704  14.328 -0.2535  0.2156 -1.8213
11832TIP3    H256912   1.285   0.769  14.329 -0.1264  0.0587  1.5866
11833TIP3   OH256913   3.319   3.254  10.729 -0.1439  0.5946 -0.0370
11833TIP3    H156914   3.356   3.172  10.762 -0.4989  0.3086 -0.3365
11833TIP3    H256915   3.248   3.275  10.790  0.1845  0.8789  0.2519
11834TIP3   OH256916   3.871   3.461  14.343 -0.8423 -0.2229 -0.3379
11834TIP3    H156917   3.945   3.401  14.337  0.3801  1.1422  0.4577
11834TIP3    H256918   3.875   3.513  14.263  0.9696  1.8754  0.9892
11835TIP3   OH256919   1.330   6.256  15.119 -0.0042  0.0040 -0.1361
11835TIP3    H156920   1.256   6.316  15.126  0.6909  0.8967 -0.1557
11835TIP3    H256921   1.383   6.293  15.048 -0.1888 -1.3479 -1.0111
11836TIP3   OH256922   4.689   3.550  14.435 -0.4741 -0.3848 -0.4457
11836TIP3    H156923   4.712   3.632  14.479  1.2552 -0.7973 -0.4995
11836TIP3    H256924   4.603   3.566  14.397 -2.0085  0.0845  2.8461
11837TIP3   OH256925   2.018   2.168  12.024 -0.1026 -0.1826 -0.2350
11837TIP3    H156926   2.079   2.232  11.986 -0.3286  0.3214  0.2339
11837TIP3    H256927   2.048   2.159  12.115 -1.1900  0.6726  0.2303
11838TIP3   OH256928   4.874   5.160   0.257 -0.1695  0.1601  0.4884
11838TIP3    H156929   4.797   5.182   0.204  0.1051  0.6179  0.2703
11838TIP3    H256930   4.942   5.143   0.192 -0.7002 -2.7810  0.5697
11839TIP3   OH256931   4.899   0.406   2.314 -0.4143  0.4650 -0.4764
11839TIP3    H156932   4.994   0.406   2.309 -0.3066 -0.6075  1.0342
11839TIP3    H256933   4.877   0.475   2.377 -0.5449 -0.1809  0.1993
11840TIP3   OH256934   4.584   2.344  15.198 -0.1716  0.1524  0.3461
11840TIP3    H156935   4.599   2.385  15.113  0.6148  0.7647  0.7694
11840TIP3    H256936   4.490   2.323  15.198 -0.6570  2.1545  0.2022
11841TIP3   OH256937   3.544   4.704  17.354 -0.4514 -0.7581  0.4828
11841TIP3    H156938   3.525   4.683  17.445  0.4475 -2.9371  0.2430
11841TIP3    H256939   3.469   4.756  17.325 -0.8043 -0.1157  2.4087
11842TIP3   OH256940   1.128   2.170   2.891  0.4371  0.4099  0.6417
11842TIP3    H156941   1.107   2.164   2.797  0.6612  1.5355  0.5141
11842TIP3    H256942   1.070   2.106   2.932  0.5395 -0.3138 -0.2927
11843TIP3   OH256943   0.031   3.533  13.238 -0.2816  0.7008  0.0484
11843TIP3    H156944   0.061   3.461  13.293 -0.9806  1.5515  1.5875
11843TIP3    H256945  -0.062   3.517  13.225 -1.0581  2.6031  2.5603
11844TIP3   OH256946   4.542   0.072   0.883 -0.0115 -0.1809  0.0649
11844TIP3    H156947   4.447   0.065   0.869  0.0635 -0.6189 -0.2381
11844TIP3    H256948   4.552   0.152   0.935 -0.4567  0.5049 -0.8731
11845TIP3   OH256949   5.974   0.191   6.245 -0.5095  0.2351  0.8270
11845TIP3    H156950   5.952   0.227   6.331 -0.2161  0.7528  0.6946
11845TIP3    H256951   5.897   0.140   6.219  0.4129 -2.2159  2.5641
11846TIP3   OH256952   2.025   4.056   3.002 -0.3942 -0.4002 -0.5936
11846TIP3    H156953   1.988   4.141   3.026 -1.1085 -0.6757 -0.7079
11846TIP3    H256954   1.959   4.016   2.945 -0.3483 -1.2942 -0.0411
11847TIP3   OH256955   2.753   5.902  11.928 -0.2630  0.3898  0.0470
11847TIP3    H156956   2.668   5.893  11.884  0.7331 -0.6529 -1.7875
11847TIP3    H256957   2.747   5.844  12.003 -0.5197 -1.2297 -1.1717
11848TIP3   OH256958   5.304   4.691  17.390 -0.2793  0.0517  0.5659
11848TIP3    H156959   5.321   4.648  17.474  0.2184 -2.1358 -0.5842
11848TIP3    H256960   5.391   4.710  17.355 -0.4610  0.2724  0.2340
11849TIP3   OH256961   4.379   0.696  16.459 -0.5005 -0.4502 -0.3186
11849TIP3    H156962   4.472   0.690  16.478 -0.3040  2.1625 -0.0253
11849TIP3    H256963   4.370   0.668  16.368  1.1894  2.3720 -1.4944
11850TIP3   OH256964   2.358   6.491   4.870 -0.0901 -0.0308  0.0400
11850TIP3    H156965   2.278   6.507   4.920  0.2665  0.8472  0.3663
11850TIP3    H256966   2.403   6.422   4.918  0.2502  0.8084  0.9722
11851TIP3   OH256967   6.319   2.962  11.506 -0.0145  0.1641  0.0357
11851TIP3    H156968   6.284   2.877  11.533  0.1325  0.2995  0.6591
11851TIP3    H256969   6.242   3.019  11.499  0.0062  0.2859  0.7576
11852TIP3   OH256970   1.937   6.304   5.489  0.0868  0.1432  0.2082
11852TIP3    H156971   1.887   6.249   5.428  0.9788 -0.8621  0.3591
11852TIP3    H256972   2.016   6.329   5.441 -0.3772  1.4557  0.0853
11853TIP3   OH256973   1.596   4.714   0.311  0.3058  0.0799  0.1439
11853TIP3    H156974   1.641   4.701   0.228  1.0210  0.3377  0.4814
11853TIP3    H256975   1.587   4.627   0.349 -0.4408 -0.0948 -0.4047
11854TIP3   OH256976   1.881   1.258  16.117 -0.0749  0.3863  0.3882
11854TIP3    H156977   1.875   1.306  16.034  0.5905 -0.4711 -0.1668
11854TIP3    H256978   1.792   1.225  16.132 -0.0467 -0.0647 -0.3651
11855TIP3   OH256979   1.707   4.493  16.617  0.2318 -0.5708  0.2256
11855TIP3    H156980   1.775   4.478  16.551 -0.9553 -2.3206 -0.6686
11855TIP3    H256981   1.746   4.462  16.699  0.4943 -1.7019 -0.3057
11856TIP3   OH256982   4.647   1.110   4.250  0.3286 -0.0432  0.1708
11856TIP3    H156983   4.717   1.112   4.183  0.9661 -0.9753  0.7916
11856TIP3    H256984   4.589   1.040   4.222  0.3439 -0.1254  0.3444
11857TIP3   OH256985   5.465   1.583  16.590 -0.1867  0.0741 -0.3653
11857TIP3    H156986   5.510   1.535  16.660 -1.2978  0.5280  0.7090
11857TIP3    H256987   5.429   1.515  16.533  1.5632 -0.2994 -1.0921
11858TIP3   OH256988   3.626   0.534  14.117 -0.0999  0.1671  0.2085
11858TIP3    H156989   3.568   0.586  14.062 -0.1621  1.5518  1.5223
11858TIP3    H256990   3.629   0.580  14.200  2.4292 -0.1684  0.3971
11859TIP3   OH256991   2.684   0.962  14.414 -0.4055  0.2955 -0.1919
11859TIP3    H156992   2.615   1.013  14.372 -0.9354  0.9657  1.4487
11859TIP3    H256993   2.654   0.871  14.405 -2.1907  0.6322  1.5751
11860TIP3   OH256994   1.088   6.561   2.870  0.0602 -0.6957 -0.2902
11860TIP3    H156995   0.993   6.547   2.872  0.0154 -0.3788 -0.2502
11860TIP3    H256996   1.101   6.620   2.796  0.3031 -1.3402 -0.7707
11861TIP3   OH256997   1.472   0.758   3.141 -0.1407 -0.1523 -0.1210
11861TIP3    H156998   1.449   0.838   3.093  0.1112 -0.9829 -1.6989
11861TIP3    H256999   1.566   0.750   3.129 -0.1809 -0.7417 -0.0562
11862TIP3   OH257000   2.463   4.862  12.789  0.0087  0.2308  0.0394
11862TIP3    H157001   2.536   4.809  12.823  0.5165  1.2318  0.5467
11862TIP3    H257002   2.398   4.860  12.859 -0.4770 -0.6787 -0.4209
11863TIP3   OH257003   1.321   3.403   2.432  0.4803 -0.1674 -0.4020
11863TIP3    H157004   1.305   3.330   2.372 -1.2308  0.5130 -0.8364
11863TIP3    H257005   1.307   3.482   2.379 -0.3441  0.4518  0.6787
11864TIP3   OH257006   3.058   2.253   6.604  0.4314 -0.1723 -0.0704
11864TIP3    H157007   3.121   2.217   6.541 -0.3898 -0.9418 -0.4734
11864TIP3    H257008   3.040   2.341   6.572 -0.1592 -0.6369 -1.0675
11865TIP3   OH257009   0.097   4.362   0.715 -0.8350  0.4319  0.6209
11865TIP3    H157010   0.169   4.402   0.667  1.1834  0.0232  3.1015
11865TIP3    H257011   0.077   4.282   0.667  0.8760  0.1965  0.2485
11866TIP3   OH257012   0.851   4.152  13.020  0.1182 -0.1509 -0.5660
11866TIP3    H157013   0.879   4.065  12.993  1.6793  0.7489 -2.0269
11866TIP3    H257014   0.766   4.164  12.978  0.6768 -0.3380 -1.7858
11867TIP3   OH257015   5.489   0.324  16.991  0.0036  0.0415  0.1797
11867TIP3    H157016   5.456   0.350  16.905  2.6682 -0.8601 -1.2443
11867TIP3    H257017   5.450   0.238  17.007  0.6892 -0.5035 -0.9305
11868TIP3   OH257018   1.643   5.744  16.108  0.3752  0.3888  0.0151
11868TIP3    H157019   1.696   5.823  16.107  0.6470  0.2092 -1.4659
11868TIP3    H257020   1.636   5.718  16.016  0.0544 -1.1491  0.4435
11869TIP3   OH257021   0.782   3.689   0.731  0.0056  0.0229  0.3161
11869TIP3    H157022   0.756   3.660   0.819 -1.5108 -0.6483 -0.3282
11869TIP3    H257023   0.701   3.692   0.681  0.8419  0.4044 -1.0788
11870TIP3   OH257024   5.740   3.421   1.419  0.7167 -0.5065 -0.3023
11870TIP3    H157025   5.780   3.375   1.346  2.8920 -0.2706  0.6552
11870TIP3    H257026   5.675   3.359   1.454  0.8109 -1.2541 -1.3984
11871TIP3   OH257027   2.211   2.352  10.889 -0.1540 -0.2293 -0.6075
11871TIP3    H157028   2.260   2.324  10.812  1.3905 -0.6675  0.4808
11871TIP3    H257029   2.240   2.442  10.905 -1.2759  0.2398 -1.1456
11872TIP3   OH257030   2.144   1.585   1.955  0.0915  0.0127 -0.1944
11872TIP3    H157031   2.057   1.558   1.985 -0.0210 -0.1024 -0.6183
11872TIP3    H257032   2.128   1.665   1.905  0.6750  2.4324  3.1193
11873TIP3   OH257033   2.687   3.467   6.067  0.2107 -0.3614 -0.1946
11873TIP3    H157034   2.597   3.454   6.097 -0.1498  0.8640 -0.6912
11873TIP3    H257035   2.687   3.430   5.978  0.4753 -1.2590  0.1685
11874TIP3   OH257036   5.884   1.624   0.683  0.8678  0.2649  0.5020
11874TIP3    H157037   5.830   1.666   0.750  1.1194  0.6820  0.4431
11874TIP3    H257038   5.845   1.537   0.673 -1.0131  1.1921 -0.9275
11875TIP3   OH257039   2.489   3.210   3.013 -0.6957 -0.0819 -0.1154
11875TIP3    H157040   2.527   3.178   2.931 -0.1842  0.0216  0.0822
11875TIP3    H257041   2.413   3.154   3.028  0.2389 -1.2779  0.2779
11876TIP3   OH257042   5.632   5.072   0.971 -0.4623 -0.2648 -0.3176
11876TIP3    H157043   5.662   4.991   0.929 -1.6982 -0.4325 -0.9375
11876TIP3    H257044   5.614   5.131   0.898 -0.4455  0.2466  0.0892
11877TIP3   OH257045   5.267   0.850  12.151  0.2930 -0.1544 -0.2930
11877TIP3    H157046   5.174   0.841  12.130 -0.8152 -0.0143  3.7974
11877TIP3    H257047   5.305   0.889  12.072 -2.7467 -1.5734 -2.6952
11878TIP3   OH257048   0.493   3.584   6.889  0.2096 -0.3485 -0.0197
11878TIP3    H157049   0.499   3.628   6.805  0.1386 -3.6577 -1.9215
11878TIP3    H257050   0.406   3.544   6.890 -0.1497  0.3439  2.0652
11879TIP3   OH257051   4.597   4.137  14.801 -0.0735  0.3857 -0.0930
11879TIP3    H157052   4.642   4.216  14.832  0.6365  0.1620 -0.5305
11879TIP3    H257053   4.666   4.071  14.794 -0.4849  0.0038 -0.6723
11880TIP3   OH257054   4.480   1.341  13.845 -0.0183  0.0656 -0.4526
11880TIP3    H157055   4.418   1.414  13.848 -1.2852 -0.9609 -0.5337
11880TIP3    H257056   4.495   1.318  13.936 -2.4082 -1.7604 -0.3977
11881TIP3   OH257057   2.788   4.258   5.439 -0.5095 -0.2738 -0.0986
11881TIP3    H157058   2.755   4.274   5.350 -0.0492 -0.5233 -0.3180
11881TIP3    H257059   2.764   4.167   5.458  0.7202 -0.7264 -0.5730
11882TIP3   OH257060   0.005   3.991  11.736  0.0582 -0.2356  0.5632
11882TIP3    H157061  -0.054   3.995  11.661 -2.2584 -0.4150  2.2603
11882TIP3    H257062   0.042   4.079  11.742 -1.4673  0.4402  0.4967
11883TIP3   OH257063   3.861   5.198   4.373 -0.1071  0.0156 -0.2024
11883TIP3    H157064   3.910   5.127   4.415 -0.0883  1.0334  1.6102
11883TIP3    H257065   3.927   5.247   4.324  0.2368 -0.0699  0.1724
11884TIP3   OH257066   5.380   5.613  14.848  0.0785  0.1268  0.3528
11884TIP3    H157067   5.363   5.604  14.942  0.7946  0.4591  0.5219
11884TIP3    H257068   5.476   5.609  14.840  0.0773  1.0685 -0.2553
11885TIP3   OH257069   0.318   3.287  12.670 -0.4162 -0.5730 -0.2501
11885TIP3    H157070   0.233   3.309  12.634  0.0771 -0.1728 -1.2111
11885TIP3    H257071   0.342   3.362  12.725 -1.3015 -1.3135  1.2037
11886TIP3   OH257072   1.272   5.954   4.259 -0.2805  0.0933  0.4570
11886TIP3    H157073   1.222   5.936   4.338 -1.1400 -2.0670 -0.4838
11886TIP3    H257074   1.208   5.986   4.196 -0.4739 -2.0115 -0.5355
11887TIP3   OH257075   6.271   3.018  15.918 -0.5430 -0.2309  0.1479
11887TIP3    H157076   6.349   2.963  15.922 -1.6123 -1.8040  0.5450
11887TIP3    H257077   6.263   3.055  16.005  0.5790  1.1910 -0.3185
11888TIP3   OH257078   3.245   6.259  11.834  0.2441  0.4266 -0.2919
11888TIP3    H157079   3.315   6.315  11.868 -0.6228  1.4404 -0.0955
11888TIP3    H257080   3.213   6.211  11.911 -0.1703  0.9839 -0.1078
11889TIP3   OH257081   4.281   3.548   1.870  0.4512  0.3434 -0.2307
11889TIP3    H157082   4.295   3.564   1.964  0.3414 -1.3042  0.0895
11889TIP3    H257083   4.188   3.563   1.857  0.1063 -1.0904  0.3211
11890TIP3   OH257084   5.009   2.143   4.559 -0.3404 -0.4233 -0.0875
11890TIP3    H157085   5.046   2.062   4.524 -0.3374 -0.0119 -1.0871
11890TIP3    H257086   4.929   2.156   4.507  0.7471  1.3106 -1.4667
11891TIP3   OH257087   6.131   2.974  13.310 -0.5397 -0.5424 -0.2348
11891TIP3    H157088   6.095   3.010  13.229 -0.6745  1.8984  0.8007
11891TIP3    H257089   6.092   3.028  13.379  1.7021 -0.6572  1.2407
11892TIP3   OH257090   1.366   5.582  16.937  0.1999  0.1736 -0.0593
11892TIP3    H157091   1.390   5.496  16.902 -1.4937 -1.0172  1.5086
11892TIP3    H257092   1.438   5.639  16.909  0.5986 -1.3485 -2.5371
11893TIP3   OH257093   0.060   0.474   0.392 -0.0838 -0.0357  0.2457
11893TIP3    H157094   0.023   0.561   0.375 -0.5044 -0.1288  0.6533
11893TIP3    H257095   0.000   0.413   0.350 -0.8460 -0.2325  1.5423
11894TIP3   OH257096   0.204   3.728  13.296 -0.1142  0.1266 -0.2932
11894TIP3    H157097   0.220   3.748  13.204 -1.9092 -0.4674 -0.7755
11894TIP3    H257098   0.136   3.661  13.294 -0.0056 -0.0729  1.4756
11895TIP3   OH257099   0.351   4.123  14.577  0.5839 -0.1366  0.0223
11895TIP3    H157100   0.433   4.137  14.529  0.6390 -0.4438  0.0249
11895TIP3    H257101   0.347   4.028  14.591  0.1226 -0.1444 -0.1562
11896TIP3   OH257102   5.864   0.111  14.479  0.0219  0.2560 -0.8541
11896TIP3    H157103   5.887   0.165  14.404  0.5433 -1.5061 -2.0384
11896TIP3    H257104   5.815   0.037  14.442  0.5508 -0.8218  0.4748
11897TIP3   OH257105   1.097   6.238   5.515 -0.2864  0.0118  0.0260
11897TIP3    H157106   1.162   6.305   5.495  1.3542 -1.0085  1.5816
11897TIP3    H257107   1.023   6.286   5.551  0.2708  1.0989 -0.2290
11898TIP3   OH257108   2.714   4.644   2.953  0.0551  0.4294  0.2306
11898TIP3    H157109   2.713   4.739   2.955  2.2193  0.4809  0.6697
11898TIP3    H257110   2.782   4.619   3.015  1.0361 -1.3257 -1.4539
11899TIP3   OH257111   2.419   3.070  13.325 -0.5699  0.1053  0.4917
11899TIP3    H157112   2.474   3.148  13.330 -2.7833  1.8479 -0.5567
11899TIP3    H257113   2.346   3.095  13.268 -1.0416 -2.9686 -0.4612
11900TIP3   OH257114   4.190   1.540  12.907  0.4901 -0.1949  0.3745
11900TIP3    H157115   4.245   1.524  12.984  0.2173 -0.3596  0.5362
11900TIP3    H257116   4.238   1.498  12.835  1.0359  0.4609  0.3421
11901TIP3   OH257117   0.292   2.639   5.896 -0.2623 -0.3116 -0.1263
11901TIP3    H157118   0.216   2.618   5.949 -0.5841 -1.3460 -0.9512
11901TIP3    H257119   0.258   2.651   5.807  0.4919 -0.5940 -0.4708
11902TIP3   OH257120   6.563   1.173  11.478 -0.0007 -0.1452  1.0178
11902TIP3    H157121   6.568   1.260  11.439  1.8635  0.6481  2.8878
11902TIP3    H257122   6.540   1.116  11.404  0.7957  1.6160 -0.6906
11903TIP3   OH257123   3.590   5.388   4.903 -0.6805 -0.1327 -0.0322
11903TIP3    H157124   3.664   5.416   4.850  0.3911 -1.6595  0.5881
11903TIP3    H257125   3.586   5.293   4.891 -1.6582 -0.2528  1.0392
11904TIP3   OH257126   0.259   0.740  12.853  0.1387  0.1312  0.2217
11904TIP3    H157127   0.195   0.669  12.858  0.7381 -0.3738  1.4795
11904TIP3    H257128   0.291   0.748  12.943  1.2129  0.9429 -0.2148
11905TIP3   OH257129   5.552   2.629   1.643  0.7090 -0.6582  0.0389
11905TIP3    H157130   5.558   2.704   1.703 -2.0357 -0.9878  0.8739
11905TIP3    H257131   5.471   2.585   1.668  1.6045 -3.2574 -1.2245
11906TIP3   OH257132   0.702   2.298  12.646  0.3029  0.2007 -0.2701
11906TIP3    H157133   0.689   2.231  12.580 -0.8490 -0.0366  0.1609
11906TIP3    H257134   0.771   2.354  12.611  1.8758 -1.6445 -0.2815
11907TIP3   OH257135   1.689   2.951  15.935  0.0884  0.3417 -0.1673
11907TIP3    H157136   1.674   2.887  15.865  1.1236 -2.0775  1.6726
11907TIP3    H257137   1.633   2.922  16.006  1.4076  0.7731  1.1004
11908TIP3   OH257138   6.144   2.127   1.308  0.0874  0.6392  0.4499
11908TIP3    H157139   6.153   2.171   1.392 -0.6629  0.0465  0.8541
11908TIP3    H257140   6.052   2.138   1.285 -0.3649 -1.4811  1.0264
11909TIP3   OH257141   1.391   1.497   0.103 -0.0338 -0.2288  0.7918
11909TIP3    H157142   1.333   1.495   0.179  0.1722 -0.4056  0.9481
11909TIP3    H257143   1.357   1.430   0.044 -0.8441  0.6439  0.2326
11910TIP3   OH257144   3.078   0.464   5.014 -0.3528 -0.2099 -0.3581
11910TIP3    H157145   3.063   0.377   4.975  1.9508 -0.1445 -1.5814
11910TIP3    H257146   3.021   0.522   4.964 -1.1476 -0.8573 -0.2268
11911TIP3   OH257147   6.298   0.101   6.563  0.1864 -0.1954  0.4912
11911TIP3    H157148   6.257   0.039   6.623  1.1809  0.3940  1.8342
11911TIP3    H257149   6.245   0.180   6.570 -2.2915 -1.3243 -2.6924
11912TIP3   OH257150   3.683   5.339  16.574  0.2232 -0.2934  0.1318
11912TIP3    H157151   3.692   5.427  16.538 -1.4020  0.4220  1.3050
11912TIP3    H257152   3.743   5.337  16.648  1.0131 -0.5501 -0.5043
11913TIP3   OH257153   5.318   0.550  16.838 -0.3003 -0.0980  0.8464
11913TIP3    H157154   5.275   0.474  16.877 -1.1719  0.8543  1.8322
11913TIP3    H257155   5.247   0.597  16.794 -0.1255  1.0338  1.7318
11914TIP3   OH257156   5.153   5.934   2.859  0.1171 -0.5645  0.1210
11914TIP3    H157157   5.124   5.913   2.770  0.6876  1.8384 -0.7138
11914TIP3    H257158   5.172   6.028   2.856  0.3375 -0.4574  2.7500
11915TIP3   OH257159   2.804   1.260  17.262  0.1897 -0.1562 -0.6097
11915TIP3    H157160   2.772   1.202  17.331 -0.5302 -0.1792 -0.9593
11915TIP3    H257161   2.888   1.292  17.296 -0.4112  0.2870  0.5332
11916TIP3   OH257162   0.893   5.061   0.281  0.4330  0.0799  0.4016
11916TIP3    H157163   0.844   5.108   0.214  1.3144  0.8761  0.2903
11916TIP3    H257164   0.838   5.067   0.359 -0.8326 -1.2680 -0.3185
11917TIP3   OH257165   5.015   1.678  11.800  0.4167 -0.9058 -0.5333
11917TIP3    H157166   5.098   1.635  11.816 -0.8847 -3.0816  0.7653
11917TIP3    H257167   4.997   1.663  11.707  1.6042 -0.0810 -0.9168
11918TIP3   OH257168   0.960   5.443  11.504  0.5729  0.0209 -0.1153
11918TIP3    H157169   0.946   5.500  11.580 -0.8627  0.0003 -0.3441
11918TIP3    H257170   0.889   5.465  11.444 -1.3863 -3.4375  0.6759
11919TIP3   OH257171   3.339   2.785   4.787 -0.1462  0.0270  0.2288
11919TIP3    H157172   3.291   2.799   4.869  0.6137  1.6043  0.4264
11919TIP3    H257173   3.428   2.765   4.815 -0.6072 -3.1872 -0.1212
11920TIP3   OH257174   4.984   0.732  12.242  0.0795  0.6902 -0.1830
11920TIP3    H157175   5.058   0.681  12.209  0.4317  1.3651 -0.4659
11920TIP3    H257176   4.914   0.668  12.254  1.0899 -0.1894  1.3385
11921TIP3   OH257177   6.287   4.131   4.390 -0.1288  0.4874  0.3174
11921TIP3    H157178   6.297   4.179   4.308  0.2555 -1.7733 -1.0305
11921TIP3    H257179   6.196   4.146   4.415 -1.9860 -2.8621 -3.3890
11922TIP3   OH257180   3.740   3.220  10.559  0.0483  0.1472  0.3554
11922TIP3    H157181   3.830   3.251  10.557  0.0385  0.1695 -1.4069
11922TIP3    H257182   3.687   3.299  10.547 -0.1169 -0.0821 -0.5100
11923TIP3   OH257183   5.588   5.793  16.150 -0.0912 -0.0975  0.0425
11923TIP3    H157184   5.554   5.812  16.063  0.6046  0.5842 -0.0928
11923TIP3    H257185   5.604   5.879  16.189 -1.2145 -0.3740  1.1882
11924TIP3   OH257186   6.376   3.140   4.328 -0.1334 -0.4429 -0.0609
11924TIP3    H157187   6.310   3.107   4.267 -0.1693 -0.4771 -0.0030
11924TIP3    H257188   6.438   3.187   4.272 -0.1869 -0.4414 -0.1195
11925TIP3   OH257189   3.077   6.486   2.561  0.6472 -0.6070  0.1245
11925TIP3    H157190   3.072   6.581   2.549  0.0417 -0.7612 -0.9233
11925TIP3    H257191   3.109   6.453   2.477 -4.0720 -1.7675 -1.4984
11926TIP3   OH257192   3.619   3.358  12.394  0.0787  0.7002  0.4131
11926TIP3    H157193   3.680   3.291  12.426  2.1587  1.5333 -1.5230
11926TIP3    H257194   3.558   3.310  12.337 -0.0307  0.1084  1.0164
11927TIP3   OH257195   0.123   0.469   0.727  0.1894  0.0859 -0.5718
11927TIP3    H157196   0.133   0.560   0.699  1.1362  0.5000  0.9506
11927TIP3    H257197   0.101   0.475   0.820 -2.1054 -1.2228 -0.9526
11928TIP3   OH257198   5.612   2.605   2.170  0.0599  0.3557 -0.1093
11928TIP3    H157199   5.587   2.514   2.154 -0.4679  0.0649  1.9835
11928TIP3    H257200   5.534   2.656   2.148 -0.1684  0.1262  0.1593
11929TIP3   OH257201   6.252   6.063   2.070  0.1614  0.0358 -0.2939
11929TIP3    H157202   6.343   6.073   2.041 -0.4787  1.0425 -2.0828
11929TIP3    H257203   6.255   6.087   2.163  1.4375  1.8559 -0.7398
11930TIP3   OH257204   4.270   3.069  14.336 -0.3620 -0.2666 -0.0714
11930TIP3    H157205   4.233   3.134  14.396 -2.1150 -2.2524  1.1037
11930TIP3    H257206   4.357   3.050  14.371 -0.2659  0.6160  0.1876
11931TIP3   OH257207   5.688   5.641   2.705 -0.0350 -0.3364  0.2976
11931TIP3    H157208   5.707   5.548   2.715 -1.6355 -0.8342 -0.8886
11931TIP3    H257209   5.759   5.685   2.752  2.0077 -2.0797 -0.9762
11932TIP3   OH257210   6.077   0.018  11.654 -0.2195 -0.0960 -0.1680
11932TIP3    H157211   6.063   0.106  11.619  1.6022 -0.3022 -1.5213
11932TIP3    H257212   6.115   0.033  11.740  0.6461  0.4538 -0.6350
11933TIP3   OH257213   6.011   1.284  16.367 -0.0929  0.2462  0.1000
11933TIP3    H157214   6.087   1.284  16.309 -0.9162  2.5054 -1.0976
11933TIP3    H257215   5.975   1.195  16.359  1.6088 -0.4357 -0.3778
11934TIP3   OH257216   0.933   1.082   3.034  0.2693  0.3704  0.4189
11934TIP3    H157217   0.869   1.061   2.966  0.5082  2.5447 -0.5674
11934TIP3    H257218   0.894   1.048   3.114 -1.1981 -0.0997 -0.4464
11935TIP3   OH257219   0.721   6.296  16.326 -0.5423  0.2917  0.6571
11935TIP3    H157220   0.783   6.342  16.270  0.8606 -2.2657 -0.0425
11935TIP3    H257221   0.772   6.273  16.404 -1.0207 -0.4872  0.7551
11936TIP3   OH257222   5.800   4.225   4.654 -0.2791 -0.5729 -0.1498
11936TIP3    H157223   5.818   4.132   4.641  1.1119 -0.3628  0.0489
11936TIP3    H257224   5.706   4.234   4.642 -0.3201 -1.8692 -0.9738
11937TIP3   OH257225   3.444   4.944   0.121 -0.0820  0.1867  0.2913
11937TIP3    H157226   3.370   4.978   0.172 -0.0607  1.4176 -0.4571
11937TIP3    H257227   3.425   4.851   0.110 -0.8948  0.2333  1.1633
11938TIP3   OH257228   4.288   5.325  16.227 -0.2977 -0.5488 -0.2075
11938TIP3    H157229   4.292   5.286  16.140  1.2149  3.2599 -2.0546
11938TIP3    H257230   4.371   5.302  16.268  0.3332  0.1915 -1.0463
11939TIP3   OH257231   4.728   3.627  12.654  0.0199  0.3438 -0.1018
11939TIP3    H157232   4.690   3.607  12.569 -0.1727  0.0771  0.0421
11939TIP3    H257233   4.711   3.549  12.706 -0.3107  0.6970  0.3326
11940TIP3   OH257234   2.933   0.352  10.715 -0.5415 -0.3473  0.4580
11940TIP3    H157235   2.844   0.385  10.702 -0.7378 -1.0385 -0.0111
11940TIP3    H257236   2.924   0.257  10.711  0.2204 -0.4220  0.4189
11941TIP3   OH257237   5.184   1.971  16.889  0.0127 -0.1851 -0.2515
11941TIP3    H157238   5.157   2.044  16.833  1.0954  0.6868  0.3317
11941TIP3    H257239   5.166   2.001  16.978  1.0872 -0.3435  0.0332
11942TIP3   OH257240   5.714   0.262  13.420 -0.1237 -0.4322  0.2441
11942TIP3    H157241   5.734   0.179  13.462  2.3637  0.0573  0.1718
11942TIP3    H257242   5.771   0.264  13.343 -1.1164  0.7720 -0.4938
11943TIP3   OH257243   1.227   3.930  16.162 -0.3393 -0.5301  0.1024
11943TIP3    H157244   1.320   3.942  16.143 -0.7386  0.8494 -1.1794
11943TIP3    H257245   1.190   3.898  16.080 -1.1176 -0.4271  0.4059
11944TIP3   OH257246   4.239   1.982   2.931 -0.1567  0.2923  0.0171
11944TIP3    H157247   4.188   1.904   2.908  2.8336 -1.1710 -2.3351
11944TIP3    H257248   4.215   2.046   2.864  0.6247 -0.1989 -0.7489
11945TIP3   OH257249   1.783   5.645   2.567 -0.8022  0.0514  0.2906
11945TIP3    H157250   1.718   5.685   2.624  0.2515  1.0876  0.7816
11945TIP3    H257251   1.841   5.716   2.541  0.2567 -0.8765  0.0049
11946TIP3   OH257252   5.860   1.623   5.868 -0.3620  0.6136  0.1140
11946TIP3    H157253   5.866   1.684   5.942  1.6618  2.0954 -1.1828
11946TIP3    H257254   5.948   1.620   5.832 -1.1089 -0.7021 -1.7725
11947TIP3   OH257255   3.416   4.650  12.087 -0.2195  0.3995 -0.3677
11947TIP3    H157256   3.418   4.645  12.183 -0.2502 -1.8421 -0.4355
11947TIP3    H257257   3.503   4.620  12.059 -0.5715  0.0090 -1.0687
11948TIP3   OH257258   6.634   4.137   1.115  0.0898 -0.5184 -0.0605
11948TIP3    H157259   6.707   4.170   1.168  0.5636  0.9550 -1.5400
11948TIP3    H257260   6.575   4.212   1.107  0.0072 -0.7270 -1.5476
11949TIP3   OH257261   4.381   2.434  12.310  0.3720 -0.8448  0.1440
11949TIP3    H157262   4.414   2.504  12.254  1.6187 -0.9707  0.6801
11949TIP3    H257263   4.356   2.364  12.249  1.0707 -0.7205 -0.2945
11950TIP3   OH257264   1.519   5.018   1.396 -0.0477 -0.4825 -0.0903
11950TIP3    H157265   1.503   4.956   1.325  1.2256 -2.2019  1.0314
11950TIP3    H257266   1.443   5.010   1.453  0.6607 -2.0626  0.7115
11951TIP3   OH257267   3.735   3.948   3.146  0.2331  0.2985  0.3918
11951TIP3    H157268   3.765   3.894   3.073  1.0439 -0.1738  1.0598
11951TIP3    H257269   3.749   4.038   3.116 -0.0702  0.1293 -0.2884
11952TIP3   OH257270   5.139   2.004   4.915  0.4275  0.3056 -0.3671
11952TIP3    H157271   5.206   1.941   4.945 -0.0867 -0.4076 -0.6953
11952TIP3    H257272   5.175   2.089   4.939  0.2197 -0.1902  1.9839
11953TIP3   OH257273   6.496   2.229  11.752  0.8253 -0.1320 -0.1178
11953TIP3    H157274   6.432   2.159  11.761 -0.4853  1.2684  2.7577
11953TIP3    H257275   6.576   2.194  11.791 -0.1208  0.1994  2.3088
11954TIP3   OH257276   0.697   4.139   0.290  0.5895  1.2093 -0.3550
11954TIP3    H157277   0.680   4.074   0.222  0.9095  1.2150 -0.4405
11954TIP3    H257278   0.782   4.115   0.325  0.7589  1.6531 -0.4620
11955TIP3   OH257279   6.443   6.412  16.288 -0.1972 -0.1397  0.5028
11955TIP3    H157280   6.515   6.361  16.251 -0.1563  0.7319 -0.6977
11955TIP3    H257281   6.378   6.347  16.314 -0.7404 -0.8083 -2.2259
11956TIP3   OH257282   5.171   6.695   5.186 -0.1967 -0.3598  0.3013
11956TIP3    H157283   5.132   6.624   5.135 -1.0980  1.0246 -1.0205
11956TIP3    H257284   5.113   6.704   5.262 -0.6963 -0.3442 -0.0751
11957TIP3   OH257285   3.745   4.118  12.124 -0.2592 -0.2294 -0.1277
11957TIP3    H157286   3.696   4.199  12.120 -0.5593 -0.3307  1.0473
11957TIP3    H257287   3.811   4.126  12.056  1.2875  2.0529  1.4820
11958TIP3   OH257288   0.456   0.526   3.433  0.3777 -0.1396 -0.2011
11958TIP3    H157289   0.509   0.554   3.508 -0.0113  1.1682 -0.3834
11958TIP3    H257290   0.435   0.608   3.388  0.1833 -0.8609 -1.4587
11959TIP3   OH257291   2.461   5.715  17.199  0.0880  0.3549 -0.6552
11959TIP3    H157292   2.381   5.729  17.149 -2.3644  0.2625  2.8191
11959TIP3    H257293   2.473   5.797  17.247  0.6249 -0.4792  0.6958
11960TIP3   OH257294   5.236   0.797   1.036  0.4027  0.1955 -0.3395
11960TIP3    H157295   5.286   0.833   0.962  1.1147 -0.2127 -0.0669
11960TIP3    H257296   5.185   0.726   0.998  1.4523 -0.6086 -0.2853
11961TIP3   OH257297   6.481   1.654  14.351  0.5831  0.2382  0.5040
11961TIP3    H157298   6.398   1.659  14.304 -0.3361 -0.5719  1.9455
11961TIP3    H257299   6.530   1.732  14.324  0.1829 -0.2597 -1.8401
11962TIP3   OH257300   3.624   0.337  16.233 -0.0467 -0.4993 -0.1919
11962TIP3    H157301   3.691   0.274  16.206 -2.2891 -3.1469 -0.1368
11962TIP3    H257302   3.553   0.325  16.169 -0.9504  1.3465  0.3799
11963TIP3   OH257303   5.236   6.146  13.738  0.2448 -0.7958 -0.0599
11963TIP3    H157304   5.222   6.240  13.753 -1.3850 -1.0633  0.2874
11963TIP3    H257305   5.309   6.143  13.676  2.1040  0.5957  1.9181
11964TIP3   OH257306   3.024   0.934   4.430 -0.1603 -0.8582 -0.2545
11964TIP3    H157307   3.034   1.023   4.464 -1.1895 -1.5005  1.9348
11964TIP3    H257308   3.021   0.945   4.335 -0.4579  1.4597 -0.0409
11965TIP3   OH257309   6.010   1.452  16.834 -0.1309 -0.0933  0.2616
11965TIP3    H157310   5.989   1.480  16.923  0.5605  1.1864  0.0613
11965TIP3    H257311   5.927   1.456  16.787  0.1067  3.4494 -0.1634
11966TIP3   OH257312   6.728   4.137  15.780 -0.0335 -0.5673  0.0088
11966TIP3    H157313   6.808   4.164  15.735 -0.5597 -0.2715 -0.7757
11966TIP3    H257314   6.733   4.178  15.866 -0.0010  0.6094 -0.5410
11967TIP3   OH257315   1.804   6.253   5.737 -0.4154 -0.1555  0.1750
11967TIP3    H157316   1.753   6.171   5.739 -0.1297 -0.3300  0.3421
11967TIP3    H257317   1.862   6.242   5.662 -0.0075 -0.3299  0.5139
11968TIP3   OH257318   6.733   1.417  12.015 -0.2625  0.0179  0.3652
11968TIP3    H157319   6.708   1.372  11.934 -0.2834 -1.9169  1.3855
11968TIP3    H257320   6.773   1.499  11.986  1.4006 -1.4204 -1.7079
11969TIP3   OH257321   1.243   0.988  15.622  0.1497 -0.3755  0.1332
11969TIP3    H157322   1.211   1.026  15.704  1.1943 -1.2727  0.9842
11969TIP3    H257323   1.215   0.896  15.626 -2.3426  0.1597 -1.8859
11970TIP3   OH257324   1.727   2.641   1.136 -0.5312  0.1174  0.3498
11970TIP3    H157325   1.736   2.720   1.082 -0.6886 -0.4299 -0.4881
11970TIP3    H257326   1.682   2.672   1.215 -1.4569  0.7054 -0.3781
11971TIP3   OH257327   1.010   3.214  13.740  0.1833  0.5623  0.2939
11971TIP3    H157328   1.046   3.127  13.724 -1.9660 -0.5242  0.9756
11971TIP3    H257329   1.047   3.241  13.824 -0.9451 -0.7775  1.2676
11972TIP3   OH257330   3.549   3.481   3.814  0.0021  0.2959  0.4501
11972TIP3    H157331   3.635   3.444   3.794  0.4427  2.6882 -3.0765
11972TIP3    H257332   3.558   3.575   3.795 -3.3924  0.6407 -0.1358
11973TIP3   OH257333   5.201   0.515  12.142  0.1444  0.5957 -0.2188
11973TIP3    H157334   5.109   0.488  12.135  0.7198 -2.7814  2.5583
11973TIP3    H257335   5.237   0.501  12.055 -1.1722 -1.8036 -0.4581
11974TIP3   OH257336   4.407   5.191   1.648  0.0742  0.1306  0.6015
11974TIP3    H157337   4.330   5.183   1.704 -0.4802  2.3829  0.2411
11974TIP3    H257338   4.374   5.170   1.560  0.3275 -0.7351  0.7020
11975TIP3   OH257339   5.705   2.697  17.038  0.3636  0.6389 -0.8009
11975TIP3    H157340   5.643   2.709  16.966 -0.7415  0.3551  0.0716
11975TIP3    H257341   5.650   2.671  17.112  1.6485 -0.6014 -0.2481
11976TIP3   OH257342   3.013   5.564   1.364  0.5760  0.3693  0.1452
11976TIP3    H157343   3.100   5.604   1.363  0.1744  1.4074  2.3008
11976TIP3    H257344   2.967   5.605   1.291  1.7421  0.0625 -0.8042
11977TIP3   OH257345   5.249   4.979  14.260 -0.3165  0.2708 -0.2885
11977TIP3    H157346   5.321   5.037  14.235  0.6955 -1.0417 -0.5033
11977TIP3    H257347   5.187   4.984  14.187  0.0057  0.6781 -0.5332
11978TIP3   OH257348   3.701   5.461   2.064  0.1900  0.2045  0.0387
11978TIP3    H157349   3.790   5.483   2.094 -0.7437  1.1755  2.3925
11978TIP3    H257350   3.645   5.523   2.111 -1.7400 -0.2650 -1.5374
11979TIP3   OH257351   5.310   2.021  11.985  0.7329  0.2549 -0.4306
11979TIP3    H157352   5.365   2.096  12.006  1.3364 -0.2909 -0.0067
11979TIP3    H257353   5.221   2.050  12.004  0.8845  1.0736 -0.8994
11980TIP3   OH257354   5.141   3.820  13.550 -0.1895  0.0272  0.3869
11980TIP3    H157355   5.107   3.816  13.461  1.4304  0.0335 -0.2562
11980TIP3    H257356   5.227   3.780  13.545  0.7078  1.6632  1.5570
11981TIP3   OH257357   0.609   0.910   5.848  0.5015 -0.0369  0.3173
11981TIP3    H157358   0.556   0.943   5.776  0.5527  1.3293  0.8737
11981TIP3    H257359   0.621   0.817   5.828  1.1189  0.4379 -1.8169
11982TIP3   OH257360   3.296   5.279   3.400  0.1738  0.1001  0.1692
11982TIP3    H157361   3.350   5.348   3.438  0.7521 -0.7993  1.0083
11982TIP3    H257362   3.235   5.255   3.470  0.5217 -0.8042  0.1802
11983TIP3   OH257363   4.034   3.397  11.840 -0.0947 -0.3727 -0.9120
11983TIP3    H157364   3.981   3.365  11.913 -0.3137  0.3817 -0.7313
11983TIP3    H257365   3.970   3.432  11.778  0.1791  0.2433 -0.8465
11984TIP3   OH257366   0.629   1.166  13.663 -0.4841  0.1462  0.0536
11984TIP3    H157367   0.681   1.096  13.625 -0.1631 -0.0508  0.8322
11984TIP3    H257368   0.574   1.198  13.591 -0.4220 -0.7049 -0.3807
11985TIP3   OH257369   4.543   3.935  17.366  0.3979 -0.1544 -0.1854
11985TIP3    H157370   4.528   3.876  17.440 -1.5544 -0.2120 -0.5730
11985TIP3    H257371   4.500   4.017  17.392  2.0957  0.7829 -0.1379
11986TIP3   OH257372   1.564   0.299   2.898  0.5697 -0.0846 -0.4017
11986TIP3    H157373   1.511   0.335   2.969 -0.4305  0.6896 -1.5029
11986TIP3    H257374   1.511   0.228   2.861  0.2791  0.6644 -1.4769
11987TIP3   OH257375   4.244   6.405  12.545  0.3760  0.1276  0.5386
11987TIP3    H157376   4.206   6.330  12.590 -0.0587  1.5230  2.6309
11987TIP3    H257377   4.331   6.416  12.585  1.0523 -0.1427 -0.8109
11988TIP3   OH257378   1.440   2.599   2.789  0.3341  0.2749  0.3871
11988TIP3    H157379   1.391   2.542   2.730  2.7544  1.0244 -2.5691
11988TIP3    H257380   1.502   2.540   2.833  0.1461  0.0592  0.3659
11989TIP3   OH257381   1.743   3.191   4.926  0.0833 -0.2063  0.0392
11989TIP3    H157382   1.665   3.234   4.961  0.2329 -0.5744  0.8424
11989TIP3    H257383   1.816   3.236   4.967  0.2304 -1.8532  1.7049
11990TIP3   OH257384   1.919   0.413  14.541  0.5146 -0.4385 -0.5764
11990TIP3    H157385   1.925   0.412  14.637 -0.8590 -0.1998 -0.4718
11990TIP3    H257386   2.009   0.426  14.512  0.7958  0.7528  0.7140
11991TIP3   OH257387   0.166   5.700   2.073  0.0391  0.1922 -0.0885
11991TIP3    H157388   0.176   5.767   2.006 -0.9972  1.4232  0.9367
11991TIP3    H257389   0.079   5.664   2.059 -0.0205  0.1664  0.3292
11992TIP3   OH257390   0.685   3.679  16.978  0.2029  0.0008  0.0973
11992TIP3    H157391   0.597   3.700  16.946  0.4026  0.6229 -0.0486
11992TIP3    H257392   0.718   3.614  16.916  0.7346  1.4705 -1.2090
11993TIP3   OH257393   4.345   6.037   4.432  0.2174 -0.0637  0.0388
11993TIP3    H157394   4.341   6.121   4.477 -2.1488  1.0641 -2.0606
11993TIP3    H257395   4.294   5.978   4.487 -2.2500  1.1701 -0.8217
11994TIP3   OH257396   4.865   6.122   5.218 -0.6039  0.1577 -0.0998
11994TIP3    H157397   4.909   6.124   5.303  0.9785 -1.5845 -0.8111
11994TIP3    H257398   4.894   6.203   5.175  0.5133 -0.1006  0.1312
11995TIP3   OH257399   2.823   2.170  11.129 -0.4951  0.7209 -0.5342
11995TIP3    H157400   2.731   2.185  11.149 -0.9486 -1.2832 -0.9505
11995TIP3    H257401   2.827   2.165  11.034  0.0142  0.5513 -0.5062
11996TIP3   OH257402   2.001   0.479   2.687 -0.1340 -0.6489  0.2344
11996TIP3    H157403   1.915   0.436   2.689  0.1645 -1.2464  0.4047
11996TIP3    H257404   2.062   0.409   2.668  0.0955  0.1441 -2.2058
11997TIP3   OH257405   5.568   4.271   3.803  0.7332 -0.1826 -0.3380
11997TIP3    H157406   5.539   4.188   3.764  0.5176 -0.0101 -0.5498
11997TIP3    H257407   5.652   4.289   3.761  1.3228 -0.8530  0.5230
11998TIP3   OH257408   3.923   0.711   6.279  0.0887 -0.1697 -0.2917
11998TIP3    H157409   3.986   0.767   6.234  0.4599 -0.4238 -0.1011
11998TIP3    H257410   3.941   0.726   6.372 -1.5216  1.3176 -0.1723
11999TIP3   OH257411   1.747   4.408   5.994 -0.0615  0.2091 -0.1111
11999TIP3    H157412   1.661   4.450   5.999  0.0883  0.9613 -2.5906
11999TIP3    H257413   1.733   4.332   5.938  1.0040  0.7025 -1.0786
12000TIP3   OH257414   0.604   0.053   2.491 -0.0359  0.2232 -0.5268
12000TIP3    H157415   0.603   0.142   2.527 -0.4836 -0.1079  0.2946
12000TIP3    H257416   0.680   0.052   2.432 -0.0186  1.1398 -0.5388
12001TIP3   OH257417   3.469   3.244   4.772 -0.8602 -0.3069 -0.0908
12001TIP3    H157418   3.449   3.299   4.848 -0.6402 -0.4284  0.0575
12001TIP3    H257419   3.560   3.264   4.752 -1.9576  2.7962 -2.8599
12002TIP3   OH257420   5.018   0.069   1.495  0.0163  0.3136 -0.0315
12002TIP3    H157421   5.081   0.045   1.427  0.7928  1.1343  0.3729
12002TIP3    H257422   4.940   0.017   1.475  0.5417 -0.1315 -1.0089
12003TIP3   OH257423   6.020   6.317   1.901  0.2142  0.5720 -0.2861
12003TIP3    H157424   6.052   6.324   1.991 -0.3512 -1.4886  0.1398
12003TIP3    H257425   5.963   6.392   1.889 -2.3782 -0.7647  2.2828
12004TIP3   OH257426   2.088   6.558   6.059 -0.0377 -0.2692  0.5299
12004TIP3    H157427   2.032   6.556   5.981  0.3871  2.4807  0.0602
12004TIP3    H257428   2.063   6.481   6.109  0.8195 -3.1477 -3.0644
12005TIP3   OH257429   1.178   3.197   2.292  0.1354  0.4479  0.4646
12005TIP3    H157430   1.256   3.155   2.329 -0.5927  0.3187  1.9403
12005TIP3    H257431   1.123   3.124   2.263  1.2506  0.5611 -2.2221
12006TIP3   OH257432   2.585   3.026   6.760 -0.0544  0.5708 -0.2517
12006TIP3    H157433   2.658   2.977   6.723 -1.6612 -2.2788  0.0339
12006TIP3    H257434   2.564   3.092   6.693  1.0864 -0.2946 -1.5252
12007TIP3   OH257435   3.746   4.412  14.252 -0.3747  0.7809  0.3756
12007TIP3    H157436   3.690   4.342  14.219  1.9350 -1.2471  0.4913
12007TIP3    H257437   3.753   4.473  14.179  3.1415 -2.6675 -2.6073
12008TIP3   OH257438   6.106   6.156  15.334  0.6116 -0.3180 -0.2549
12008TIP3    H157439   6.185   6.145  15.387  0.0012  0.2988  0.8169
12008TIP3    H257440   6.111   6.247  15.304  0.3412 -0.2955 -0.2294
12009TIP3   OH257441   1.056   4.830  14.190 -0.8089 -0.3744  0.0509
12009TIP3    H157442   1.065   4.919  14.154 -0.6394 -0.6547 -0.6042
12009TIP3    H257443   0.987   4.790  14.137 -0.5145 -0.8115 -0.0064
12010TIP3   OH257444   5.240   1.003  15.438 -0.3578  0.0122  0.0861
12010TIP3    H157445   5.243   0.920  15.390  0.7441 -1.2838  2.2233
12010TIP3    H257446   5.205   0.980  15.524  2.0036  1.2829  1.5082
12011TIP3   OH257447   5.734   3.358   2.676  0.2051 -0.4698 -0.1148
12011TIP3    H157448   5.689   3.362   2.591  1.3105 -0.5278 -0.7194
12011TIP3    H257449   5.767   3.269   2.682  2.2568  0.1831 -0.7789
12012TIP3   OH257450   5.186   5.602  13.667  0.2514 -0.4769  0.1596
12012TIP3    H157451   5.244   5.620  13.593  0.8092  0.9448  0.9083
12012TIP3    H257452   5.207   5.512  13.693 -0.0115 -1.0310 -1.4278
12013TIP3   OH257453   4.818   6.428   2.195  0.7781 -0.4185  0.3670
12013TIP3    H157454   4.869   6.350   2.176 -0.7929 -2.0961  2.5812
12013TIP3    H257455   4.787   6.416   2.284 -1.0400  1.9107  0.1582
12014TIP3   OH257456   2.485   3.188  15.574  0.6204  0.2351 -0.0240
12014TIP3    H157457   2.456   3.269  15.616  1.3567  1.2877 -1.4587
12014TIP3    H257458   2.485   3.123  15.644 -3.3261  0.5393  0.5073
12015TIP3   OH257459   0.274   6.406   4.543 -0.0243  0.5259 -0.1017
12015TIP3    H157460   0.350   6.360   4.505 -1.8868 -2.8995 -0.1087
12015TIP3    H257461   0.306   6.438   4.627  1.3414 -1.4477  0.2232
12016TIP3   OH257462   2.407   2.027   0.561 -0.2285  0.5215 -1.0483
12016TIP3    H157463   2.449   1.964   0.618 -0.4259  0.2786 -1.1693
12016TIP3    H257464   2.329   1.982   0.528 -1.2834  1.3592  0.1412
12017TIP3   OH257465   5.131   5.354  14.920 -0.6527  0.0244 -0.0639
12017TIP3    H157466   5.190   5.347  14.995 -0.6293  0.8586  0.0060
12017TIP3    H257467   5.122   5.448  14.906 -1.6294 -0.1035 -0.3462
12018TIP3   OH257468   5.258   6.199  11.142  0.2875 -0.5068 -0.1979
12018TIP3    H157469   5.183   6.238  11.098 -0.5776  0.0179  1.6609
12018TIP3    H257470   5.288   6.131  11.082  0.5033  1.5138 -2.5633
12019TIP3   OH257471   3.526   0.034   2.783  0.6596  0.0648  0.1240
12019TIP3    H157472   3.434   0.037   2.755  0.6243  0.3831  0.2615
12019TIP3    H257473   3.555  -0.054   2.760  0.3719  0.0202 -0.0873
12020TIP3   OH257474   4.226   1.164   0.255 -0.5984  0.0900 -0.5907
12020TIP3    H157475   4.180   1.238   0.216  0.0359  0.8421  0.0597
12020TIP3    H257476   4.234   1.187   0.348  0.3249 -0.4089 -0.5349
12021TIP3   OH257477   0.863   4.515   2.118  0.0606 -0.1538  0.5970
12021TIP3    H157478   0.836   4.604   2.142  1.9568  0.1562  1.8146
12021TIP3    H257479   0.781   4.470   2.098 -0.9228  1.9321 -0.3670
12022TIP3   OH257480   6.146   3.158  16.148 -0.3470  0.6068 -0.2250
12022TIP3    H157481   6.113   3.151  16.237 -0.3415  1.3621 -0.1545
12022TIP3    H257482   6.239   3.181  16.158 -0.4879  1.3015 -0.4116
12023TIP3   OH257483   5.590   5.197  12.594  0.1796  0.2626 -0.0796
12023TIP3    H157484   5.527   5.182  12.665 -0.8056 -0.9447 -1.1431
12023TIP3    H257485   5.544   5.168  12.515  1.0482  2.0386 -1.3060
12024TIP3   OH257486   2.841   0.799  14.130 -0.0995  0.1123  0.5282
12024TIP3    H157487   2.935   0.783  14.124  0.1190  1.8152 -2.4900
12024TIP3    H257488   2.833   0.876  14.187  0.4782  0.6941 -0.1549
12025TIP3   OH257489   5.342   4.190  15.328  0.1350 -0.4629  0.0605
12025TIP3    H157490   5.341   4.274  15.282  0.5480 -0.9187 -0.8138
12025TIP3    H257491   5.259   4.148  15.302 -0.2306 -0.1888  0.7695
12026TIP3   OH257492   3.324   4.390   6.061 -0.2835 -0.2591  0.5639
12026TIP3    H157493   3.381   4.464   6.081 -0.5712  0.1280 -0.0351
12026TIP3    H257494   3.240   4.412   6.102 -0.1735 -0.5800  0.9766
12027TIP3   OH257495   0.625   4.912   6.031  0.0955  0.1362 -0.0464
12027TIP3    H157496   0.582   4.986   6.074  0.0851 -0.5352  1.1426
12027TIP3    H257497   0.554   4.850   6.013  0.3788 -0.4615  0.8419
12028TIP3   OH257498   1.823   2.243   2.686  0.0730  0.0207  0.0991
12028TIP3    H157499   1.800   2.265   2.596 -0.0216 -0.0954  0.0937
12028TIP3    H257500   1.774   2.305   2.739  0.3504  0.2751  0.0630
12029TIP3   OH257501   0.601   4.728  15.371  0.3942 -0.6880 -0.0258
12029TIP3    H157502   0.587   4.674  15.293 -2.1936 -0.7520  0.3661
12029TIP3    H257503   0.547   4.686  15.438  0.2439  1.0105  0.9564
12030TIP3   OH257504   4.721   2.569   1.572  0.3736 -0.1442 -0.2670
12030TIP3    H157505   4.743   2.476   1.581  0.1923 -0.0807  1.0799
12030TIP3    H257506   4.786   2.613   1.628  0.3845  0.5283 -0.8092
12031TIP3   OH257507   3.667   4.458  16.578  0.1711 -0.1411 -0.2647
12031TIP3    H157508   3.694   4.546  16.552 -0.1338  0.7338  2.0973
12031TIP3    H257509   3.599   4.434  16.515 -0.8448  1.9879 -0.0622
12032TIP3   OH257510   3.889   3.289  13.463  0.1488  0.4423  0.1747
12032TIP3    H157511   3.884   3.383  13.447 -0.0883  0.6685  1.4713
12032TIP3    H257512   3.949   3.256  13.395  0.8296  1.6479  0.1656
12033TIP3   OH257513   4.211   2.663   6.316  0.3020 -0.2226  0.0906
12033TIP3    H157514   4.283   2.600   6.317  1.5279  1.1243  0.8245
12033TIP3    H257515   4.208   2.697   6.406  0.3457  1.4546 -0.5004
12034TIP3   OH257516   1.781   2.090  15.514 -0.0120  0.3602  0.2853
12034TIP3    H157517   1.845   2.092  15.585 -1.3048 -2.0676  1.6589
12034TIP3    H257518   1.815   2.026  15.452 -0.6249 -0.2740  0.5826
12035TIP3   OH257519   0.486   5.561  14.115  0.0253 -0.2534  0.6428
12035TIP3    H157520   0.441   5.645  14.110 -0.4795 -0.3439  2.7545
12035TIP3    H257521   0.551   5.564  14.045 -1.3085  1.0674 -0.5883
12036TIP3   OH257522   1.821   2.679   5.213 -0.3190  0.5275 -0.3143
12036TIP3    H157523   1.827   2.693   5.307  0.5371 -1.7170  0.0195
12036TIP3    H257524   1.814   2.584   5.203  0.8378  0.6169 -2.5771
12037TIP3   OH257525   0.220   2.033   4.304  0.1623 -0.6258  0.0377
12037TIP3    H157526   0.142   2.083   4.283 -0.7770 -1.8034  0.6286
12037TIP3    H257527   0.287   2.099   4.321 -1.3857  0.5062  2.2120
12038TIP3   OH257528   2.504   3.042  12.068  0.2651 -0.4138  0.5069
12038TIP3    H157529   2.461   2.988  12.135  0.2697 -1.4902 -0.3401
12038TIP3    H257530   2.540   3.117  12.117 -0.0548 -0.9872  1.6460
12039TIP3   OH257531   0.314   5.996   4.643 -0.3043  0.8437  0.2575
12039TIP3    H157532   0.358   5.919   4.606 -0.4031  0.6208  0.6006
12039TIP3    H257533   0.226   5.965   4.665 -0.1583  0.8997  0.9392
12040TIP3   OH257534   3.672   2.271   1.758 -0.4440  0.1585  0.1375
12040TIP3    H157535   3.685   2.274   1.663  1.7885 -3.5677  0.1260
12040TIP3    H257536   3.599   2.212   1.771  0.3885 -0.7754  0.7144
12041TIP3   OH257537   1.733   0.377   1.523 -0.3298  0.1876 -0.1913
12041TIP3    H157538   1.666   0.311   1.541 -0.4494  0.0516 -1.0628
12041TIP3    H257539   1.813   0.342   1.563 -0.6493  0.0676  0.3481
12042TIP3   OH257540   2.422   1.180   5.025 -0.2256 -0.2117  0.6823
12042TIP3    H157541   2.489   1.188   4.957 -0.0516  0.0981  0.8888
12042TIP3    H257542   2.470   1.187   5.107 -0.4607 -0.3901  0.8365
12043TIP3   OH257543   6.034   6.149  11.959 -0.0409  0.1995  0.0784
12043TIP3    H157544   5.989   6.214  12.014 -2.1455 -0.2068 -1.0564
12043TIP3    H257545   6.070   6.200  11.886  1.1081  0.4781  0.8102
12044TIP3   OH257546   3.192   1.475   2.844 -0.8578  0.5921  0.1629
12044TIP3    H157547   3.199   1.421   2.922 -1.9248  0.0812 -0.0784
12044TIP3    H257548   3.271   1.530   2.846  0.2837 -0.9865  0.3806
12045TIP3   OH257549   0.527   0.050   3.666 -0.2387  0.5853  0.3119
12045TIP3    H157550   0.602   0.056   3.726  0.7904  1.4876 -0.9902
12045TIP3    H257551   0.535  -0.037   3.628 -0.0454  0.5469  0.4336
12046TIP3   OH257552   3.215   3.167   1.322 -0.1862  0.3506  0.0439
12046TIP3    H157553   3.215   3.168   1.227  1.0827 -1.5422 -0.0166
12046TIP3    H257554   3.134   3.212   1.346 -0.8030  0.3783 -1.9117
12047TIP3   OH257555   3.633   0.098   3.596  0.5152  0.2160  0.0174
12047TIP3    H157556   3.662   0.057   3.514 -0.7685 -2.0419  0.5914
12047TIP3    H257557   3.648   0.032   3.663  0.3626  1.5370  1.4180
12048TIP3   OH257558   4.521   2.213  11.592 -0.2673  0.1122  0.2178
12048TIP3    H157559   4.460   2.145  11.565 -1.8418  1.5793 -0.1475
12048TIP3    H257560   4.543   2.259  11.511  0.5107  0.2497  0.5015
12049TIP3   OH257561   1.728   5.963  14.923  0.0708  0.1419  0.5872
12049TIP3    H157562   1.680   5.882  14.905  0.8806  0.1901 -2.3690
12049TIP3    H257563   1.790   5.940  14.991 -0.1480 -1.5744  0.2521
12050TIP3   OH257564   0.829   2.299  11.303  0.3881 -0.2114  0.1815
12050TIP3    H157565   0.741   2.295  11.341  1.0707 -0.7651  1.7727
12050TIP3    H257566   0.815   2.330  11.213 -1.3817  0.1185  0.5403
12051TIP3   OH257567   2.732   5.627   1.573 -0.8509 -0.2806 -0.0788
12051TIP3    H157568   2.722   5.533   1.556 -1.0039  0.0092 -1.7894
12051TIP3    H257569   2.824   5.637   1.598 -1.4905 -1.2386  3.1243
12052TIP3   OH257570   5.341   4.248   2.531 -0.1587 -0.4069 -0.5368
12052TIP3    H157571   5.314   4.228   2.620  0.1780 -0.3685 -0.4273
12052TIP3    H257572   5.402   4.321   2.540  0.4914 -0.9219 -0.7281
12053TIP3   OH257573   0.117   4.372  14.068  0.3196  0.2122  0.0860
12053TIP3    H157574   0.157   4.459  14.068  0.2926  0.2559  1.8266
12053TIP3    H257575   0.131   4.339  14.156  0.5572 -1.6768 -0.6199
12054TIP3   OH257576   3.805   5.693  11.667  0.2068 -0.0533 -0.4495
12054TIP3    H157577   3.878   5.648  11.709 -0.2946  0.5801  1.1976
12054TIP3    H257578   3.763   5.741  11.738 -0.5329  1.3160 -1.7587
12055TIP3   OH257579   1.645   0.597   4.447  0.2951  0.2110 -0.0513
12055TIP3    H157580   1.676   0.686   4.463 -0.7550  0.5167  0.3448
12055TIP3    H257581   1.717   0.555   4.399  0.8074  1.2550 -0.2231
12056TIP3   OH257582   3.563   4.650   2.784  0.1543  0.5706 -0.6255
12056TIP3    H157583   3.568   4.685   2.695 -0.2845 -1.6161 -1.5718
12056TIP3    H257584   3.653   4.649   2.815  0.5262 -0.0495 -1.6638
12057TIP3   OH257585   4.937   6.593  16.258  0.4601 -0.2800  0.5016
12057TIP3    H157586   4.968   6.503  16.244  0.7614  0.1107 -1.6556
12057TIP3    H257587   4.846   6.583  16.286  0.0313 -1.2683 -1.1026
12058TIP3   OH257588   1.738   5.885  13.653 -0.1324 -0.2041 -0.2299
12058TIP3    H157589   1.672   5.909  13.718  0.3626 -0.7871  0.5113
12058TIP3    H257590   1.790   5.817  13.696 -0.5152 -1.4655 -1.6723
12059TIP3   OH257591   5.457   5.661   5.669  0.1237  0.0090 -0.0200
12059TIP3    H157592   5.461   5.735   5.730 -2.8546  1.0177 -0.8814
12059TIP3    H257593   5.464   5.701   5.582  0.4606 -0.9655 -0.4592
12060TIP3   OH257594   6.294   5.965  10.821 -0.2307  0.1049  0.1271
12060TIP3    H157595   6.239   6.001  10.751 -1.1800 -0.5645  0.5048
12060TIP3    H257596   6.353   6.037  10.844 -0.8241  0.7909 -0.4215
12061TIP3   OH257597   2.412   3.055  14.006  0.8311  0.1212  0.3905
12061TIP3    H157598   2.365   3.137  14.021  2.1455  0.7599  1.2842
12061TIP3    H257599   2.500   3.083  13.980  0.9844 -1.0242 -0.4256
12062TIP3   OH257600   2.238   2.105   4.660 -0.3160  0.3225  0.0465
12062TIP3    H157601   2.202   2.018   4.677 -0.1060  0.0248 -0.9380
12062TIP3    H257602   2.188   2.138   4.586  1.3073 -0.0745 -1.3084
12063TIP3   OH257603   6.501   5.654   2.699  0.2209 -0.6638  0.2802
12063TIP3    H157604   6.435   5.722   2.714  0.7450  0.1362 -0.8852
12063TIP3    H257605   6.474   5.613   2.617  2.1984  1.0257 -1.3371
12064TIP3   OH257606   0.033   6.431   3.537 -0.1484  0.4331  0.6771
12064TIP3    H157607   0.053   6.420   3.445 -0.3289  0.0823  0.6805
12064TIP3    H257608   0.012   6.524   3.546  1.0532  0.7312  0.5947
12065TIP3   OH257609   5.655   5.059   4.590 -0.0926 -0.5907  0.3649
12065TIP3    H157610   5.631   5.151   4.580  0.8087 -0.5608 -2.0591
12065TIP3    H257611   5.730   5.060   4.649 -0.5206  0.1431  0.9104
12066TIP3   OH257612   4.433   0.711  16.949 -0.2387  0.2495  0.3515
12066TIP3    H157613   4.515   0.760  16.953 -0.6698  1.2091 -1.7776
12066TIP3    H257614   4.438   0.661  16.868 -1.3306 -0.5159  0.7250
12067TIP3   OH257615   0.430   0.902  12.710 -0.0943  0.2538  0.7403
12067TIP3    H157616   0.373   0.836  12.749  0.3906 -0.4744  0.2370
12067TIP3    H257617   0.431   0.974  12.774  0.3770 -0.7463  1.8990
12068TIP3   OH257618   0.774   1.054  11.673 -0.6988 -0.3343 -0.2710
12068TIP3    H157619   0.821   0.979  11.636 -1.1239 -0.6633 -0.1501
12068TIP3    H257620   0.807   1.129  11.623  0.9902 -0.3417  0.7246
12069TIP3   OH257621   6.502   3.836   1.921 -0.0915  0.0556 -0.3416
12069TIP3    H157622   6.487   3.928   1.896 -1.0230  0.2955  1.0029
12069TIP3    H257623   6.559   3.802   1.852 -1.6589  0.9801 -2.1859
12070TIP3   OH257624   3.344   4.885   4.163 -0.1161 -0.1168 -0.3770
12070TIP3    H157625   3.333   4.979   4.175 -1.0620 -0.1015 -1.2452
12070TIP3    H257626   3.383   4.855   4.246 -1.3001  0.7858  0.5455
12071TIP3   OH257627   3.590   3.794   3.376 -0.1960 -0.5556  0.6267
12071TIP3    H157628   3.532   3.848   3.429  0.3880 -0.3412  1.0655
12071TIP3    H257629   3.603   3.846   3.296 -1.5765 -1.1642 -0.0187
12072TIP3   OH257630   1.554   3.711  10.580  0.1023  0.7236 -0.5399
12072TIP3    H157631   1.474   3.706  10.633  0.4660 -0.7404 -0.0839
12072TIP3    H257632   1.537   3.652  10.506  1.1166 -0.3777  0.0804
12073TIP3   OH257633   0.288   5.652   1.153 -0.7039 -1.1121  0.1870
12073TIP3    H157634   0.357   5.717   1.148  0.2597 -2.1321 -0.2732
12073TIP3    H257635   0.250   5.651   1.065 -0.6872 -1.2132  0.1811
12074TIP3   OH257636   4.889   1.559   2.888 -0.4218 -0.2605 -0.0564
12074TIP3    H157637   4.952   1.488   2.900  0.9185  0.0678 -3.9331
12074TIP3    H257638   4.924   1.632   2.939 -0.8477 -1.7025  2.4818
12075TIP3   OH257639   5.009   3.563   2.657  0.3577 -0.1806  0.6048
12075TIP3    H157640   4.978   3.527   2.574  0.8635  1.5220 -0.3654
12075TIP3    H257641   4.931   3.567   2.712 -0.4857  0.8251 -0.6049
12076TIP3   OH257642   0.124   4.010   3.722 -0.1244 -0.5085  0.2628
12076TIP3    H157643   0.065   3.935   3.717  0.2494 -0.7724 -0.4581
12076TIP3    H257644   0.179   4.002   3.644 -0.1252  0.5622  0.1340
12077TIP3   OH257645   4.731   2.477   1.313 -0.3001  0.0430  0.0337
12077TIP3    H157646   4.817   2.437   1.330  0.4980  0.5106 -2.4806
12077TIP3    H257647   4.732   2.557   1.365  0.6729 -0.0792  0.2296
12078TIP3   OH257648   3.428   5.559  12.339  0.3349  0.5677 -0.3365
12078TIP3    H157649   3.401   5.651  12.340 -0.1946  0.4334  1.3550
12078TIP3    H257650   3.419   5.531  12.430 -3.0963 -2.1867 -1.3038
12079TIP3   OH257651   2.685   1.596   1.336 -0.3156 -0.5895 -0.0278
12079TIP3    H157652   2.755   1.532   1.350  0.2088 -0.0831 -0.2920
12079TIP3    H257653   2.699   1.661   1.405 -0.4177 -0.3986 -0.1876
12080TIP3   OH257654   0.656   2.499   3.888  0.1498  1.5970 -0.3929
12080TIP3    H157655   0.700   2.475   3.807  1.5184 -1.1661  1.0369
12080TIP3    H257656   0.579   2.442   3.891  1.2718  0.0501  1.1732
12081TIP3   OH257657   4.957   0.137   0.581 -0.2684 -0.1062 -0.0321
12081TIP3    H157658   4.940   0.230   0.593  1.8106  0.3678 -0.4631
12081TIP3    H257659   4.923   0.096   0.661  0.5799  1.2609  1.0755
12082TIP3   OH257660   5.602   0.884   2.688 -0.3138 -0.2749  0.4148
12082TIP3    H157661   5.687   0.868   2.729  1.7191  1.2205 -2.7921
12082TIP3    H257662   5.585   0.977   2.705 -0.6224 -0.2438 -0.0578
12083TIP3   OH257663   5.026   2.165  11.050 -0.0463  0.5038  0.4699
12083TIP3    H157664   4.951   2.210  11.011 -1.1306 -1.4797  0.1545
12083TIP3    H257665   4.987   2.108  11.117  1.0284 -1.3894 -0.4481
12084TIP3   OH257666   2.660   6.299  16.622  0.6316 -0.6419  0.2544
12084TIP3    H157667   2.568   6.298  16.648  0.7253 -2.1917  0.6465
12084TIP3    H257668   2.694   6.382  16.656 -0.1899 -0.8616  1.6868
12085TIP3   OH257669   0.328   2.573  13.013  0.4813  0.3480 -0.0139
12085TIP3    H157670   0.364   2.503  13.068  0.9559  0.2255 -0.4750
12085TIP3    H257671   0.251   2.603  13.061  1.7892  1.3947  1.5953
12086TIP3   OH257672   1.416   1.547   2.525  0.2564 -0.5430  0.4820
12086TIP3    H157673   1.334   1.593   2.537  0.8035  0.5747  0.0413
12086TIP3    H257674   1.454   1.542   2.613  1.1936  1.8013  0.2788
12087TIP3   OH257675   4.529   2.973  14.678  1.3287 -0.3294 -0.6357
12087TIP3    H157676   4.554   3.059  14.644  2.2678 -0.0033  0.7745
12087TIP3    H257677   4.559   2.974  14.769  0.9938 -2.0072 -0.4803
12088TIP3   OH257678   6.409   0.153  13.648  0.5685 -0.3374  0.0351
12088TIP3    H157679   6.379   0.159  13.557 -0.8536  0.9917  0.5530
12088TIP3    H257680   6.331   0.125  13.697  1.2514 -0.7924  0.8870
12089TIP3   OH257681   5.154   1.261  15.692 -0.2489 -0.0678 -0.5877
12089TIP3    H157682   5.187   1.191  15.636 -0.7635  0.1454 -1.1660
12089TIP3    H257683   5.232   1.300  15.731  0.0016 -2.1349  1.1882
12090TIP3   OH257684   2.422   1.484  11.459  0.0138  0.4340  0.0976
12090TIP3    H157685   2.377   1.480  11.543  0.2786  0.3194  0.2356
12090TIP3    H257686   2.369   1.543  11.406 -0.8172 -0.4367 -0.0577
12091TIP3   OH257687   3.346   5.711  14.506  0.0303 -0.2938 -0.1222
12091TIP3    H157688   3.369   5.758  14.586  1.5058 -0.6339 -0.3140
12091TIP3    H257689   3.287   5.770  14.459 -1.6953 -0.5207  1.6714
12092TIP3   OH257690   4.129   1.000  14.804  0.2064 -0.0286  0.1533
12092TIP3    H157691   4.171   0.986  14.719  0.0089  1.6277 -0.2371
12092TIP3    H257692   4.193   1.052  14.854 -0.7846  1.3671  0.0253
12093TIP3   OH257693   4.716   0.862  14.142  0.6120  0.2990 -0.3074
12093TIP3    H157694   4.769   0.912  14.080  0.9997  1.0072  0.5696
12093TIP3    H257695   4.628   0.862  14.103  0.7506  1.0914 -0.6549
12094TIP3   OH257696   3.107   4.932  16.938 -0.2452 -0.1162 -0.2459
12094TIP3    H157697   3.116   4.900  16.848 -2.2083 -2.3611  0.2691
12094TIP3    H257698   3.098   5.027  16.928 -0.7374 -0.3235 -2.4452
12095TIP3   OH257699   2.806   1.038   2.691 -0.0556  0.1770  0.7546
12095TIP3    H157700   2.716   1.067   2.703 -0.8260 -1.8732  0.1953
12095TIP3    H257701   2.830   1.069   2.604 -0.2314  0.6692  0.8780
12096TIP3   OH257702   5.821   2.940   5.811 -0.3407 -0.2927  0.1868
12096TIP3    H157703   5.835   2.869   5.873 -0.9659 -1.3898 -0.8900
12096TIP3    H257704   5.765   3.002   5.857  0.1045 -0.5414  1.0916
12097TIP3   OH257705   2.995   6.675  15.720  0.7262 -0.1577  0.5050
12097TIP3    H157706   2.903   6.696  15.702  0.7415  0.0398  0.6593
12097TIP3    H257707   3.001   6.676  15.815  0.0818 -3.4985  0.7056
12098TIP3   OH257708   0.765   1.076   4.945 -0.6683  0.5796 -0.0699
12098TIP3    H157709   0.855   1.080   4.913 -0.4498 -1.8191  0.0456
12098TIP3    H257710   0.738   1.167   4.952  1.3392  1.3344 -1.2393
12099TIP3   OH257711   1.017   1.360   3.053 -0.2004 -0.2371 -0.1680
12099TIP3    H157712   0.946   1.325   3.107 -0.1385 -2.9814 -1.6921
12099TIP3    H257713   1.095   1.315   3.084  0.5657  1.2125  0.1027
12100TIP3   OH257714   4.194   6.103  12.259 -0.2798 -0.0395 -0.1985
12100TIP3    H157715   4.174   6.131  12.170  0.2998  1.1322  0.0085
12100TIP3    H257716   4.153   6.171  12.314 -1.9182 -1.5261  0.5178
12101TIP3   OH257717   4.410   2.213  15.599  0.4801  0.1541 -0.1867
12101TIP3    H157718   4.504   2.226  15.614  0.5954 -0.7365 -0.0498
12101TIP3    H257719   4.382   2.293  15.555  1.8716 -0.5908 -2.6777
12102TIP3   OH257720   1.582   0.691  10.951  0.0162 -0.6088  0.0350
12102TIP3    H157721   1.669   0.702  10.912  0.0535 -0.1130  0.2488
12102TIP3    H257722   1.583   0.747  11.029 -0.9292  0.4477 -0.6654
12103TIP3   OH257723   3.861   3.644  10.827 -0.4502 -0.0236  0.0422
12103TIP3    H157724   3.946   3.681  10.804 -0.0545  1.0533  2.8375
12103TIP3    H257725   3.800   3.683  10.764  0.5221  2.6469  0.6153
12104TIP3   OH257726   6.110   1.296   5.218 -0.1592 -0.4877  0.7597
12104TIP3    H157727   6.035   1.320   5.163 -0.9480 -0.4143  1.8506
12104TIP3    H257728   6.105   1.201   5.225  0.2891 -0.5545  0.2251
12105TIP3   OH257729   0.205   1.679   3.873 -0.0492 -0.3005 -0.5905
12105TIP3    H157730   0.247   1.593   3.884  0.0825 -0.4307 -1.9422
12105TIP3    H257731   0.179   1.704   3.961 -1.3598 -2.3744 -0.3312
12106TIP3   OH257732   1.030   1.557   3.802  0.4781  0.0237  0.4200
12106TIP3    H157733   1.048   1.601   3.885 -1.7646 -0.9876  1.5167
12106TIP3    H257734   1.069   1.470   3.812 -1.3579 -0.7486  1.1992
12107TIP3   OH257735   1.455   0.940  15.421  0.1418  0.0713  0.1696
12107TIP3    H157736   1.378   0.977  15.465  0.1662  1.1005 -0.6038
12107TIP3    H257737   1.420   0.899  15.342  0.1348 -1.5084  0.9490
12108TIP3   OH257738   3.345   3.805  15.187 -0.0520  0.9314 -0.0937
12108TIP3    H157739   3.360   3.764  15.101 -1.5732  0.8791 -0.3570
12108TIP3    H257740   3.329   3.731  15.246  0.5894  0.9906  0.1619
12109TIP3   OH257741   5.996   6.010  14.568 -0.0811  0.1607 -0.3140
12109TIP3    H157742   6.083   5.974  14.551  0.0162 -0.3442  1.1134
12109TIP3    H257743   5.998   6.097  14.528  0.5487 -0.4194 -1.6046
12110TIP3   OH257744   4.020   6.160   5.646 -0.1282 -0.0712  0.2020
12110TIP3    H157745   3.999   6.174   5.739 -0.8527  0.3426 -0.0210
12110TIP3    H257746   4.115   6.144   5.646 -0.2644 -1.0452  1.1233
12111TIP3   OH257747   0.958   0.423   2.982 -0.1854 -0.3245  0.8628
12111TIP3    H157748   0.905   0.391   2.909 -0.0281  0.7975  0.2284
12111TIP3    H257749   0.905   0.405   3.059 -0.1230 -2.0324  0.5550
12112TIP3   OH257750   4.223   3.842  14.658  0.3485  0.5182  0.1586
12112TIP3    H157751   4.251   3.905  14.724  1.2842  0.6648 -0.3699
12112TIP3    H257752   4.241   3.884  14.575  0.5216 -0.2525 -0.2045
12113TIP3   OH257753   5.893   5.144  14.273 -0.2829  0.0420 -0.0650
12113TIP3    H157754   5.815   5.106  14.314  0.0833 -0.6188  0.0384
12113TIP3    H257755   5.864   5.229  14.239 -1.1151 -0.3073 -0.2571
12114TIP3   OH257756   0.189   1.107  11.671 -0.1733  0.4749 -0.2416
12114TIP3    H157757   0.197   1.065  11.757  1.5279 -0.1783 -0.6884
12114TIP3    H257758   0.260   1.172  11.670 -0.4009  0.7169 -1.0281
12115TIP3   OH257759   4.492   3.608   2.586  0.0435  0.2356 -0.0648
12115TIP3    H157760   4.423   3.572   2.642 -2.0024  3.9387  0.1560
12115TIP3    H257761   4.482   3.562   2.503 -0.1573 -1.9218  1.1001
12116TIP3   OH257762   1.928   0.840  17.286  0.3946 -0.1746  0.5228
12116TIP3    H157763   1.889   0.842  17.373  0.3144  1.3603  0.4659
12116TIP3    H257764   1.855   0.853  17.226  0.1178 -3.1343  0.0447
12117TIP3   OH257765   2.962   3.101  13.541  0.2157 -0.8276 -0.6896
12117TIP3    H157766   2.959   3.057  13.457 -2.5093  0.0464 -1.1607
12117TIP3    H257767   2.987   3.191  13.520 -1.8863 -0.2256 -0.8492
12118TIP3   OH257768   1.658   6.636   2.496  0.4473  0.4164 -0.4370
12118TIP3    H157769   1.565   6.636   2.474 -0.0475  1.7769  1.4171
12118TIP3    H257770   1.702   6.647   2.412 -1.1288  1.1158 -1.2159
12119TIP3   OH257771   2.365   4.099   1.488 -0.5944 -0.6963 -0.1564
12119TIP3    H157772   2.451   4.095   1.446 -0.4569 -0.3593  0.0821
12119TIP3    H257773   2.343   4.192   1.487 -0.7262 -0.7219  0.2381
12120TIP3   OH257774   1.178   4.455   3.386 -0.6210  0.5173 -0.8595
12120TIP3    H157775   1.207   4.391   3.451 -1.3778  0.0644 -0.9586
12120TIP3    H257776   1.085   4.469   3.405 -0.6166  1.1030 -1.2435
12121TIP3   OH257777   5.606   1.704   0.272 -0.7601  0.4690  0.5945
12121TIP3    H157778   5.540   1.736   0.210 -0.4160  0.0760  0.0075
12121TIP3    H257779   5.582   1.613   0.289  1.7069 -1.0495 -2.7032
12122TIP3   OH257780   5.979   0.846  12.102  0.4062  0.3530  0.3186
12122TIP3    H157781   6.034   0.924  12.089 -0.7484  1.1898  0.3004
12122TIP3    H257782   6.041   0.775  12.115  1.5048  1.1650 -0.3074
12123TIP3   OH257783   2.279   2.065   2.309  0.9675  0.0312 -0.4856
12123TIP3    H157784   2.339   1.991   2.312  0.1804 -0.7217 -1.8284
12123TIP3    H257785   2.222   2.053   2.385  2.7207  0.9996  1.0500
12124TIP3   OH257786   3.783   3.151   1.485 -0.0180  0.4172 -0.5156
12124TIP3    H157787   3.752   3.141   1.575 -0.1382  3.3623 -0.1218
12124TIP3    H257788   3.840   3.076   1.470 -2.4464 -1.8556  0.8717
12125TIP3   OH257789   2.384   4.977   3.259  0.6119 -0.4247 -0.2443
12125TIP3    H157790   2.340   5.031   3.193 -0.3415 -0.3033  0.4694
12125TIP3    H257791   2.316   4.916   3.289  0.4074  0.7908  2.0075
12126TIP3   OH257792   4.171   6.151   2.404 -0.1636 -0.0344 -0.9572
12126TIP3    H157793   4.210   6.098   2.475 -0.0503  1.7603  0.3923
12126TIP3    H257794   4.213   6.118   2.325 -0.4304 -2.2490 -0.2511
12127TIP3   OH257795   1.967   4.983  14.338 -0.1438 -0.2083 -0.2515
12127TIP3    H157796   1.906   4.936  14.283  0.0473  0.5212 -1.1013
12127TIP3    H257797   2.053   4.968  14.298  0.1508 -0.6253  0.5106
12128TIP3   OH257798   3.950   3.629   1.396 -0.3950  0.3613 -0.7442
12128TIP3    H157799   3.902   3.547   1.382 -1.3310  0.4936  1.3326
12128TIP3    H257800   3.881   3.695   1.405  0.3334  1.3183 -1.8988
12129TIP3   OH257801   2.436   0.919  15.449  0.2077 -0.4651 -0.2315
12129TIP3    H157802   2.510   0.977  15.429  0.2302 -0.0238  1.0701
12129TIP3    H257803   2.416   0.877  15.365  0.3531  1.2316 -1.1605
12130TIP3   OH257804   5.027   1.432   6.841  0.2428  0.0785  0.2385
12130TIP3    H157805   5.083   1.447   6.917 -0.7955  2.2596  0.6277
12130TIP3    H257806   5.089   1.416   6.769  1.2865 -0.0870  1.1441
12131TIP3   OH257807   5.295   2.065  13.145 -0.2841  0.5812  0.3612
12131TIP3    H157808   5.356   2.138  13.127  1.6104 -0.5459  1.8344
12131TIP3    H257809   5.301   2.010  13.067  0.9150  0.3095  0.6134
12132TIP3   OH257810   2.075   2.588   3.448 -0.2340  0.9862  0.8918
12132TIP3    H157811   2.072   2.640   3.368  1.7118 -0.0321  0.0939
12132TIP3    H257812   1.999   2.531   3.443 -0.3773  1.2454 -0.0177
12133TIP3   OH257813   3.821   6.503  16.300 -0.9466  0.0153 -0.1146
12133TIP3    H157814   3.907   6.533  16.330 -0.7357  0.2980 -0.9778
12133TIP3    H257815   3.771   6.490  16.380  0.7390 -2.8386  0.6304
12134TIP3   OH257816   1.190   2.669  15.421 -0.5399  0.4282  0.2028
12134TIP3    H157817   1.210   2.714  15.502 -2.0252  1.4670  0.0391
12134TIP3    H257818   1.251   2.705  15.357 -0.7904  1.2097  0.3937
12135TIP3   OH257819   0.218   2.843   3.186  0.0951 -0.4352  0.3722
12135TIP3    H157820   0.248   2.925   3.146 -0.8152 -0.0744  0.4078
12135TIP3    H257821   0.129   2.831   3.153  0.0542 -1.1761  0.7295
12136TIP3   OH257822   5.555   2.653   4.942 -0.1403  0.2715  0.2704
12136TIP3    H157823   5.627   2.674   5.001 -1.9367  0.3208  2.6296
12136TIP3    H257824   5.563   2.559   4.927  0.2865  0.2274  0.7354
12137TIP3   OH257825   4.925   0.954  14.584  0.4282 -0.2946  0.5434
12137TIP3    H157826   4.861   0.933  14.653 -1.0772 -0.7320 -0.9114
12137TIP3    H257827   4.893   0.906  14.507  0.9969  1.6001 -0.9626
12138TIP3   OH257828   4.332   0.362  16.989  0.8446  0.0574 -0.1565
12138TIP3    H157829   4.306   0.308  16.915  1.2993  2.2135 -2.0213
12138TIP3    H257830   4.428   0.368  16.981  0.8323  0.8421  0.2148
12139TIP3   OH257831   3.912   6.328   3.886 -0.3326  0.6914 -0.2240
12139TIP3    H157832   3.928   6.357   3.976 -1.2721  3.5202 -0.8708
12139TIP3    H257833   3.881   6.238   3.896 -1.5640  1.2924  2.4048
12140TIP3   OH257834   3.063   2.704  16.139  0.3027  0.0336  0.3323
12140TIP3    H157835   3.038   2.744  16.056 -0.6609  2.5195  1.7097
12140TIP3    H257836   3.089   2.778  16.195  1.4830 -1.5886  2.0924
12141TIP3   OH257837   2.474   3.244   0.610  0.1923 -0.4268  0.1765
12141TIP3    H157838   2.484   3.222   0.703  0.4248 -1.2146 -0.0300
12141TIP3    H257839   2.383   3.221   0.590 -0.1176  0.5552  0.4176
12142TIP3   OH257840   4.476   2.234   1.322  0.5616 -0.1588  0.5994
12142TIP3    H157841   4.471   2.199   1.411  0.0172  2.3155  1.6306
12142TIP3    H257842   4.519   2.319   1.332 -0.4358  0.6488 -1.3515
12143TIP3   OH257843   1.401   5.188  12.656  0.1151 -0.5213  0.0362
12143TIP3    H157844   1.329   5.129  12.679 -0.5824 -0.7439 -2.4233
12143TIP3    H257845   1.395   5.259  12.720 -1.4872 -1.1749  0.6781
12144TIP3   OH257846   5.014   0.584  11.522 -0.4713  0.3638  0.5994
12144TIP3    H157847   5.073   0.546  11.457 -1.2122  1.6132 -0.8567
12144TIP3    H257848   5.072   0.629  11.583  0.3393 -2.0358  1.7314
12145TIP3   OH257849   3.846   4.482  10.575  0.6485  0.3152  0.0368
12145TIP3    H157850   3.793   4.407  10.601  1.0031 -0.3586 -1.1162
12145TIP3    H257851   3.928   4.444  10.543  0.8378  1.1814 -0.5510
12146TIP3   OH257852   0.273   4.411   0.528  0.7431 -0.0576 -0.2977
12146TIP3    H157853   0.363   4.383   0.514  1.3948  1.6084  0.2954
12146TIP3    H257854   0.249   4.456   0.447  0.1946 -1.0554 -0.7057
12147TIP3   OH257855   1.455   0.684  10.360 -0.1533 -0.3424 -0.2959
12147TIP3    H157856   1.495   0.732  10.433 -2.5947  0.2733  0.7504
12147TIP3    H257857   1.432   0.752  10.297  0.1971 -0.6563 -0.7668
12148TIP3   OH257858   0.819   0.723   3.518  0.2280 -0.2200  0.2710
12148TIP3    H157859   0.728   0.743   3.535  0.2195 -1.6303  2.3028
12148TIP3    H257860   0.867   0.803   3.539 -0.4044  0.0521  0.6620
12149TIP3   OH257861   1.039   2.740  11.993  0.1259 -0.1970  0.0607
12149TIP3    H157862   0.957   2.724  11.945  0.5497 -1.9739 -0.1480
12149TIP3    H257863   1.105   2.751  11.925  0.2434  0.1371  0.2305
12150TIP3   OH257864   0.311   0.968   1.880 -0.4034 -0.0679 -0.1913
12150TIP3    H157865   0.275   1.040   1.932 -1.1632  0.0463 -0.8440
12150TIP3    H257866   0.259   0.970   1.799 -0.6119 -1.5224 -0.1083
12151TIP3   OH257867   0.484   3.507  13.440 -0.3661  0.2664 -0.3128
12151TIP3    H157868   0.415   3.573  13.435  0.5311  1.1330 -3.0016
12151TIP3    H257869   0.449   3.440  13.499 -2.6459  1.6152 -0.0132
12152TIP3   OH257870   4.928   0.405   2.933 -0.4465 -0.1094 -0.2986
12152TIP3    H157871   4.962   0.447   3.012  0.1401 -2.4622  0.8045
12152TIP3    H257872   4.987   0.433   2.863  0.5790  0.0092  0.5953
12153TIP3   OH257873   0.473   3.162  17.149 -0.2630  0.0763 -0.5658
12153TIP3    H157874   0.402   3.137  17.089  0.5784 -0.2997 -1.4402
12153TIP3    H257875   0.429   3.204  17.223 -1.4117 -0.3992 -0.9591
12154TIP3   OH257876   3.004   1.109   1.876 -0.1096  0.2997  0.5171
12154TIP3    H157877   3.030   1.090   1.786 -0.0758  1.3062  0.3048
12154TIP3    H257878   2.992   1.023   1.916 -0.9216 -0.1619 -0.6688
12155TIP3   OH257879   4.595   4.083  11.183  0.0552  0.2460  0.1384
12155TIP3    H157880   4.597   4.177  11.199  0.6098  0.4979 -1.2602
12155TIP3    H257881   4.543   4.074  11.103  0.4745 -0.5839 -0.0449
12156TIP3   OH257882   0.453   5.877   3.368  0.7084  0.5031  0.2100
12156TIP3    H157883   0.515   5.824   3.419 -0.6109  1.4058  2.9573
12156TIP3    H257884   0.506   5.946   3.329  1.6039  0.7700  1.8122
12157TIP3   OH257885   1.889   4.080  10.950 -0.4588  0.3053  0.9566
12157TIP3    H157886   1.858   3.998  10.990  2.2062 -0.3040  1.9929
12157TIP3    H257887   1.980   4.061  10.925  0.5379  3.1892  2.0301
12158TIP3   OH257888   0.371   4.610   3.923  0.1932 -0.2365  0.2129
12158TIP3    H157889   0.416   4.547   3.866  0.6719 -0.9650  1.3555
12158TIP3    H257890   0.278   4.597   3.904  0.1383 -2.6647  1.7305
12159TIP3   OH257891   0.206   5.038  15.384 -0.6052  0.5585 -0.1386
12159TIP3    H157892   0.296   5.023  15.355 -0.1495  0.8989  1.0156
12159TIP3    H257893   0.163   5.079  15.309 -0.1152 -0.6079 -1.0870
12160TIP3   OH257894   6.745   1.481   5.791 -0.3985 -0.2262  0.1567
12160TIP3    H157895   6.805   1.461   5.719 -1.2674 -1.6462 -0.2025
12160TIP3    H257896   6.715   1.396   5.821 -1.4277  0.4260  1.0376
12161TIP3   OH257897   1.590   1.127  12.010 -0.1622 -0.0306 -0.6048
12161TIP3    H157898   1.498   1.121  12.034 -0.3750 -1.1097 -1.6308
12161TIP3    H257899   1.591   1.116  11.914  0.8920  1.5092 -0.8138
12162TIP3   OH257900   2.157   4.319   4.115 -0.2491 -0.2232  0.6995
12162TIP3    H157901   2.089   4.376   4.079  0.8772  0.9061  0.3013
12162TIP3    H257902   2.116   4.232   4.119 -2.0247  0.5936  1.3819
12163TIP3   OH257903   5.718   2.004  15.123  0.3690 -0.0617  0.4092
12163TIP3    H157904   5.673   2.061  15.185  1.6956  0.7996  0.6237
12163TIP3    H257905   5.655   1.935  15.104 -0.6975  0.6054  1.3781
12164TIP3   OH257906   1.529   3.707   3.541  0.0613 -0.3147  0.0911
12164TIP3    H157907   1.581   3.781   3.573 -1.5376  1.0422 -0.3233
12164TIP3    H257908   1.548   3.703   3.447  0.2114 -0.5099  0.1272
12165TIP3   OH257909   1.716   3.978  14.717 -0.0238  0.1231 -0.0484
12165TIP3    H157910   1.802   3.959  14.754 -0.8109  0.7724  2.2712
12165TIP3    H257911   1.660   3.907  14.746  0.1428 -1.6966 -3.6496
12166TIP3   OH257912   1.197   5.364  13.481 -0.1597  0.2506  0.3859
12166TIP3    H157913   1.109   5.327  13.490  0.8044 -2.2562  0.1487
12166TIP3    H257914   1.216   5.360  13.388 -0.5734  2.8859  0.1120
12167TIP3   OH257915   6.124   2.531   1.066 -0.0389 -0.4070 -0.4205
12167TIP3    H157916   6.082   2.536   1.152  0.0914 -1.9199 -0.2416
12167TIP3    H257917   6.053   2.506   1.006  0.0962 -0.4941 -0.5458
12168TIP3   OH257918   0.022   4.500   2.075 -0.6688 -0.0071 -0.7821
12168TIP3    H157919   0.081   4.573   2.096 -1.5158  0.9522 -1.6026
12168TIP3    H257920   0.078   4.423   2.075 -0.0540  0.3324  1.8760
12169TIP3   OH257921   3.819   3.063   2.838 -0.2494  0.2187  0.2188
12169TIP3    H157922   3.860   3.002   2.776 -1.0296  0.1170 -0.2065
12169TIP3    H257923   3.806   3.011   2.917 -0.9398 -0.1885 -0.1525
12170TIP3   OH257924   3.356   2.659  16.205 -0.7557 -0.1098 -0.1163
12170TIP3    H157925   3.304   2.615  16.137 -0.8830  0.7162 -0.5558
12170TIP3    H257926   3.429   2.699  16.159 -0.3361 -0.3127  0.3580
12171TIP3   OH257927   3.027   4.678   0.056 -0.5284  0.0758 -0.9236
12171TIP3    H157928   3.093   4.615   0.083 -0.0558 -0.0371 -2.2750
12171TIP3    H257929   2.944   4.634   0.073 -0.2178 -0.5941 -1.1215
12172TIP3   OH257930   3.290   5.050  16.074 -0.0228  0.7835 -0.2765
12172TIP3    H157931   3.255   5.120  16.130 -0.8057  0.1184  0.0807
12172TIP3    H257932   3.238   4.973  16.097  1.4621 -0.1533  0.0120
12173TIP3   OH257933   1.511   5.413  16.055  0.1601  0.0188 -0.0019
12173TIP3    H157934   1.526   5.478  15.986 -0.9984 -0.1658 -0.4460
12173TIP3    H257935   1.450   5.456  16.115  0.1980 -0.2815  0.2553
12174TIP3   OH257936   6.043   2.074   3.295 -0.4101 -0.0031 -0.1269
12174TIP3    H157937   5.994   2.112   3.368  1.1455  1.2512  0.3195
12174TIP3    H257938   6.116   2.028   3.338  0.4315  0.6161 -0.8677
12175TIP3   OH257939   4.022   3.640  16.937  0.3000 -0.0678  0.4056
12175TIP3    H157940   4.110   3.606  16.955  0.9271  1.8623  1.1482
12175TIP3    H257941   3.963   3.577  16.979  1.3333 -0.9895  0.5260
12176TIP3   OH257942   2.421   4.896  13.937  0.0646 -0.1981  0.5069
12176TIP3    H157943   2.440   4.929  14.025  0.3204  0.0556  0.3575
12176TIP3    H257944   2.383   4.971  13.891  1.8583  0.3125 -0.2387
12177TIP3   OH257945   1.961   4.220   6.121  0.2777  0.1627 -0.2631
12177TIP3    H157946   1.912   4.278   6.180  0.3530 -0.0171 -0.0238
12177TIP3    H257947   1.912   4.138   6.121  0.2747  0.1640 -0.4579
12178TIP3   OH257948   1.126   4.033   0.110 -0.0156  0.1309 -0.3660
12178TIP3    H157949   1.100   4.114   0.066 -0.7917  0.1598  0.1221
12178TIP3    H257950   1.200   4.059   0.166 -0.1960  0.4848 -0.2885
12179TIP3   OH257951   4.848   5.240   5.807 -0.2866 -0.3234 -0.1364
12179TIP3    H157952   4.850   5.192   5.890 -0.3511  0.0784  0.0979
12179TIP3    H257953   4.772   5.206   5.761  0.5250 -1.5470 -0.6296
12180TIP3   OH257954   2.886   0.976   4.035 -0.5770 -0.1927  0.1206
12180TIP3    H157955   2.944   1.043   3.999 -2.4509  1.0878 -0.6446
12180TIP3    H257956   2.858   1.011   4.119 -1.0760 -0.3169  0.0060
12181TIP3   OH257957   0.206   1.284  14.603 -0.2322  0.0517  0.1331
12181TIP3    H157958   0.113   1.278  14.622 -0.0690 -1.5223  0.5699
12181TIP3    H257959   0.224   1.210  14.546  0.5751  0.9085 -0.7585
12182TIP3   OH257960   0.095   0.508   1.006 -0.2246  0.3822 -0.3114
12182TIP3    H157961   0.028   0.573   1.029 -1.1603 -0.7337  0.1891
12182TIP3    H257962   0.172   0.535   1.058 -0.9711  0.4212  0.8109
12183TIP3   OH257963   3.746   1.944  14.805 -0.4137  0.0349 -0.6392
12183TIP3    H157964   3.651   1.952  14.796 -0.6758  1.7467  2.3664
12183TIP3    H257965   3.761   1.851  14.819 -1.7043 -0.2158 -0.8098
12184TIP3   OH257966   3.907   0.932   4.029  0.0941  0.2113  0.6412
12184TIP3    H157967   3.959   0.892   3.959  0.3241 -0.4216  1.1622
12184TIP3    H257968   3.817   0.932   3.995 -0.0057 -1.2689  0.8354
12185TIP3   OH257969   2.614   0.873   1.613 -0.0810 -0.3386  0.1553
12185TIP3    H157970   2.708   0.861   1.601 -0.1284  0.9311 -1.8564
12185TIP3    H257971   2.603   0.966   1.630 -1.0488 -0.2777 -0.7143
12186TIP3   OH257972   6.459   5.113   5.571 -0.0688  0.1156 -0.7039
12186TIP3    H157973   6.449   5.202   5.537 -0.4062  0.5854  0.5826
12186TIP3    H257974   6.503   5.066   5.500  0.6971  1.4548 -1.1580
12187TIP3   OH257975   5.507   1.744   3.207 -0.0324 -0.0644 -0.1797
12187TIP3    H157976   5.576   1.806   3.232 -0.5098 -0.0874  1.2926
12187TIP3    H257977   5.426   1.790   3.225 -0.4347 -1.6803  2.7236
12188TIP3   OH257978   5.864   6.544  12.402 -0.3428  0.0062  0.6310
12188TIP3    H157979   5.931   6.547  12.334 -1.1528 -1.6943 -0.2975
12188TIP3    H257980   5.857   6.635  12.432  2.2399  0.2605  0.6651
12189TIP3   OH257981   0.013   2.118   3.925  0.3755 -0.0478 -0.2618
12189TIP3    H157982  -0.029   2.038   3.958  0.5895  0.5381  1.5523
12189TIP3    H257983  -0.003   2.116   3.831 -0.8024 -1.5348 -0.0796
12190TIP3   OH257984   3.074   5.991   2.807  0.0851  0.1437 -0.1812
12190TIP3    H157985   3.027   6.002   2.890  1.1831 -1.1066  0.6537
12190TIP3    H257986   3.129   6.069   2.800 -1.1404  0.9986 -0.5276
12191TIP3   OH257987   2.079   5.506   1.373 -0.9248  0.4086  0.5602
12191TIP3    H157988   2.049   5.540   1.289 -0.0578  2.3226  0.9666
12191TIP3    H257989   2.174   5.506   1.366 -0.8627 -0.2876  1.2392
12192TIP3   OH257990   1.352   2.262  13.630  0.4063  0.1183  0.2725
12192TIP3    H157991   1.344   2.307  13.714 -0.6478  1.9101 -0.7437
12192TIP3    H257992   1.440   2.283  13.600  1.4390 -1.9013  1.6103
12193TIP3   OH257993   6.724   0.659  12.610 -0.3988  0.2175  0.3770
12193TIP3    H157994   6.792   0.616  12.560 -0.3370 -0.4124  0.9890
12193TIP3    H257995   6.644   0.644  12.561 -0.5479 -1.4782  1.0729
12194TIP3   OH257996   1.496   3.956  10.806  0.3646 -0.0074 -0.3330
12194TIP3    H157997   1.422   3.896  10.818  0.0470  0.8158  2.7850
12194TIP3    H257998   1.562   3.904  10.761  0.3976 -3.0661  2.8397
12195TIP3   OH257999   4.009   1.828  14.547 -0.1450  0.8561 -0.1904
12195TIP3    H158000   4.012   1.889  14.473 -0.2677  1.2035  0.0924
12195TIP3    H258001   4.092   1.841  14.593  0.4040 -0.1230 -0.8712
12196TIP3   OH258002   0.327   2.011  15.354  0.2359 -0.0868  0.1515
12196TIP3    H158003   0.298   2.072  15.423  0.4759  0.0147  0.1637
12196TIP3    H258004   0.415   2.040  15.332 -0.1686  0.4427 -0.8405
12197TIP3   OH258005   4.607   4.704   6.445  0.2290  0.3432  0.7135
12197TIP3    H158006   4.517   4.713   6.478  0.0567  1.4814 -0.0055
12197TIP3    H258007   4.657   4.675   6.521 -0.3924  1.6211  1.6539
12198TIP3   OH258008   3.847   4.500   4.964  0.0229  1.1225 -0.0602
12198TIP3    H158009   3.883   4.424   4.918 -1.8247  0.7165 -0.9111
12198TIP3    H258010   3.896   4.575   4.929  0.7356  0.5032 -0.4109
12199TIP3   OH258011   4.549   1.244   6.036 -0.6046 -0.0544  0.3922
12199TIP3    H158012   4.490   1.187   5.987 -0.9721  0.7651 -0.1310
12199TIP3    H258013   4.632   1.240   5.989 -0.9518  0.7195 -0.3125
12200TIP3   OH258014   6.415   3.373   1.655 -0.6690 -0.0948  0.0790
12200TIP3    H158015   6.408   3.431   1.731  0.1568  1.3059 -0.8723
12200TIP3    H258016   6.440   3.431   1.582 -0.3779 -1.5549 -1.0373
12201TIP3   OH258017   3.860   4.827  14.726  0.4989 -0.1704 -0.7180
12201TIP3    H158018   3.953   4.830  14.702  0.0803 -0.1909 -2.5102
12201TIP3    H258019   3.852   4.749  14.780  1.9044  1.0635  1.4314
12202TIP3   OH258020   1.895   4.750   5.708 -0.5080  0.1826  0.2347
12202TIP3    H158021   1.935   4.773   5.624 -0.7971  0.4778  0.1736
12202TIP3    H258022   1.947   4.797   5.773  0.3435 -0.8386  0.3192
12203TIP3   OH258023   4.104   0.214  16.333 -0.0689 -0.0870  0.6754
12203TIP3    H158024   4.114   0.304  16.301 -2.2353  0.2469  0.7765
12203TIP3    H258025   4.073   0.165  16.257 -1.6441 -0.1006  1.2928
12204TIP3   OH258026   2.601   4.510   3.349  0.2033 -0.4219 -0.3599
12204TIP3    H158027   2.540   4.542   3.283 -0.3071 -0.1496  0.2272
12204TIP3    H258028   2.655   4.586   3.371 -0.8467  0.0198  0.8559
12205TIP3   OH258029   2.338   2.829  15.540 -0.0603  0.1728  0.3188
12205TIP3    H158030   2.363   2.800  15.452 -1.2138 -0.7186  0.2728
12205TIP3    H258031   2.385   2.771  15.599  0.3848  0.5030  0.2978
12206TIP3   OH258032   3.394   2.468  13.782 -0.1133 -0.2526  0.0251
12206TIP3    H158033   3.307   2.433  13.802 -1.5773  2.4179 -1.1313
12206TIP3    H258034   3.412   2.440  13.693 -0.9993  1.2613 -0.6680
12207TIP3   OH258035   6.261   5.871  16.950  0.1692 -0.3025 -0.7951
12207TIP3    H158036   6.166   5.865  16.935 -0.0746  0.6868  0.2071
12207TIP3    H258037   6.297   5.797  16.902 -1.3113 -1.9439  0.4553
12208TIP3   OH258038   0.716   6.025   3.299  0.0324  0.4734 -0.2270
12208TIP3    H158039   0.702   6.117   3.317  0.7039  0.0221  3.2214
12208TIP3    H258040   0.809   6.010   3.316 -0.2198 -0.9881  0.0608
12209TIP3   OH258041   2.461   2.500  17.400 -0.1206 -0.4479 -0.4439
12209TIP3    H158042   2.434   2.433  17.463 -0.1807 -0.7113 -0.7498
12209TIP3    H258043   2.389   2.506  17.338 -0.1035 -0.1172 -0.4363
12210TIP3   OH258044   0.420   5.724   3.012  0.1306 -0.4284 -0.0453
12210TIP3    H158045   0.376   5.726   3.098 -0.6336  0.3520 -0.4409
12210TIP3    H258046   0.469   5.642   3.013 -0.0202 -0.5307  1.0663
12211TIP3   OH258047   2.538   2.356   2.749  0.0126 -0.1302 -0.1882
12211TIP3    H158048   2.516   2.330   2.838 -0.3142  0.0155 -0.2239
12211TIP3    H258049   2.550   2.451   2.754  0.8248 -0.2256 -0.1337
12212TIP3   OH258050   1.793   6.410   0.064  0.1149  0.3258  0.5337
12212TIP3    H158051   1.714   6.375   0.105  0.3192 -0.3294  0.3769
12212TIP3    H258052   1.860   6.344   0.080 -0.3361 -1.1553 -2.8571
12213TIP3   OH258053   1.750   6.718   3.383  0.2008 -0.3178  0.2619
12213TIP3    H158054   1.743   6.640   3.437 -2.5638 -1.0133 -0.9259
12213TIP3    H258055   1.661   6.735   3.353  0.9935  2.2835 -0.9631
12214TIP3   OH258056   5.321   1.926  12.920 -0.1937  0.1572  0.4629
12214TIP3    H158057   5.391   1.978  12.881  0.6237 -1.5895 -0.5232
12214TIP3    H258058   5.241   1.962  12.882  0.0145  2.6138  2.0978
12215TIP3   OH258059   1.442   5.980  13.464 -0.5398 -0.1533  0.4407
12215TIP3    H158060   1.468   5.953  13.552  0.0056  1.7806  0.9342
12215TIP3    H258061   1.523   5.979  13.414 -0.9140 -1.6263 -0.1865
12216TIP3   OH258062   6.086   0.634   1.965  0.1948  0.1260 -0.4957
12216TIP3    H158063   6.085   0.695   1.892 -1.8036  4.8467  2.9899
12216TIP3    H258064   6.125   0.683   2.038 -0.3759 -3.2427  2.3681
12217TIP3   OH258065   4.494   3.974   2.902 -0.3538  0.6108 -0.0968
12217TIP3    H158066   4.437   3.901   2.925 -2.2788  1.3938 -2.0256
12217TIP3    H258067   4.537   3.947   2.821  2.1080  0.0542  1.3007
12218TIP3   OH258068   0.039   0.735   2.613 -0.6841  0.1050  0.1509
12218TIP3    H158069  -0.039   0.702   2.569 -0.5645  1.2047 -0.9437
12218TIP3    H258070   0.063   0.667   2.676 -1.8288 -0.7658 -0.3396
12219TIP3   OH258071   6.422   4.582  15.334  0.3423 -0.0053 -0.1975
12219TIP3    H158072   6.482   4.597  15.261  0.0479 -1.4913 -0.7690
12219TIP3    H258073   6.425   4.664  15.384  0.0690  1.3197 -2.2057
12220TIP3   OH258074   6.079   5.830   4.889  0.0641  0.3608  0.7906
12220TIP3    H158075   6.121   5.775   4.824 -0.1610 -1.6133  2.2224
12220TIP3    H258076   6.138   5.828   4.964 -0.1282  1.8184  1.0079
12221TIP3   OH258077   6.207   2.328  17.349  0.1463 -0.2092  0.3427
12221TIP3    H158078   6.303   2.324  17.353  0.2679  1.4366 -0.2789
12221TIP3    H258079   6.188   2.408  17.301 -1.5463 -1.9941 -2.2442
12222TIP3   OH258080   5.216   0.592   3.744 -0.7882  0.0900 -0.3177
12222TIP3    H158081   5.189   0.526   3.808  2.5606 -1.4654 -0.2813
12222TIP3    H258082   5.180   0.560   3.660 -1.8537 -0.0151  0.1595
12223TIP3   OH258083   2.325   2.984   1.444 -0.2069 -0.2046  0.0492
12223TIP3    H158084   2.343   3.076   1.427 -2.0223  0.1380 -0.2405
12223TIP3    H258085   2.334   2.975   1.539 -0.4070  0.3843  0.1293
12224TIP3   OH258086   5.460   4.912   5.489 -0.2212 -0.2074 -0.4767
12224TIP3    H158087   5.529   4.854   5.522  0.8701 -0.5118 -3.0694
12224TIP3    H258088   5.499   4.999   5.489  0.3539 -0.4396 -2.3283
12225TIP3   OH258089   5.579   2.956  13.978 -0.1917 -0.3092 -0.8673
12225TIP3    H158090   5.576   2.872  14.025  0.3618 -1.3811 -2.6382
12225TIP3    H258091   5.555   2.934  13.888  1.8842  1.0418 -1.8405
12226TIP3   OH258092   2.985   0.644   0.369 -0.2513  0.1950  0.5403
12226TIP3    H158093   2.965   0.648   0.275  2.4540  0.1377 -0.1097
12226TIP3    H258094   2.901   0.661   0.412 -1.4012  1.0628 -1.8749
12227TIP3   OH258095   4.650   6.292   4.557  0.5523 -0.1257 -0.1556
12227TIP3    H158096   4.722   6.342   4.520  0.5687 -0.9303 -1.2664
12227TIP3    H258097   4.591   6.277   4.483  1.3658 -3.1878 -0.3365
12228TIP3   OH258098   5.127   0.463  15.577 -0.3348  0.5497  0.0498
12228TIP3    H158099   5.034   0.480  15.593 -0.4151  0.3852 -0.2507
12228TIP3    H258100   5.129   0.383  15.525 -0.0238  0.5444  0.0680
12229TIP3   OH258101   4.709   2.561  12.673  0.2128 -0.1678 -0.0750
12229TIP3    H158102   4.631   2.544  12.727  0.0268  0.4451 -0.1374
12229TIP3    H258103   4.722   2.480  12.624  1.0799 -1.1813  1.7110
12230TIP3   OH258104   5.212   6.470   1.166 -0.0154 -0.3689  0.2841
12230TIP3    H158105   5.233   6.419   1.244  0.5357  1.8797  1.7102
12230TIP3    H258106   5.120   6.452   1.149 -0.6781  0.4803  2.6161
12231TIP3   OH258107   3.471   0.388  15.682 -0.0002  0.3524  0.5865
12231TIP3    H158108   3.479   0.293  15.690 -2.1608 -0.0607 -1.2060
12231TIP3    H258109   3.415   0.415  15.754 -0.7412  0.0097  0.1418
12232TIP3   OH258110   2.058   3.138   2.412  0.1715 -0.9143 -0.2072
12232TIP3    H158111   2.153   3.142   2.400 -0.0389  1.0271 -1.8858
12232TIP3    H258112   2.022   3.165   2.328 -1.7982  1.0873  1.1378
12233TIP3   OH258113   3.342   0.294  12.324  0.4629 -0.1672  0.8242
12233TIP3    H158114   3.420   0.308  12.378 -1.0326  1.2897  2.7648
12233TIP3    H258115   3.327   0.378  12.281 -0.6090 -0.0678  1.3446
12234TIP3   OH258116   3.658   5.819   5.690  0.3090  0.0286  0.0826
12234TIP3    H158117   3.656   5.847   5.598 -1.3676 -0.5929 -0.1035
12234TIP3    H258118   3.568   5.794   5.709  1.2961 -3.4068  0.8090
12235TIP3   OH258119   3.226   2.252   1.038  0.1402 -0.5256  0.2552
12235TIP3    H158120   3.298   2.257   1.100  0.6489  2.6580 -0.3903
12235TIP3    H258121   3.253   2.184   0.975  1.7970 -0.5529  0.9437
12236TIP3   OH258122   3.820   3.474   6.617  0.0693  0.3198 -0.3010
12236TIP3    H158123   3.726   3.483   6.630  0.0267  0.6020 -0.7638
12236TIP3    H258124   3.846   3.556   6.575  0.8865  1.1457  1.6893
12237TIP3   OH258125   4.007   3.257  16.898  0.9902 -0.1036  0.3279
12237TIP3    H158126   4.044   3.177  16.860  4.1526  0.8953  0.9413
12237TIP3    H258127   4.043   3.327  16.843  1.1506  1.0473  1.8351
12238TIP3   OH258128   2.215   4.127  16.283  0.0858 -0.6284  0.0300
12238TIP3    H158129   2.149   4.175  16.233 -0.1600 -0.8727  0.1197
12238TIP3    H258130   2.190   4.140  16.374  0.2140 -0.6455  0.0691
12239TIP3   OH258131   6.405   0.149  14.097  0.3699  0.1230 -0.6305
12239TIP3    H158132   6.388   0.081  14.163 -1.1158  1.3667  0.3650
12239TIP3    H258133   6.340   0.217  14.116  1.5147  1.6381 -1.8519
12240TIP3   OH258134   2.176   3.173   4.293 -0.0382  0.0838  0.1032
12240TIP3    H158135   2.186   3.084   4.326  0.4184 -0.4616 -1.4259
12240TIP3    H258136   2.085   3.178   4.264  0.0343 -0.0218 -0.1502
12241TIP3   OH258137   4.909   1.015  12.788  0.2296 -0.2266 -0.2051
12241TIP3    H158138   4.988   0.961  12.788  1.4211  1.4130 -1.8177
12241TIP3    H258139   4.923   1.079  12.718 -2.4880  0.2044 -0.4714
12242TIP3   OH258140   4.187   2.801  13.856 -0.2204  0.1984  0.3353
12242TIP3    H158141   4.193   2.787  13.950  1.7185  2.0132  0.5586
12242TIP3    H258142   4.184   2.896  13.846  0.2082  0.0600 -1.4373
12243TIP3   OH258143   0.436   2.050   5.713 -0.4258  0.4005  0.6573
12243TIP3    H158144   0.481   2.102   5.780 -1.8849  0.7194  1.4213
12243TIP3    H258145   0.408   2.113   5.647 -0.6792  0.3485  0.7140
12244TIP3   OH258146   0.146   5.725  13.532 -0.0763 -0.2324 -0.0173
12244TIP3    H158147   0.060   5.764  13.514 -0.0065 -0.6257 -1.3354
12244TIP3    H258148   0.175   5.767  13.613 -1.3141  0.2254  0.2161
12245TIP3   OH258149   2.300   0.268  14.562  0.4534  0.0151  0.0454
12245TIP3    H158150   2.359   0.236  14.631  0.9992 -0.5065 -0.6492
12245TIP3    H258151   2.230   0.203  14.559  0.8230 -0.3703 -0.3977
12246TIP3   OH258152   5.214   2.407  13.192 -0.4028 -0.5813  0.5509
12246TIP3    H158153   5.302   2.378  13.165 -0.6277 -0.4186 -0.3889
12246TIP3    H258154   5.227   2.497  13.222 -0.2792 -0.4877  0.2216
12247TIP3   OH258155   3.996   5.493  14.843  0.1012 -0.5500 -0.4675
12247TIP3    H158156   4.035   5.558  14.902  0.0642 -1.3127  0.4101
12247TIP3    H258157   4.037   5.510  14.759  1.7764 -0.8308  0.2507
12248TIP3   OH258158   0.128   4.276   5.549  0.7873  0.5934 -0.8231
12248TIP3    H158159   0.045   4.295   5.593  0.8493 -1.0383  0.0561
12248TIP3    H258160   0.195   4.312   5.608  0.8253 -0.7408 -0.0303
12249TIP3   OH258161   3.137   3.656  15.426  0.1799  0.2471  1.0289
12249TIP3    H158162   3.132   3.600  15.504 -0.6026  0.1987  0.9526
12249TIP3    H258163   3.067   3.720  15.438 -1.4116 -1.0603 -0.6296
12250TIP3   OH258164   4.377   0.534  16.209 -1.1270  0.0942 -0.0221
12250TIP3    H158165   4.406   0.594  16.141 -1.8088  1.1394  0.5879
12250TIP3    H258166   4.453   0.477  16.223 -0.7070  0.3491 -1.0963
12251TIP3   OH258167   0.020   5.113   5.040  0.4965  0.4573 -0.5008
12251TIP3    H158168   0.067   5.132   4.959  0.6281 -0.5597 -0.6739
12251TIP3    H258169   0.045   5.024   5.062 -1.4653 -0.2002 -0.7047
12252TIP3   OH258170   2.046   2.138  15.324 -0.3468  0.1851 -0.2378
12252TIP3    H158171   2.075   2.172  15.408 -2.1344  1.7952 -0.2017
12252TIP3    H258172   2.124   2.139  15.269  0.4874  0.6786  0.9277
12253TIP3   OH258173   0.105   2.264  14.816 -0.1762  0.4157 -0.1112
12253TIP3    H158174   0.131   2.315  14.892 -1.6621 -0.0593  0.7637
12253TIP3    H258175   0.014   2.289  14.800  0.1476  0.6207 -1.8533
12254TIP3   OH258176   3.972   5.923  16.151  0.4007 -0.0284  0.1787
12254TIP3    H158177   4.021   5.995  16.190 -0.0268  0.1154  0.4624
12254TIP3    H258178   3.906   5.966  16.096  1.2426 -0.2293 -1.0363
12255TIP3   OH258179   1.039   1.121   4.896 -0.1797  0.1205  0.0648
12255TIP3    H158180   1.134   1.135   4.889  0.0983 -1.3420  0.6586
12255TIP3    H258181   1.029   1.052   4.961 -1.6591  0.0910 -0.1501
12256TIP3   OH258182   5.424   4.518   5.614  0.1383 -0.5295  0.5192
12256TIP3    H158183   5.413   4.444   5.674 -0.5504 -0.1064  0.9190
12256TIP3    H258184   5.486   4.576   5.659  0.6141 -0.8182  0.2426
12257TIP3   OH258185   4.569   1.278   2.976  0.2792  0.0769  0.7380
12257TIP3    H158186   4.530   1.192   2.989 -1.2858  0.9505  2.1835
12257TIP3    H258187   4.495   1.336   2.959  1.1260  1.4496  1.5853
12258TIP3   OH258188   2.507   6.717   1.704 -0.3256 -0.6613 -0.2854
12258TIP3    H158189   2.513   6.807   1.671  0.8747 -1.0425 -1.1507
12258TIP3    H258190   2.446   6.674   1.644 -0.1340 -0.6787 -0.4696
12259TIP3   OH258191   2.059   3.963  13.162  0.1614 -0.6030  0.1985
12259TIP3    H158192   2.029   4.049  13.134  0.3711 -0.6086 -0.0519
12259TIP3    H258193   2.138   3.947  13.110 -0.0431 -1.0769  0.0207
12260TIP3   OH258194   6.593   2.160  10.972 -0.7330 -0.3914  0.2926
12260TIP3    H158195   6.628   2.198  10.891 -1.0109 -0.8977 -0.0747
12260TIP3    H258196   6.669   2.120  11.014 -0.8581 -1.6035 -0.5699
12261TIP3   OH258197   5.251   5.079   1.352  0.3739  0.0355  0.3087
12261TIP3    H158198   5.255   5.117   1.439 -3.2872  0.1452  0.6140
12261TIP3    H258199   5.181   5.128   1.308 -0.5180 -2.4589 -1.2958
12262TIP3   OH258200   6.528   6.716  17.028 -0.2390  0.4084 -0.3561
12262TIP3    H158201   6.433   6.712  17.041 -0.2930  0.9497 -0.5333
12262TIP3    H258202   6.547   6.810  17.027  0.3067  0.2991 -0.2733
12263TIP3   OH258203   3.997   6.206  13.064  0.5998  0.1964 -0.2399
12263TIP3    H158204   4.023   6.286  13.017  3.8369  0.0126  0.9856
12263TIP3    H258205   4.071   6.147  13.052 -1.1374 -2.1510  0.0489
12264TIP3   OH258206   1.774   5.542   0.943  0.0066  0.3798  0.5323
12264TIP3    H158207   1.754   5.607   0.875  0.4311  0.6618  0.6753
12264TIP3    H258208   1.832   5.480   0.899 -2.0018 -1.0682 -0.2226
12265TIP3   OH258209   1.814   5.483   0.448  0.3017 -0.3586  0.5668
12265TIP3    H158210   1.879   5.551   0.431 -0.3741  0.5171  1.3724
12265TIP3    H258211   1.730   5.524   0.426 -0.0532 -1.1888  0.3502
12266TIP3   OH258212   0.970   3.034   4.450 -0.6596  0.2351  0.3726
12266TIP3    H158213   1.030   2.987   4.508 -0.7358 -0.1364  0.1544
12266TIP3    H258214   0.883   3.002   4.475 -0.6375 -0.5765 -0.5085
12267TIP3   OH258215   2.206   1.963   1.209  0.3028  0.4245  0.4928
12267TIP3    H158216   2.300   1.947   1.202  0.3461  0.0560  1.6654
12267TIP3    H258217   2.171   1.885   1.252 -0.5125  0.6494  0.2724
12268TIP3   OH258218   5.952   4.650  16.617 -0.0696  0.7453  0.3300
12268TIP3    H158219   5.904   4.732  16.611 -1.7710 -0.2473 -0.6505
12268TIP3    H258220   5.987   4.635  16.530 -0.6016 -0.0083  0.2285
12269TIP3   OH258221   0.969   4.870  16.500 -0.6013 -0.0634  0.4175
12269TIP3    H158222   1.014   4.941  16.455  1.0674 -1.1391  0.2927
12269TIP3    H258223   0.882   4.905  16.520 -0.7461  1.0954 -1.9298
12270TIP3   OH258224   1.417   3.474  14.669  0.3060  0.3182 -0.3694
12270TIP3    H158225   1.347   3.437  14.722 -0.6865  0.0353 -1.8135
12270TIP3    H258226   1.373   3.508  14.591  1.8511 -0.7973 -1.8209
12271TIP3   OH258227   0.407   2.204   5.449  0.5015  0.0701  0.3716
12271TIP3    H158228   0.480   2.262   5.428 -0.1769  0.6560 -0.4148
12271TIP3    H258229   0.345   2.216   5.377 -0.8825  0.4290  1.5883
12272TIP3   OH258230   2.580   0.755   0.365 -0.8446  0.1748  0.2280
12272TIP3    H158231   2.485   0.763   0.368 -1.0717 -2.1416  1.3227
12272TIP3    H258232   2.596   0.686   0.299 -0.0048 -0.1550  0.7569
12273TIP3   OH258233   4.182   3.603  12.988  0.5888  0.4892 -0.4982
12273TIP3    H158234   4.142   3.547  13.054 -0.5369  0.5636 -1.0876
12273TIP3    H258235   4.263   3.634  13.028  0.4648 -0.3355  0.4140
12274TIP3   OH258236   0.289   0.772   2.696 -0.1503  0.0651  0.1883
12274TIP3    H158237   0.197   0.779   2.722 -1.1883 -0.8845 -2.8403
12274TIP3    H258238   0.313   0.682   2.718 -0.3146 -0.0494 -0.1007
12275TIP3   OH258239   4.427   3.664  14.533 -0.1041  0.6416 -0.3109
12275TIP3    H158240   4.350   3.618  14.499 -0.4601  0.5853  0.5217
12275TIP3    H258241   4.392   3.747  14.565  0.1986  0.6719 -0.0537
12276TIP3   OH258242   2.296   3.276   5.087  0.5894 -0.0324  0.1579
12276TIP3    H158243   2.254   3.280   5.173  0.5465 -2.3386  0.3136
12276TIP3    H258244   2.350   3.355   5.083  0.5587  0.1506  2.2918
12277TIP3   OH258245   2.594   4.299   1.688  0.0092  0.5069  0.0278
12277TIP3    H158246   2.634   4.212   1.695  0.6055  0.7002 -0.8525
12277TIP3    H258247   2.513   4.291   1.738  0.6096 -0.2154  0.9451
12278TIP3   OH258248   5.869   2.725  11.924  0.3885  0.1634  0.0673
12278TIP3    H158249   5.903   2.770  11.847  2.1451  0.4989  0.9841
12278TIP3    H258250   5.947   2.704  11.976 -0.7753  0.5527  2.0734
12279TIP3   OH258251   0.668   0.513   3.661  0.5362 -0.0537  0.4558
12279TIP3    H158252   0.754   0.548   3.639  0.2979  0.0582 -0.3093
12279TIP3    H258253   0.627   0.581   3.714 -0.4321  1.4636 -2.0709
12280TIP3   OH258254   4.282   5.194  12.824  0.2470  0.2347  0.2623
12280TIP3    H158255   4.308   5.152  12.906  2.2350  0.0009 -0.4266
12280TIP3    H258256   4.249   5.122  12.770 -2.3164  0.5715  1.2349
12281TIP3   OH258257   4.691   1.988   2.574 -0.0761 -0.0652 -0.1572
12281TIP3    H158258   4.751   1.926   2.614 -0.3995 -0.7803 -0.7734
12281TIP3    H258259   4.617   1.936   2.545 -0.7729  0.7324  0.1199
12282TIP3   OH258260   4.660   4.924   4.977  0.4501  0.3468 -0.2108
12282TIP3    H158261   4.606   4.934   5.056  1.6916  1.8626  0.5106
12282TIP3    H258262   4.741   4.970   4.998  1.3562 -0.4088 -1.8902
12283TIP3   OH258263   2.961   3.316   2.871 -0.2673  0.3495 -0.1533
12283TIP3    H158264   3.002   3.388   2.824  1.3278 -0.8664 -0.7033
12283TIP3    H258265   2.902   3.276   2.807 -1.1673  1.1168  0.1574
12284TIP3   OH258266   2.710   0.045  15.035  0.4201 -0.0407  0.0879
12284TIP3    H158267   2.802   0.070  15.045  0.2486  1.2031 -1.1509
12284TIP3    H258268   2.661   0.126  15.052 -0.3437 -0.2331 -1.0485
12285TIP3   OH258269   0.275   6.581  13.453  0.0247  0.4281 -0.1630
12285TIP3    H158270   0.289   6.564  13.547  0.2932  0.8442 -0.1266
12285TIP3    H258271   0.349   6.636  13.427 -0.2332  0.6030 -0.5406
12286TIP3   OH258272   4.589   5.166  12.135  0.6977  0.2181 -0.5761
12286TIP3    H158273   4.629   5.141  12.219 -1.7525  1.5762  1.1203
12286TIP3    H258274   4.621   5.100  12.073  0.5238 -2.4857  1.9897
12287TIP3   OH258275   0.269   2.269  15.459  0.1387 -0.4376 -0.3539
12287TIP3    H158276   0.270   2.353  15.414 -0.1308  0.8167  1.8491
12287TIP3    H258277   0.187   2.270  15.509  0.0496 -2.1013 -0.4025
12288TIP3   OH258278   0.939   3.605   2.199 -0.0885 -0.1729  0.2688
12288TIP3    H158279   0.955   3.661   2.275  0.7059  0.2757 -0.2084
12288TIP3    H258280   0.883   3.657   2.142 -0.6571 -0.4967  0.5244
12289TIP3   OH258281   0.849   3.622  13.200  0.0251  1.0324  0.1777
12289TIP3    H158282   0.856   3.571  13.281  0.1970  0.3284 -0.2739
12289TIP3    H258283   0.815   3.707  13.228  2.1447  1.5687  1.2701
12290TIP3   OH258284   4.900   5.196   1.108 -0.1489 -0.1514 -0.0361
12290TIP3    H158285   4.989   5.227   1.093 -0.0189  0.3558  1.5998
12290TIP3    H258286   4.846   5.274   1.103 -0.4403 -0.3760 -0.4758
12291TIP3   OH258287   4.110   3.657   0.355  0.3030  0.7443  0.1384
12291TIP3    H158288   4.060   3.579   0.331  0.5708  0.1125  1.5608
12291TIP3    H258289   4.166   3.673   0.279  0.0887 -0.3201 -0.2681
12292TIP3   OH258290   3.392   0.425   2.456 -0.4300  0.5080 -0.6310
12292TIP3    H158291   3.313   0.419   2.402 -0.2609 -0.4522 -0.7943
12292TIP3    H258292   3.441   0.345   2.436 -0.0879  0.4109  0.5116
12293TIP3   OH258293   6.226   3.588   0.092  0.0795 -0.8027  0.2528
12293TIP3    H158294   6.216   3.574   0.186 -1.6668  2.1476  0.6554
12293TIP3    H258295   6.320   3.577   0.076  0.5493 -0.6422  2.4948
12294TIP3   OH258296   5.445   5.123   6.161 -0.2378  0.3746 -0.3811
12294TIP3    H158297   5.458   5.130   6.255 -3.9285 -2.5620  0.5836
12294TIP3    H258298   5.460   5.030   6.141  1.1117  1.0223 -2.9208
12295TIP3   OH258299   1.926   4.121   4.100  0.4367  0.4698 -0.5202
12295TIP3    H158300   1.899   4.043   4.051 -1.5384 -0.1006  1.3105
12295TIP3    H258301   1.852   4.181   4.092  0.9127  1.1629  0.1413
12296TIP3   OH258302   2.242   3.289  14.173 -0.4492  0.2553 -0.1224
12296TIP3    H158303   2.328   3.297  14.214 -0.9695 -1.3762  1.4151
12296TIP3    H258304   2.233   3.369  14.122  2.4352 -0.0305 -1.2816
12297TIP3   OH258305   4.989   0.868  11.896  0.3071 -0.1548  0.3351
12297TIP3    H158306   4.976   0.860  11.991  0.2426 -0.5597  0.2921
12297TIP3    H258307   4.905   0.897  11.862  0.9050  2.1398  0.6526
12298TIP3   OH258308   5.670   4.477  15.867  0.4324 -0.0447  1.1650
12298TIP3    H158309   5.585   4.522  15.873  0.6477  0.8860 -1.2963
12298TIP3    H258310   5.735   4.547  15.872  0.9593 -0.5148  1.0370
12299TIP3   OH258311   0.819   4.328   1.444 -0.2563 -0.6646  0.3521
12299TIP3    H158312   0.883   4.261   1.470 -0.5085 -0.4932  1.4884
12299TIP3    H258313   0.849   4.408   1.489  0.9107  0.4174 -2.1762
12300TIP3   OH258314   6.149   0.345  13.571 -0.3249  0.3018 -0.1744
12300TIP3    H158315   6.068   0.295  13.561  0.0774 -0.2259 -0.9011
12300TIP3    H258316   6.141   0.416  13.507 -0.6356  0.8195  0.4369
12301TIP3   OH258317   0.969   5.049   4.374  0.6924  0.2629  0.0003
12301TIP3    H158318   1.024   5.001   4.436  2.9738  2.7233  0.0799
12301TIP3    H258319   0.964   5.137   4.410 -1.6930  0.6731 -1.1189
12302TIP3   OH258320   1.021   0.873   5.061  0.1263  0.0592  0.4892
12302TIP3    H158321   1.095   0.813   5.070 -0.9694 -1.2463  1.1255
12302TIP3    H258322   0.947   0.817   5.038 -1.0046  1.1146  1.4057
12303TIP3   OH258323   0.868   6.582  16.229  0.3267  0.3085 -0.2230
12303TIP3    H158324   0.921   6.522  16.282 -0.0198 -0.1532 -0.3962
12303TIP3    H258325   0.896   6.566  16.139 -1.3573 -1.2401 -0.5189
12304TIP3   OH258326   3.385   0.680  14.979  0.0452  0.2642 -0.0504
12304TIP3    H158327   3.422   0.744  15.040  1.1302 -0.2292 -0.1624
12304TIP3    H258328   3.325   0.628  15.032  0.7116  0.0701  0.5213
12305TIP3   OH258329   0.275   2.498  16.545 -0.3311 -0.2953  0.7399
12305TIP3    H158330   0.331   2.545  16.482 -0.0886 -0.7706  0.5915
12305TIP3    H258331   0.239   2.425  16.494 -0.7100 -0.2645  0.9657
12306TIP3   OH258332   4.789   5.720  11.406  0.2528  0.7639  0.1335
12306TIP3    H158333   4.801   5.811  11.434 -3.3067  1.0619  1.2208
12306TIP3    H258334   4.736   5.727  11.326 -0.0547 -0.3245  0.2254
12307TIP3   OH258335   3.534   6.723   4.261 -0.1378 -0.2471 -0.4086
12307TIP3    H158336   3.527   6.784   4.334  0.2927  0.3160 -0.8225
12307TIP3    H258337   3.459   6.666   4.270 -1.5523  1.4273 -0.9850
12308TIP3   OH258338   1.973   2.972  11.690  0.1431 -0.4479 -0.0480
12308TIP3    H158339   1.928   3.006  11.767  0.4373  0.7140 -0.3606
12308TIP3    H258340   1.931   3.018  11.617  2.6347  1.7117 -0.2827
12309TIP3   OH258341   6.122   4.947  11.945 -0.3084 -0.1443 -0.3843
12309TIP3    H158342   6.055   5.003  11.906 -0.1772  1.6425  1.7509
12309TIP3    H258343   6.199   5.003  11.951  0.7218 -1.4766 -0.7748
12310TIP3   OH258344   3.484   5.837  11.918 -0.2336 -0.4507 -0.3013
12310TIP3    H158345   3.448   5.761  11.963 -0.7927 -0.0556 -0.0731
12310TIP3    H258346   3.577   5.837  11.941 -0.8618  0.9963  2.7289
12311TIP3   OH258347   0.199   6.185  12.491 -0.0302  0.0744  0.1632
12311TIP3    H158348   0.257   6.125  12.444  0.0052  0.5309 -0.3840
12311TIP3    H258349   0.124   6.197  12.433  0.5000  1.4728 -0.2585
12312TIP3   OH258350   0.677   3.316  13.312  0.0341 -0.1627  0.4089
12312TIP3    H158351   0.616   3.390  13.324 -0.2182 -0.3547  0.3182
12312TIP3    H258352   0.710   3.328  13.223 -0.5324 -0.5451  0.1408
12313TIP3   OH258353   2.026   4.031  16.730  0.2830 -0.2800 -0.6408
12313TIP3    H158354   2.017   3.937  16.711  0.4104 -0.4478  0.0938
12313TIP3    H258355   1.953   4.051  16.788  0.4170  0.0119 -0.5713
12314TIP3   OH258356   2.845   1.067   5.944 -0.1341  0.2127  0.2522
12314TIP3    H158357   2.815   1.146   5.899  1.7910  0.8824  0.0630
12314TIP3    H258358   2.923   1.040   5.896  0.1779 -0.8717  1.3225
12315TIP3   OH258359   2.346   2.239  17.462 -0.6220  0.4319  0.0603
12315TIP3    H158360   2.315   2.179  17.394 -2.1487  0.1191  0.9888
12315TIP3    H258361   2.296   2.215  17.540  0.6916  1.1577  1.1601
12316TIP3   OH258362   2.041   2.757  12.250 -0.2774  0.0916  0.1225
12316TIP3    H158363   2.117   2.727  12.200 -0.8367  0.7900 -1.1843
12316TIP3    H258364   2.034   2.695  12.323  2.7342  1.1412  1.4670
12317TIP3   OH258365   4.750   6.233   1.874  0.8910 -0.3074  0.1364
12317TIP3    H158366   4.695   6.175   1.927 -2.0796  0.7702 -1.5214
12317TIP3    H258367   4.705   6.318   1.876  3.4350  1.1708 -0.0225
12318TIP3   OH258368   1.917   4.483  17.090 -0.0057  0.5492 -0.7713
12318TIP3    H158369   1.984   4.546  17.115  0.3414  0.2943 -1.0525
12318TIP3    H258370   1.875   4.459  17.173  1.3189 -0.4896 -0.3771
12319TIP3   OH258371   4.599   6.399  10.920  0.0840  0.7121  0.2090
12319TIP3    H158372   4.608   6.426  11.011 -1.4921 -2.4906  1.4793
12319TIP3    H258373   4.512   6.429  10.894  0.1352  0.7481  0.0753
12320TIP3   OH258374   5.988   5.245  14.583  0.0056  0.4533  0.0197
12320TIP3    H158375   5.974   5.323  14.529  1.2145  0.3143 -0.5303
12320TIP3    H258376   6.012   5.177  14.520 -1.6163 -0.5338  0.4362
12321TIP3   OH258377   0.608   0.913   0.848  0.5177  0.1554 -0.2124
12321TIP3    H158378   0.574   0.875   0.766  2.9537 -1.9727 -0.3768
12321TIP3    H258379   0.639   1.000   0.823  0.3155 -0.0750 -1.3298
12322TIP3   OH258380   1.727   4.138  12.024 -0.2756  0.4349  0.2422
12322TIP3    H158381   1.638   4.169  12.006 -0.1418  0.7640  0.1395
12322TIP3    H258382   1.721   4.043  12.018 -0.7574  0.4238  0.8507
12323TIP3   OH258383   5.018   3.755  14.618 -0.0075  0.3124 -0.8315
12323TIP3    H158384   4.976   3.781  14.700  1.4339 -2.1260  0.8391
12323TIP3    H258385   4.950   3.766  14.551 -1.4068  1.8984  0.7388
12324TIP3   OH258386   4.777   1.984  12.033  0.0513 -0.2884  0.1817
12324TIP3    H158387   4.762   1.992  12.127 -1.8859 -0.1170 -0.0871
12324TIP3    H258388   4.796   1.892  12.019  1.0061 -0.1922  0.8148
12325TIP3   OH258389   2.147   1.892   4.827  0.3106 -0.3153 -0.8043
12325TIP3    H158390   2.126   1.799   4.833 -1.1745 -0.1287 -2.2524
12325TIP3    H258391   2.223   1.903   4.883  0.0579 -2.2494  0.0049
12326TIP3   OH258392   5.032   4.545   0.829 -0.1844  0.6691  0.5275
12326TIP3    H158393   5.063   4.537   0.739  1.6829  0.2513  1.1748
12326TIP3    H258394   5.036   4.456   0.864 -3.3172  0.3260  0.3435
12327TIP3   OH258395   1.570   1.788  17.100 -0.7878  0.0643  0.0721
12327TIP3    H158396   1.627   1.711  17.106 -1.1274 -0.3711 -1.7442
12327TIP3    H258397   1.487   1.760  17.138 -0.9890 -0.5684 -0.8033
12328TIP3   OH258398   2.639   6.131  15.867 -0.6741  0.5787 -0.1611
12328TIP3    H158399   2.583   6.150  15.792 -2.2440  1.2686  1.1268
12328TIP3    H258400   2.675   6.216  15.891 -0.5318  0.4319  0.1434
12329TIP3   OH258401   3.043   2.979  16.583  0.2254 -0.2060  0.5336
12329TIP3    H158402   3.062   3.071  16.603 -0.9611  0.0394  0.5774
12329TIP3    H258403   3.070   2.969  16.492 -1.8692  0.8734 -0.2868
12330TIP3   OH258404   0.651   4.520  15.153 -0.0330  0.3355  0.9202
12330TIP3    H158405   0.675   4.449  15.213 -0.8891 -0.9399 -0.1767
12330TIP3    H258406   0.589   4.479  15.092 -1.7263  2.4106  1.1463
12331TIP3   OH258407   3.459   4.017  16.207  0.5554 -0.4098 -0.8040
12331TIP3    H158408   3.457   4.111  16.190 -0.2343 -0.1361  0.7006
12331TIP3    H258409   3.546   4.001  16.244  0.3322 -0.0854 -0.1214
12332TIP3   OH258410   6.543   3.340  14.122 -0.0275 -0.1812 -0.4606
12332TIP3    H158411   6.502   3.280  14.184  0.2937 -0.2042 -0.2694
12332TIP3    H258412   6.470   3.391  14.086 -0.2230 -0.2205 -0.1222
12333TIP3   OH258413   1.256   1.891   1.777 -0.5475 -0.3827  0.1570
12333TIP3    H158414   1.221   1.810   1.738  0.2390 -0.6102 -0.0952
12333TIP3    H258415   1.242   1.958   1.709  0.4031 -0.6827 -0.3466
12334TIP3   OH258416   1.129   6.557  11.725 -0.0504 -0.1453  0.0097
12334TIP3    H158417   1.202   6.551  11.663 -1.1679  3.9438 -2.0571
12334TIP3    H258418   1.050   6.554  11.670 -1.3288 -1.0288  1.7971
12335TIP3   OH258419   0.093   5.407  11.703 -0.1518 -0.6856  0.0227
12335TIP3    H158420   0.133   5.342  11.760  0.4715  1.3433  2.0488
12335TIP3    H258421   0.165   5.442  11.651 -0.3892 -1.1877 -0.6619
12336TIP3   OH258422   2.077   0.155   3.771 -0.0047  0.2401  0.0939
12336TIP3    H158423   2.065   0.097   3.696 -1.5461 -2.2507  2.1207
12336TIP3    H258424   2.172   0.167   3.776  0.1146  1.5335 -2.8865
12337TIP3   OH258425   6.616   1.895   0.277 -0.0816  0.2313  0.2213
12337TIP3    H158426   6.681   1.879   0.346  1.4764  3.1129 -0.3988
12337TIP3    H258427   6.577   1.979   0.299 -1.2995  0.0709 -1.1560
12338TIP3   OH258428   3.261   0.036  16.849  0.0819 -0.1140  0.6501
12338TIP3    H158429   3.289  -0.033  16.789  0.1984  1.6225 -1.4021
12338TIP3    H258430   3.222  -0.011  16.923 -1.7772 -2.3595 -1.5860
12339TIP3   OH258431   2.684   6.178  13.315 -0.2820  0.0926  0.1864
12339TIP3    H158432   2.656   6.188  13.406 -1.9925 -1.3157 -0.1394
12339TIP3    H258433   2.606   6.147  13.269  0.6914  0.2523 -1.6665
12340TIP3   OH258434   5.348   1.398   5.240 -0.3120 -0.0216  0.4127
12340TIP3    H158435   5.426   1.408   5.186 -0.8407  2.1727 -0.0259
12340TIP3    H258436   5.285   1.460   5.203 -1.2832  0.3050  2.5109
12341TIP3   OH258437   4.079   3.572  15.487 -0.3389 -0.1404  0.0400
12341TIP3    H158438   3.997   3.523  15.490 -0.3419 -0.1093  0.7058
12341TIP3    H258439   4.109   3.574  15.578  1.2836 -1.6215 -0.4027
12342TIP3   OH258440   5.779   0.935   6.039  0.1760  0.4104  0.3093
12342TIP3    H158441   5.754   0.941   5.947 -1.3705  0.6654  0.7126
12342TIP3    H258442   5.809   1.022   6.062 -1.9977  1.1178  0.6973
12343TIP3   OH258443   6.192   2.802  14.130  0.4625  0.0864 -0.3373
12343TIP3    H158444   6.264   2.792  14.192 -0.7175  0.1589  1.1167
12343TIP3    H258445   6.153   2.886  14.152 -0.7718 -0.4739 -0.3012
12344TIP3   OH258446   4.038   6.098   2.815  0.3431 -0.1917  0.7328
12344TIP3    H158447   4.018   6.027   2.876  2.0938  1.1320  3.0092
12344TIP3    H258448   4.103   6.061   2.755  0.0678 -0.9644  0.9042
12345TIP3   OH258449   2.268   1.968  12.156  0.2138 -0.2932  0.5259
12345TIP3    H158450   2.232   2.047  12.196  2.3828  0.7971  0.4917
12345TIP3    H258451   2.360   1.968  12.181  0.8808 -1.4091 -1.6265
12346TIP3   OH258452   4.823   3.329  15.818 -0.0263  0.0188  0.2811
12346TIP3    H158453   4.843   3.390  15.889 -0.4038  1.1228 -0.5309
12346TIP3    H258454   4.782   3.254  15.861 -1.2526  1.1273  1.1352
12347TIP3   OH258455   1.821   2.189  17.363 -0.2844 -0.1523  0.1130
12347TIP3    H158456   1.836   2.108  17.313 -1.0370  0.4113 -1.0706
12347TIP3    H258457   1.727   2.190  17.380 -0.2210  0.2961  0.4402
12348TIP3   OH258458   0.456   1.126   2.787  0.0742  0.2479 -0.1731
12348TIP3    H158459   0.538   1.115   2.835 -0.2332  1.0378  0.5519
12348TIP3    H258460   0.400   1.055   2.819  0.7786 -0.9117 -1.3946
12349TIP3   OH258461   4.973   1.597   6.125  0.1388 -0.2748  0.3676
12349TIP3    H158462   4.920   1.599   6.205 -1.8930 -0.3303 -0.9056
12349TIP3    H258463   4.910   1.616   6.055  2.0186  0.6167 -1.1515
12350TIP3   OH258464   5.033   0.009   4.597  0.1111 -0.5901 -0.5036
12350TIP3    H158465   5.063   0.059   4.672 -1.9006 -0.4433  0.2546
12350TIP3    H258466   4.943  -0.015   4.618 -0.3246 -1.0386 -2.6120
12351TIP3   OH258467   2.067   0.241  13.315  0.0766  0.1484 -0.4464
12351TIP3    H158468   2.120   0.184  13.371  0.2419  1.4958  0.8178
12351TIP3    H258469   2.118   0.250  13.234  0.6689 -0.4021 -0.1436
12352TIP3   OH258470   1.139   5.803  16.943 -0.3633 -0.2341 -0.1302
12352TIP3    H158471   1.169   5.830  16.856 -1.2838  0.6059 -0.1985
12352TIP3    H258472   1.184   5.720  16.959  0.9659  0.3387 -0.7711
12353TIP3   OH258473   6.254   5.910   2.446  0.0668  0.1809 -0.3080
12353TIP3    H158474   6.251   5.844   2.377  1.2360 -0.0630 -0.1400
12353TIP3    H258475   6.204   5.872   2.518  1.5796 -0.9996  0.1679
12354TIP3   OH258476   2.551   6.110  11.221  0.0872 -0.6642  0.2052
12354TIP3    H158477   2.555   6.119  11.316  0.0566  0.0348  0.1512
12354TIP3    H258478   2.606   6.182  11.188 -2.2111  0.9772 -0.3428
12355TIP3   OH258479   6.386   4.620  17.020  0.1004 -0.0245 -0.2511
12355TIP3    H158480   6.450   4.565  16.974  1.4045  0.4605  0.8940
12355TIP3    H258481   6.347   4.561  17.085  1.3301  0.3033  0.8205
12356TIP3   OH258482   5.752   0.906   3.585  0.0040 -0.0581  0.0410
12356TIP3    H158483   5.841   0.885   3.614  0.0391 -0.3998 -0.3130
12356TIP3    H258484   5.728   0.835   3.525  0.0171  0.7590 -0.9557
12357TIP3   OH258485   3.477   0.676  15.689 -0.3686 -0.1702 -0.1392
12357TIP3    H158486   3.494   0.582  15.684  0.8900 -0.0966  1.8786
12357TIP3    H258487   3.436   0.697  15.605 -2.2778 -2.8083 -0.0130
12358TIP3   OH258488   2.218   6.272  16.923  0.2616  0.1801  0.8479
12358TIP3    H158489   2.199   6.349  16.977 -1.9556 -0.4746  1.1060
12358TIP3    H258490   2.195   6.198  16.978  0.4910 -0.6080 -0.0927
12359TIP3   OH258491   4.477   0.198  16.443  0.0272  0.0172 -0.5089
12359TIP3    H158492   4.529   0.235  16.371  0.8544  1.8348  0.9381
12359TIP3    H258493   4.500   0.252  16.519 -0.9910 -1.6796  1.0817
12360TIP3   OH258494   5.603   5.409  12.133  0.1237  0.4418 -0.3451
12360TIP3    H158495   5.662   5.483  12.122  0.9672 -0.2501 -0.4941
12360TIP3    H258496   5.626   5.372  12.218 -0.1810  0.2353 -0.3483
12361TIP3   OH258497   4.902   1.850  17.295  0.8288 -0.2081 -0.1235
12361TIP3    H158498   4.973   1.885  17.349  0.0141 -1.1061  1.5908
12361TIP3    H258499   4.836   1.919  17.294  1.3537  0.3085 -1.0599
12362TIP3   OH258500   4.739   2.188  15.358 -0.6197  0.5506 -0.2832
12362TIP3    H158501   4.754   2.265  15.412 -1.3677  0.6158 -0.1645
12362TIP3    H258502   4.697   2.222  15.279  0.9056  0.5283 -1.1569
12363TIP3   OH258503   2.455   3.491   2.603 -0.4160  0.1273 -0.0341
12363TIP3    H158504   2.522   3.558   2.588  0.0687 -0.0651  1.1394
12363TIP3    H258505   2.457   3.476   2.698 -2.3808  0.3692  0.0843
12364TIP3   OH258506   5.279   1.739   4.553  0.4070 -0.2338 -0.0431
12364TIP3    H158507   5.209   1.802   4.537  0.9634  0.3440 -0.2565
12364TIP3    H258508   5.234   1.654   4.561 -0.3057  0.1213 -0.1975
12365TIP3   OH258509   5.251   2.271  10.853 -0.2776 -0.3115  0.8376
12365TIP3    H158510   5.177   2.328  10.870 -0.9905 -1.3206  1.2306
12365TIP3    H258511   5.328   2.326  10.869 -0.9206  0.1144  2.8094
12366TIP3   OH258512   5.307   0.226  15.911 -0.2601 -0.3874 -0.0932
12366TIP3    H158513   5.298   0.305  15.858 -1.6703 -2.1109 -2.6862
12366TIP3    H258514   5.387   0.184  15.878 -0.3277 -0.7665  0.2174
12367TIP3   OH258515   3.287   1.552   4.842  0.3475  0.1431  0.1154
12367TIP3    H158516   3.222   1.595   4.788  0.3477  1.4884  1.1428
12367TIP3    H258517   3.254   1.463   4.853 -1.5337  0.8873  0.8952
12368TIP3   OH258518   1.057   4.971   1.709  0.4895 -0.4810  0.0023
12368TIP3    H158519   1.090   5.024   1.782  1.3990 -0.3717 -0.4735
12368TIP3    H258520   0.962   4.974   1.718  0.5624  0.3477  0.5996
12369TIP3   OH258521   5.756   3.303  11.895  0.0955 -0.0115  0.2023
12369TIP3    H158522   5.805   3.281  11.974  0.0545  0.2312  0.2959
12369TIP3    H258523   5.737   3.219  11.854 -0.8628 -0.2262  1.0351
12370TIP3   OH258524   2.699   1.709  16.322 -0.2446 -0.1948 -0.3340
12370TIP3    H158525   2.753   1.695  16.399  0.6955  0.4942 -0.8518
12370TIP3    H258526   2.660   1.624  16.304 -0.1572 -0.4569  0.6576
12371TIP3   OH258527   4.236   1.751   1.284  0.1437 -0.1985  0.3717
12371TIP3    H158528   4.228   1.688   1.355 -1.9099 -0.6100 -0.1604
12371TIP3    H258529   4.203   1.705   1.207  0.3394  0.9244 -0.4099
12372TIP3   OH258530   2.023   4.990  13.681  0.2331  0.5203 -0.0060
12372TIP3    H158531   2.039   4.979  13.587 -1.4195 -0.1718 -0.2525
12372TIP3    H258532   1.930   5.011  13.686  0.7733  2.9524  1.3395
12373TIP3   OH258533   2.780   1.254  16.498 -0.1283  0.6596 -0.3865
12373TIP3    H158534   2.725   1.183  16.530  1.1062 -0.4056 -0.5685
12373TIP3    H258535   2.736   1.334  16.528  0.6807 -0.1900  3.7197
12374TIP3   OH258536   0.326   0.669   5.502  0.3557 -0.2687 -0.2055
12374TIP3    H158537   0.266   0.602   5.535  1.6100 -1.6411 -0.6089
12374TIP3    H258538   0.298   0.684   5.412  0.9586 -1.3401 -0.5829
12375TIP3   OH258539   1.797   3.043  15.360 -0.0537 -0.1517  0.3657
12375TIP3    H158540   1.761   3.104  15.295 -1.4301 -0.3160  0.9494
12375TIP3    H258541   1.892   3.052  15.350 -0.1370 -1.4895 -2.9278
12376TIP3   OH258542   1.951   4.519  15.280 -0.3186  1.2276 -0.0257
12376TIP3    H158543   1.939   4.573  15.202  0.8433  0.0513 -1.0710
12376TIP3    H258544   1.866   4.478  15.294 -0.4929  1.3053 -0.8032
12377TIP3   OH258545   4.989   6.669   5.873 -0.1915  0.2703 -0.7000
12377TIP3    H158546   4.906   6.687   5.918 -1.6497  1.1287 -3.5059
12377TIP3    H258547   5.040   6.750   5.884 -0.7305  0.6550 -1.0076
12378TIP3   OH258548   0.466   6.508   4.775  0.1243 -0.5174  0.1936
12378TIP3    H158549   0.402   6.479   4.840 -1.3947 -3.5587 -2.3516
12378TIP3    H258550   0.548   6.467   4.802 -0.7798 -2.8618 -0.3200
12379TIP3   OH258551   1.167   1.810  17.434 -0.0316  0.0922 -0.6900
12379TIP3    H158552   1.154   1.715  17.433 -1.2237  0.2510 -0.9755
12379TIP3    H258553   1.103   1.844  17.372 -1.9579  1.3510  1.7899
12380TIP3   OH258554   3.234   3.228   4.345 -0.0817 -0.3669  0.3388
12380TIP3    H158555   3.198   3.251   4.431 -0.0491 -0.1869  0.3057
12380TIP3    H258556   3.207   3.138   4.331 -1.0053 -0.0623  0.0696
12381TIP3   OH258557   5.201   2.364   2.481  0.0493 -0.4326  1.0135
12381TIP3    H158558   5.140   2.344   2.551 -2.1143  1.2802 -0.2593
12381TIP3    H258559   5.203   2.286   2.426 -0.1159 -0.8979  1.6638
12382TIP3   OH258560   1.331   2.179   6.195  0.7723 -0.7929 -0.2399
12382TIP3    H158561   1.277   2.133   6.260  0.2370  1.7570  1.2345
12382TIP3    H258562   1.274   2.191   6.120 -0.8089  1.7071  1.2286
12383TIP3   OH258563   1.752   2.129   1.636 -0.2166 -0.2120 -0.3264
12383TIP3    H158564   1.691   2.186   1.590 -0.7318 -1.3611 -1.1250
12383TIP3    H258565   1.832   2.180   1.643 -0.6629  0.6090 -1.0065
12384TIP3   OH258566   5.190   3.913   1.480 -0.2412 -0.2865 -0.4215
12384TIP3    H158567   5.129   3.841   1.493  0.4442 -0.8837 -0.4330
12384TIP3    H258568   5.253   3.905   1.551 -1.1158  1.3474  0.5920
12385TIP3   OH258569   5.933   6.071   0.797  0.2379 -0.3106  0.3951
12385TIP3    H158570   6.008   6.081   0.855  0.4156 -1.8627  0.4886
12385TIP3    H258571   5.857   6.084   0.854  0.4211 -1.0163  0.8114
12386TIP3   OH258572   4.252   4.545   1.381 -0.1638  0.4460  0.0760
12386TIP3    H158573   4.333   4.508   1.415 -1.2422  0.0969  2.4237
12386TIP3    H258574   4.281   4.609   1.315  2.0419  0.9383  1.4170
12387TIP3   OH258575   4.236   3.629   2.121 -0.2789  0.0033 -0.2043
12387TIP3    H158576   4.323   3.640   2.160 -0.5460 -0.1064  0.4301
12387TIP3    H258577   4.177   3.674   2.181 -0.7438 -0.4758 -0.2950
12388TIP3   OH258578   1.964   1.390  16.762  0.2037  0.2029 -0.5738
12388TIP3    H158579   2.027   1.403  16.833  2.9630  1.8378 -3.0800
12388TIP3    H258580   1.993   1.310  16.720 -0.9112 -0.3117 -0.3873
12389TIP3   OH258581   4.892   0.781  14.909 -0.4401 -0.1976  0.3777
12389TIP3    H158582   4.981   0.817  14.911 -0.0956 -0.7151 -2.0455
12389TIP3    H258583   4.835   0.858  14.905  0.0375  0.1292 -0.3390
12390TIP3   OH258584   4.791   3.581   4.792 -0.0167 -0.2907  0.4162
12390TIP3    H158585   4.805   3.670   4.761 -0.4575  0.9645  3.5097
12390TIP3    H258586   4.839   3.526   4.730  1.4246  2.1797 -0.7958
12391TIP3   OH258587   4.916   5.033  14.622 -0.0045  0.1251  0.0871
12391TIP3    H158588   4.896   4.991  14.705  0.1521 -1.3569 -0.5996
12391TIP3    H258589   5.012   5.031  14.617  0.0584  1.3630  0.4259
12392TIP3   OH258590   5.722   6.185   3.421 -0.4370  0.6015  0.0083
12392TIP3    H158591   5.735   6.093   3.399  0.6034  0.6762  0.2636
12392TIP3    H258592   5.656   6.183   3.490  0.7925 -0.1167  1.2345
12393TIP3   OH258593   3.961   4.897   2.833 -0.2859 -0.1694 -0.0668
12393TIP3    H158594   3.950   4.882   2.740 -1.6702 -1.7876  0.3128
12393TIP3    H258595   4.036   4.842   2.858 -0.7626 -0.7904  0.0085
12394TIP3   OH258596   2.060   2.147  12.569  1.0550  0.1167 -0.2445
12394TIP3    H158597   1.971   2.173  12.595 -0.2172 -2.5851 -1.4921
12394TIP3    H258598   2.117   2.203  12.621 -1.3633  2.1980  0.3669
12395TIP3   OH258599   4.706   5.569   2.914 -0.1945 -0.0178  0.5232
12395TIP3    H158600   4.766   5.549   2.986  0.6448 -0.3427 -0.2446
12395TIP3    H258601   4.761   5.610   2.848 -1.1186  1.0761  0.3996
12396TIP3   OH258602   3.162   4.181  11.530 -0.3352 -0.3492 -0.1990
12396TIP3    H158603   3.241   4.167  11.582 -0.6222 -1.4706 -0.0512
12396TIP3    H258604   3.190   4.168  11.440 -0.4646 -1.3018 -0.1075
12397TIP3   OH258605   0.550   4.005   4.787 -0.4507  0.3265  0.5229
12397TIP3    H158606   0.567   3.961   4.704  1.0950  0.8794  0.5089
12397TIP3    H258607   0.483   4.070   4.767  0.2828  0.8156 -0.4328
12398TIP3   OH258608   0.580   4.955   2.727 -0.2087 -0.2661 -0.3883
12398TIP3    H158609   0.647   4.985   2.666 -0.9141  1.8548 -0.2182
12398TIP3    H258610   0.520   4.903   2.673  0.7410 -0.9225 -0.8420
12399TIP3   OH258611   3.173   0.946  16.791  0.0359  0.7197  0.1621
12399TIP3    H158612   3.163   0.966  16.698 -0.9728 -1.2783 -0.2216
12399TIP3    H258613   3.085   0.957  16.827 -0.0878 -0.7948  0.3644
12400TIP3   OH258614   4.896   3.790  12.258  0.2079  0.0234 -0.0963
12400TIP3    H158615   4.908   3.701  12.292  0.7596 -0.1387 -0.6921
12400TIP3    H258616   4.899   3.846  12.336 -1.2641 -0.5557  0.4152
12401TIP3   OH258617   2.475   2.957  16.575 -0.0616 -0.1100  0.7276
12401TIP3    H158618   2.462   3.047  16.546  0.1888 -0.5620 -0.8556
12401TIP3    H258619   2.570   2.945  16.573 -0.1655 -1.0568 -1.2768
12402TIP3   OH258620   5.324   2.130  13.615  0.4407  0.1050 -0.0684
12402TIP3    H158621   5.315   2.042  13.579 -1.4894  0.7418 -1.3232
12402TIP3    H258622   5.414   2.157  13.594  0.8258 -1.2931 -0.2634
12403TIP3   OH258623   5.971   3.365   4.588  0.0534  0.3000 -0.4068
12403TIP3    H158624   6.019   3.433   4.635  0.3750 -0.1322 -0.0977
12403TIP3    H258625   6.018   3.356   4.505  0.1493  0.2942 -0.3524
12404TIP3   OH258626   4.257   0.964  16.512  0.3790  0.2811  0.7789
12404TIP3    H158627   4.249   0.875  16.480 -1.4318  0.8195 -0.4444
12404TIP3    H258628   4.259   0.956  16.608 -2.5620 -0.9672  0.8356
12405TIP3   OH258629   0.411   5.286  15.286 -0.3453  0.0902  0.2026
12405TIP3    H158630   0.462   5.264  15.363  0.6204 -0.0206 -0.4584
12405TIP3    H258631   0.469   5.342  15.233 -1.3113  0.9171 -0.0233
12406TIP3   OH258632   0.453   0.662   3.819 -0.3980 -0.1948 -0.5327
12406TIP3    H158633   0.392   0.645   3.892 -0.4219 -1.5839 -0.8518
12406TIP3    H258634   0.461   0.758   3.817  0.0648 -0.1163  1.6759
12407TIP3   OH258635   5.853   1.732  15.028 -0.4484 -0.2139  0.6441
12407TIP3    H158636   5.837   1.803  15.090  1.8706  2.0002 -1.0557
12407TIP3    H258637   5.832   1.770  14.943  1.1863 -1.4093 -0.3573
12408TIP3   OH258638   4.743   0.570   4.755  0.5405  0.4270 -0.1659
12408TIP3    H158639   4.727   0.649   4.807  2.0035  0.6821 -0.0666
12408TIP3    H258640   4.824   0.589   4.707  0.8728 -0.9821 -0.1979
12409TIP3   OH258641   6.533   0.001   5.269 -0.6500  0.9173  0.1241
12409TIP3    H158642   6.542  -0.087   5.232 -0.8966  0.1993  1.6965
12409TIP3    H258643   6.624   0.030   5.282 -0.5623  0.4210  0.6574
12410TIP3   OH258644   0.043   6.628  16.543 -0.0839  0.3095  0.2411
12410TIP3    H158645   0.032   6.618  16.448  1.3808  2.4596 -0.2217
12410TIP3    H258646   0.106   6.560  16.567 -1.3886 -1.0691 -0.0468
12411TIP3   OH258647   3.748   1.303   2.969 -0.1514  0.2686 -0.0036
12411TIP3    H158648   3.733   1.306   2.875  1.1076  0.8548 -0.2037
12411TIP3    H258649   3.667   1.337   3.008 -0.7371 -0.1281 -0.8515
12412TIP3   OH258650   0.762   4.343  16.167 -0.4968 -0.6551 -0.7526
12412TIP3    H158651   0.713   4.425  16.171  0.9282  0.2240 -0.7539
12412TIP3    H258652   0.826   4.356  16.097 -0.1368 -1.7190 -0.6481
12413TIP3   OH258653   1.690   3.148   3.195  0.4849 -0.1724 -0.1354
12413TIP3    H158654   1.726   3.181   3.113 -0.5921  1.9391  0.1827
12413TIP3    H258655   1.767   3.118   3.245  1.7028  2.5905 -0.1742
12414TIP3   OH258656   0.616   3.936   0.087  0.2726 -0.6823 -0.2658
12414TIP3    H158657   0.609   3.845   0.116 -1.5106 -0.8676 -1.1348
12414TIP3    H258658   0.533   3.976   0.113  1.4708  1.0588  1.1334
12415TIP3   OH258659   4.444   0.241   4.271  0.0894 -0.1271  0.1441
12415TIP3    H158660   4.500   0.174   4.233  1.0935 -1.1897  3.2193
12415TIP3    H258661   4.364   0.195   4.296 -0.4135  0.4740 -0.3060
12416TIP3   OH258662   5.231   1.553  12.650 -0.2374  0.2687  0.1386
12416TIP3    H158663   5.143   1.519  12.634 -0.4922  0.7130  0.5891
12416TIP3    H258664   5.229   1.587  12.740  0.6837 -0.6372  0.5262
12417TIP3   OH258665   0.312   6.449   7.081 -0.4613 -0.0533 -0.0631
12417TIP3    H158666   0.312   6.534   7.125 -1.2900 -1.0015  1.8839
12417TIP3    H258667   0.223   6.415   7.094 -0.1312 -1.2617 -0.7550
12418TIP3   OH258668   6.406   6.392   1.949  0.8605  0.2033  0.3742
12418TIP3    H158669   6.417   6.445   1.871  0.3755 -0.9275 -0.4958
12418TIP3    H258670   6.316   6.407   1.977  0.7187 -0.1561  0.1199
12419TIP3   OH258671   0.509   5.470   0.082 -0.4513  0.4239  0.1267
12419TIP3    H158672   0.546   5.467  -0.006  0.1257  1.3096  0.3198
12419TIP3    H258673   0.414   5.470   0.069 -0.3747  1.4632 -0.5584
12420TIP3   OH258674   3.531   0.265   1.870 -0.2544  0.4134 -0.1014
12420TIP3    H158675   3.589   0.306   1.806 -0.5000  0.1937 -0.4690
12420TIP3    H258676   3.560   0.299   1.955  0.0987  0.6740 -0.3269
12421TIP3   OH258677   0.300   3.808   1.225  0.0652  0.1590  0.0226
12421TIP3    H158678   0.394   3.819   1.236 -0.0762  1.2935  0.2045
12421TIP3    H258679   0.267   3.896   1.212 -1.2813  0.0953  2.3790
12422TIP3   OH258680   0.824   0.003  15.734  0.1855  0.4071 -0.2922
12422TIP3    H158681   0.786  -0.078  15.769  1.7965 -0.4563 -0.3983
12422TIP3    H258682   0.749   0.055  15.706 -1.0160 -0.0823  1.8250
12423TIP3   OH258683   6.614   4.609   0.277  0.5175  0.5414 -0.3694
12423TIP3    H158684   6.576   4.612   0.189  1.2898 -1.0326 -0.7992
12423TIP3    H258685   6.561   4.669   0.329 -2.2247 -1.1117 -1.0449
12424TIP3   OH258686   5.099   4.052   6.380 -0.2165  0.8398 -0.4889
12424TIP3    H158687   5.035   3.993   6.421  0.7813 -1.1444 -1.6035
12424TIP3    H258688   5.181   4.002   6.380  0.6142  2.1099 -1.8054
12425TIP3   OH258689   2.620   4.352  13.469 -0.2492 -0.2162  0.1179
12425TIP3    H158690   2.541   4.338  13.522 -2.1033  3.0232 -1.4739
12425TIP3    H258691   2.594   4.328  13.380  0.0000  2.1868 -0.6708
12426TIP3   OH258692   2.331   1.616  13.233  0.2582  0.1826  0.1097
12426TIP3    H158693   2.336   1.548  13.301 -0.6336  2.1712  2.2988
12426TIP3    H258694   2.373   1.693  13.273 -0.3585  1.4532 -1.5885
12427TIP3   OH258695   2.038   5.068  11.908 -0.0657  0.8932  0.5691
12427TIP3    H158696   2.016   5.010  11.981  0.3603  0.6674  0.5190
12427TIP3    H258697   2.064   5.010  11.837 -1.2943  1.0765 -0.0542
12428TIP3   OH258698   0.472   0.310   3.790  0.4135 -0.3439 -0.4510
12428TIP3    H158699   0.485   0.237   3.730  1.5676 -1.4477  1.0573
12428TIP3    H258700   0.523   0.382   3.752  0.8759 -0.9294 -0.9595
12429TIP3   OH258701   0.396   2.930   2.127 -0.1600  0.5038 -0.2506
12429TIP3    H158702   0.337   2.921   2.202  2.1137 -2.0855  1.4273
12429TIP3    H258703   0.418   3.023   2.123  1.0319  0.5363  3.5465
12430TIP3   OH258704   6.131   3.253   4.411 -0.4221  0.1780 -0.2294
12430TIP3    H158705   6.070   3.180   4.423 -0.2493  0.1124  0.2883
12430TIP3    H258706   6.218   3.214   4.420 -0.2452  0.0623 -2.1224
12431TIP3   OH258707   4.902   4.728  14.704  0.1086 -0.0435 -0.0665
12431TIP3    H158708   4.959   4.719  14.780 -1.0069 -2.1280  0.6103
12431TIP3    H258709   4.838   4.794  14.730 -1.8002 -2.4539  1.9780
12432TIP3   OH258710   0.333   5.102   4.319 -0.4018  0.0709  0.2643
12432TIP3    H158711   0.391   5.086   4.394  1.0380 -0.4771 -0.9111
12432TIP3    H258712   0.257   5.047   4.336 -1.4780  2.0991  2.7104
12433TIP3   OH258713   3.881   3.685  16.313 -0.3580  0.0058  0.3526
12433TIP3    H158714   3.950   3.694  16.248 -0.3246  3.1935  0.6780
12433TIP3    H258715   3.923   3.642  16.387  1.6060  2.5133  0.8187
12434TIP3   OH258716   3.536   1.309   6.626  0.0362  0.1172  0.6391
12434TIP3    H158717   3.569   1.389   6.586 -2.4336  0.3520 -1.1243
12434TIP3    H258718   3.451   1.334   6.664 -0.5284 -1.5209  0.5470
12435TIP3   OH258719   5.723   6.714   5.646 -0.0783  0.0629 -0.1595
12435TIP3    H158720   5.689   6.725   5.557  0.1954  1.5396 -0.1217
12435TIP3    H258721   5.655   6.750   5.702  0.3249  0.3930  0.1230
12436TIP3   OH258722   1.702   1.938  12.141  0.2021  0.2293 -0.2991
12436TIP3    H158723   1.665   1.967  12.224 -0.5420 -0.1663 -0.4857
12436TIP3    H258724   1.791   1.909  12.162 -0.2873 -0.7255  0.5337
12437TIP3   OH258725   4.745   6.150  16.473 -0.4610  0.1030  0.4176
12437TIP3    H158726   4.717   6.214  16.407 -0.9639 -0.1734  0.3623
12437TIP3    H258727   4.792   6.083  16.422  0.3739  0.5996  0.5190
12438TIP3   OH258728   2.291   4.432  12.351 -0.5677 -0.3337 -0.3571
12438TIP3    H158729   2.269   4.340  12.335 -1.0768 -0.0164 -1.5606
12438TIP3    H258730   2.312   4.435  12.444 -0.1441 -1.7497 -0.3745
12439TIP3   OH258731   4.059   0.626   1.520  0.4580 -1.4960 -0.0209
12439TIP3    H158732   4.011   0.547   1.496  0.4263 -1.3405 -0.4852
12439TIP3    H258733   4.037   0.641   1.612 -2.9716  0.3244 -0.9547
12440TIP3   OH258734   5.209   4.996  17.037 -0.1472  0.5469  0.0796
12440TIP3    H158735   5.289   4.994  17.090  1.4543 -1.5235 -2.1955
12440TIP3    H258736   5.162   4.916  17.060 -0.3178  0.5254 -0.3266
12441TIP3   OH258737   1.978   0.120   1.287  0.4423 -0.0756 -0.4911
12441TIP3    H158738   1.947   0.155   1.204  0.0019 -0.5511 -0.5307
12441TIP3    H258739   2.024   0.193   1.328  0.4817  0.2237 -1.0566
12442TIP3   OH258740   5.986   4.968  14.553 -0.0391 -0.1859 -0.0390
12442TIP3    H158741   5.895   4.975  14.580  0.2855  0.0391  1.0549
12442TIP3    H258742   5.985   4.906  14.480 -1.1994  0.6962 -0.8022
12443TIP3   OH258743   3.626   1.191  16.595 -0.1705 -0.6635 -0.8466
12443TIP3    H158744   3.537   1.171  16.568  0.3267 -1.3617 -2.0907
12443TIP3    H258745   3.626   1.285  16.611 -0.9371 -0.5005 -1.6905
12444TIP3   OH258746   4.022   2.544  11.671  0.2249  0.2665 -0.3080
12444TIP3    H158747   4.031   2.573  11.762  0.9724  0.7041 -0.5151
12444TIP3    H258748   4.003   2.625  11.622  0.6013  0.1554 -0.6456
12445TIP3   OH258749   3.003   5.359  11.446 -0.5651  0.0077  0.3769
12445TIP3    H158750   2.922   5.313  11.464  0.5161 -0.9546  3.4459
12445TIP3    H258751   3.002   5.434  11.505 -0.0117  1.0428 -0.8730
12446TIP3   OH258752   5.303   5.258   2.276 -0.7750  0.9667 -0.4828
12446TIP3    H158753   5.304   5.163   2.270  0.2239  0.9738 -0.6140
12446TIP3    H258754   5.369   5.287   2.213 -0.2770  1.6935  0.3541
12447TIP3   OH258755   2.161   1.951  14.352  0.2439 -0.3603 -0.2773
12447TIP3    H158756   2.179   1.919  14.263  1.0499 -2.4890  0.5856
12447TIP3    H258757   2.072   1.921  14.371  0.0441  0.1597 -0.3947
12448TIP3   OH258758   3.059   0.850  12.221 -0.1748  0.3003 -0.1167
12448TIP3    H158759   3.077   0.778  12.161 -1.2600 -0.2631  0.2029
12448TIP3    H258760   2.986   0.819  12.274  1.2552  0.4597  2.0470
12449TIP3   OH258761   5.269   4.916   6.715 -0.1979 -0.6259  0.3799
12449TIP3    H158762   5.363   4.912   6.730 -0.1605  2.3889  1.4680
12449TIP3    H258763   5.261   4.933   6.621  0.4021  0.2888  0.4851
12450TIP3   OH258764   2.682   3.993   4.116  0.1406  0.3911  0.0669
12450TIP3    H158765   2.613   3.928   4.103 -0.3119 -0.0654  3.6104
12450TIP3    H258766   2.661   4.064   4.055 -3.3019  0.1185  0.7316
12451TIP3   OH258767   0.255   5.002   3.376 -0.4008 -0.1018 -0.1678
12451TIP3    H158768   0.203   4.933   3.418 -2.2688  0.7933 -0.8826
12451TIP3    H258769   0.238   5.080   3.428  0.1191  0.2414 -0.5030
12452TIP3   OH258770   1.478   3.383   0.111 -0.5296  0.2324 -0.1580
12452TIP3    H158771   1.467   3.291   0.087 -1.4796  0.2132  0.3348
12452TIP3    H258772   1.390   3.421   0.106 -0.5467  0.5495  1.9388
12453TIP3   OH258773   3.540   3.591   1.986  0.1783 -0.1285  0.2442
12453TIP3    H158774   3.573   3.617   1.900  0.4298  0.2697  0.4576
12453TIP3    H258775   3.464   3.536   1.967  0.8121 -0.8496 -0.2512
12454TIP3   OH258776   0.316   1.226   6.073  0.3417 -0.1237  0.2797
12454TIP3    H158777   0.242   1.259   6.124  0.4316 -0.7947  0.8705
12454TIP3    H258778   0.338   1.296   6.013  0.0434  0.5865  0.9839
12455TIP3   OH258779   1.883   6.409   5.169  0.1714 -0.0544  0.3529
12455TIP3    H158780   1.833   6.480   5.209  1.7616 -0.0434  2.5056
12455TIP3    H258781   1.821   6.336   5.163 -1.0919  1.0530 -0.5726
12456TIP3   OH258782   1.421   5.330   1.330  0.0103 -0.7625  0.4942
12456TIP3    H158783   1.411   5.343   1.236  0.9608  0.8221  0.5850
12456TIP3    H258784   1.333   5.311   1.361 -1.2504  3.3427 -0.0656
12457TIP3   OH258785   3.543   3.717   4.722  0.0380  0.1929  0.3068
12457TIP3    H158786   3.602   3.651   4.759  0.5370  2.2544  3.6295
12457TIP3    H258787   3.601   3.789   4.695 -0.7068  0.7417  0.1325
12458TIP3   OH258788   5.927   0.291   3.200  0.5631  0.1038 -0.3837
12458TIP3    H158789   5.959   0.375   3.165 -0.0812  0.2227 -0.7065
12458TIP3    H258790   5.832   0.302   3.203  0.3811 -1.0252 -1.5126
12459TIP3   OH258791   6.668   6.729  15.574 -0.6393 -0.8381 -0.4463
12459TIP3    H158792   6.731   6.753  15.506  0.4305 -0.2471  0.7170
12459TIP3    H258793   6.590   6.780  15.553 -0.4399 -0.9049 -1.4027
12460TIP3   OH258794   6.631   5.240   0.916 -0.3712 -0.2813 -0.1166
12460TIP3    H158795   6.573   5.164   0.903 -1.4198 -0.2088  3.2064
12460TIP3    H258796   6.579   5.300   0.969  2.0452  0.7251  1.2264
12461TIP3   OH258797   6.700   1.079  14.513 -0.1696 -0.4993  0.1548
12461TIP3    H158798   6.725   1.001  14.464  0.5344  0.6169 -1.3586
12461TIP3    H258799   6.663   1.138  14.447 -1.2458  0.2404  1.3561
12462TIP3   OH258800   0.328   2.948  15.723 -0.5274  0.1321 -0.7701
12462TIP3    H158801   0.271   3.024  15.738  0.2666  0.3542  1.6186
12462TIP3    H258802   0.412   2.973  15.762  0.2777 -1.3413 -1.4644
12463TIP3   OH258803   6.588   2.247   0.097 -0.0612 -0.1228 -0.5968
12463TIP3    H158804   6.568   2.158   0.069 -0.5574 -0.0942 -0.3433
12463TIP3    H258805   6.598   2.241   0.192  0.8926 -0.0872 -0.6869
12464TIP3   OH258806   3.762   0.690   2.950  0.4023  0.0414 -1.0184
12464TIP3    H158807   3.702   0.757   2.916  1.2951  1.2520 -0.2602
12464TIP3    H258808   3.709   0.610   2.950 -1.1178  0.9907 -0.7170
12465TIP3   OH258809   3.546   2.355  16.792  0.4690  0.3402  0.3626
12465TIP3    H158810   3.455   2.340  16.765  1.0571  1.1864 -2.4902
12465TIP3    H258811   3.563   2.446  16.767  2.3450 -0.0830 -0.0465
12466TIP3   OH258812   4.390   5.546  13.023  0.2627 -0.0438 -0.0199
12466TIP3    H158813   4.370   5.515  13.112 -0.1255 -0.9238 -0.4080
12466TIP3    H258814   4.485   5.534  13.015  0.3594  0.3725  0.3898
12467TIP3   OH258815   2.494   2.996  11.729  0.4548  0.6395 -0.1376
12467TIP3    H158816   2.447   3.049  11.793  1.9499  0.2025  1.4053
12467TIP3    H258817   2.428   2.972  11.664 -2.1003 -1.8853  3.0562
12468TIP3   OH258818   2.232   3.075  14.364  0.0255  0.5081 -0.6357
12468TIP3    H158819   2.233   3.164  14.328 -0.5193  0.8706  0.2250
12468TIP3    H258820   2.209   3.019  14.290  0.2404  1.0910 -1.1524
12469TIP3   OH258821   5.109   2.175  16.705  0.0769  0.2020  0.2429
12469TIP3    H158822   5.136   2.259  16.744  0.0384  0.8685 -1.1242
12469TIP3    H258823   5.023   2.193  16.667 -0.5987 -0.8689  1.1747
12470TIP3   OH258824   3.055   0.200  12.031  0.7247 -0.4722 -0.1410
12470TIP3    H158825   3.067   0.184  11.938 -0.4754  1.0796 -0.6024
12470TIP3    H258826   3.020   0.289  12.036 -0.1451 -0.8722  1.7261
12471TIP3   OH258827   0.761   2.612  11.882 -0.1294 -0.6032 -0.4303
12471TIP3    H158828   0.681   2.563  11.865 -0.2950 -0.4526 -0.0947
12471TIP3    H258829   0.796   2.575  11.963 -1.2783  1.0714  0.9303
12472TIP3   OH258830   5.863   3.348  11.622 -1.0503 -0.2142 -0.0778
12472TIP3    H158831   5.879   3.439  11.596 -1.1581 -0.3656 -0.6842
12472TIP3    H258832   5.849   3.353  11.716 -0.8910  0.3782 -0.0770
12473TIP3   OH258833   0.845   2.704   0.557  0.7212 -0.5448  0.4632
12473TIP3    H158834   0.884   2.732   0.640 -0.7831  0.0751  0.9846
12473TIP3    H258835   0.766   2.656   0.582  0.4593 -0.6963 -0.6007
12474TIP3   OH258836   2.107   0.909   2.447 -0.3154  0.3290 -0.1651
12474TIP3    H158837   2.060   0.826   2.452 -0.2879  0.3150 -0.1396
12474TIP3    H258838   2.195   0.888   2.478  0.1589  0.0063 -1.6110
12475TIP3   OH258839   1.880   2.293   3.313 -0.1143 -0.2274  0.3685
12475TIP3    H158840   1.850   2.249   3.393  0.1767  1.3054  1.3693
12475TIP3    H258841   1.816   2.363   3.300  0.5846  0.3428  0.0052
12476TIP3   OH258842   6.296   1.376  14.325 -0.3186  0.0167  0.1575
12476TIP3    H158843   6.203   1.356  14.332 -0.2070 -1.7130 -2.0804
12476TIP3    H258844   6.307   1.411  14.237  1.2067 -0.3528  0.1685
12477TIP3   OH258845   5.192   0.798  13.446  0.0691 -0.2918 -0.0720
12477TIP3    H158846   5.282   0.805  13.476 -0.0696  0.6512  0.1648
12477TIP3    H258847   5.178   0.704  13.432  0.9564 -0.4825  0.2680
12478TIP3   OH258848   5.768   0.279  16.521  0.1596 -0.0841  0.6418
12478TIP3    H158849   5.700   0.247  16.581  0.0139  0.3237  0.7004
12478TIP3    H258850   5.741   0.247  16.435 -0.5743  0.7638  0.5313
12479TIP3   OH258851   4.544   3.096  14.438  0.4305  0.3873  0.2736
12479TIP3    H158852   4.566   3.002  14.440 -0.8864  0.0586 -0.0988
12479TIP3    H258853   4.619   3.138  14.480  1.2073 -0.7994  0.1414
12480TIP3   OH258854   1.095   2.948  14.430 -0.4027 -0.2894 -0.1114
12480TIP3    H158855   1.132   2.924  14.515 -2.1218 -2.7674  0.0387
12480TIP3    H258856   1.008   2.983  14.450 -0.0308  1.1177 -0.7696
12481TIP3   OH258857   4.293   2.529   2.856 -0.2491  0.4372  0.0242
12481TIP3    H158858   4.302   2.598   2.922 -1.5286  0.8659 -0.2301
12481TIP3    H258859   4.209   2.546   2.814  0.0869 -0.4266 -1.0436
12482TIP3   OH258860   5.440   0.021  16.987  0.4300  0.2668  0.2037
12482TIP3    H158861   5.503  -0.020  17.047  1.6053  1.6634  0.0037
12482TIP3    H258862   5.480   0.011  16.900 -0.4356 -0.2615 -0.1383
12483TIP3   OH258863   5.435   0.430   3.595  0.1968  0.0307 -0.0507
12483TIP3    H158864   5.426   0.403   3.687 -1.6749 -0.0673 -0.2158
12483TIP3    H258865   5.408   0.522   3.595  0.7824  0.2039 -0.4188
12484TIP3   OH258866   0.394   6.118  14.015  0.0553  0.0923  0.7884
12484TIP3    H158867   0.461   6.054  14.039  0.0527 -0.8498 -1.4709
12484TIP3    H258868   0.400   6.124  13.920 -1.5531  1.7250  0.7391
12485TIP3   OH258869   1.874   1.964   4.220 -0.1990  0.3470 -0.4278
12485TIP3    H158870   1.912   1.879   4.242  0.7187  0.4903 -1.3747
12485TIP3    H258871   1.785   1.944   4.190 -0.4698 -0.1209  0.6354
12486TIP3   OH258872   6.671   3.660  12.674 -0.8056 -0.2697  0.3325
12486TIP3    H158873   6.635   3.687  12.758 -3.1274 -0.9038 -0.3987
12486TIP3    H258874   6.610   3.693  12.609  0.6300 -0.2991 -1.0953
12487TIP3   OH258875   3.776   2.053  12.009  0.5861 -0.7531 -0.2754
12487TIP3    H158876   3.840   2.125  12.010 -0.7276  0.5245  2.0065
12487TIP3    H258877   3.742   2.053  11.920  0.6996  1.4311 -0.3827
12488TIP3   OH258878   0.513   6.271  14.445 -0.1756 -0.0745 -0.3506
12488TIP3    H158879   0.556   6.354  14.424 -0.8834  0.2874 -0.3838
12488TIP3    H258880   0.422   6.294  14.460 -0.8035 -1.1101 -2.2932
12489TIP3   OH258881   3.992   0.069  13.519  0.6033  0.0760  0.2744
12489TIP3    H158882   3.942   0.065  13.438 -0.3019  0.2063  0.8071
12489TIP3    H258883   3.986  -0.020  13.556 -0.1351  0.3574  0.8550
12490TIP3   OH258884   5.626   4.598  11.882  0.3663  0.6589 -0.1067
12490TIP3    H158885   5.676   4.680  11.877  1.0789  0.2663  0.4589
12490TIP3    H258886   5.685   4.532  11.846 -0.0089  0.3020 -0.0710
12491TIP3   OH258887   0.117   5.261   5.617 -0.7612 -0.2854  0.4665
12491TIP3    H158888   0.121   5.224   5.705 -0.5485 -1.3942  0.0095
12491TIP3    H258889   0.077   5.347   5.629  1.3027  0.5850  1.9675
12492TIP3   OH258890   0.618   5.518   1.640  0.3843  0.4757 -0.0924
12492TIP3    H158891   0.683   5.449   1.626  0.4322  0.2215  1.2056
12492TIP3    H258892   0.667   5.600   1.633  1.4742  0.2617  3.3063
12493TIP3   OH258893   6.533   2.369  16.862 -0.6007  0.2408 -0.0005
12493TIP3    H158894   6.585   2.361  16.781  0.6097 -0.7599  0.8313
12493TIP3    H258895   6.481   2.289  16.864  0.5497 -0.5206  0.9649
12494TIP3   OH258896   6.430   1.070  17.160 -0.1808  0.2434  0.0413
12494TIP3    H158897   6.364   1.083  17.092  0.8640  2.3741 -0.6282
12494TIP3    H258898   6.401   1.126  17.233 -0.5937 -1.0275  0.9046
12495TIP3   OH258899   2.312   4.926  13.053  0.2672 -0.5881 -0.8471
12495TIP3    H158900   2.399   4.942  13.089  0.9414 -0.9593 -2.2648
12495TIP3    H258901   2.285   4.843  13.092  0.9386 -0.9280 -1.0929
12496TIP3   OH258902   6.003   3.939  15.040  0.0500 -0.4481  0.4693
12496TIP3    H158903   5.923   3.934  15.093  0.3364 -0.7598  0.8856
12496TIP3    H258904   5.979   3.993  14.966 -0.0186  1.0392  1.5326
12497TIP3   OH258905   1.111   0.715  11.451 -0.4563 -0.4461  0.2350
12497TIP3    H158906   1.160   0.748  11.527 -0.6667 -1.3740  0.7854
12497TIP3    H258907   1.127   0.780  11.382  0.8186 -0.2856  0.6663
12498TIP3   OH258908   1.790   0.920   0.008  0.6325 -0.0234 -0.0667
12498TIP3    H158909   1.820   0.868   0.083  0.3792 -1.0096 -0.6272
12498TIP3    H258910   1.710   0.963   0.040  1.7005  1.3348  0.9112
12499TIP3   OH258911   0.343   2.115  11.943  0.4409 -0.0836  0.3954
12499TIP3    H158912   0.419   2.080  11.896 -0.7009 -1.1201 -0.7941
12499TIP3    H258913   0.315   2.043  12.000 -0.8033 -0.4945 -0.6722
12500TIP3   OH258914   5.006   2.764   6.402  0.4696 -0.0482  0.4165
12500TIP3    H158915   5.044   2.784   6.487 -1.2941  0.2934  1.1790
12500TIP3    H258916   5.065   2.805   6.339  1.1828  0.7211  1.5457
12501TIP3   OH258917   6.257   2.441  11.465 -0.2669 -0.0472  0.1084
12501TIP3    H158918   6.196   2.511  11.440 -0.1812 -0.5357 -1.6269
12501TIP3    H258919   6.342   2.486  11.472 -0.4754  0.2879  0.4998
12502TIP3   OH258920   2.732   1.290  15.769  0.5110  0.3642 -0.6060
12502TIP3    H158921   2.745   1.217  15.829  1.6516  0.8732 -0.2042
12502TIP3    H258922   2.806   1.285  15.709 -0.3134  0.2047 -1.6212
12503TIP3   OH258923   1.260   2.141  16.972 -0.1997  0.1183  0.4002
12503TIP3    H158924   1.351   2.130  17.000 -0.0834  0.4796  0.1643
12503TIP3    H258925   1.218   2.058  16.996  0.0940  0.0991  0.8769
12504TIP3   OH258926   5.350   5.686   5.199  0.2153  0.0364  0.2017
12504TIP3    H158927   5.254   5.692   5.201  0.0383 -0.2976 -2.9740
12504TIP3    H258928   5.372   5.678   5.106  3.2019 -2.5048  0.9734
12505TIP3   OH258929   3.694   0.605   1.834 -0.0796 -0.1646  0.3786
12505TIP3    H158930   3.723   0.518   1.809 -0.0391 -0.3163  0.9500
12505TIP3    H258931   3.693   0.654   1.751  1.8601 -0.1264  0.3181
12506TIP3   OH258932   3.614   1.755   0.706 -0.0076 -0.4733  0.3196
12506TIP3    H158933   3.617   1.681   0.645 -0.4946 -0.1083 -0.1624
12506TIP3    H258934   3.663   1.824   0.662 -0.0767 -0.3125  0.4937
12507TIP3   OH258935   5.552   0.631   4.695 -0.1473 -0.6448  0.0217
12507TIP3    H158936   5.536   0.544   4.731 -1.2972 -0.6388 -0.4397
12507TIP3    H258937   5.473   0.651   4.644  0.3021  0.4697 -0.2648
12508TIP3   OH258938   3.598   0.256   1.007  0.2777 -0.4286  0.5517
12508TIP3    H158939   3.618   0.283   1.097 -0.0472 -2.4816  1.2933
12508TIP3    H258940   3.674   0.206   0.979 -0.3684 -1.3348  0.3677
12509TIP3   OH258941   5.927   5.429  10.790 -0.5109  0.2534 -0.3546
12509TIP3    H158942   6.021   5.415  10.798 -0.7844 -0.7904  1.8722
12509TIP3    H258943   5.918   5.493  10.720  1.9817  1.5740  0.4053
12510TIP3   OH258944   1.276   4.209   1.472 -0.6114  0.1855  0.3242
12510TIP3    H158945   1.322   4.273   1.526  0.5344  0.6474 -1.1206
12510TIP3    H258946   1.346   4.149   1.444 -1.4270 -0.8650  0.4930
12511TIP3   OH258947   4.205   4.217  17.244  0.0859 -0.7636 -0.5094
12511TIP3    H158948   4.130   4.247  17.295 -0.8308 -2.1724 -0.9845
12511TIP3    H258949   4.183   4.238  17.154  0.7765 -0.1822 -0.5558
12512TIP3   OH258950   0.222   6.471  16.718  0.2611 -0.6346 -0.0982
12512TIP3    H158951   0.228   6.399  16.780 -0.2137 -0.9606 -0.4262
12512TIP3    H258952   0.311   6.481  16.684  0.1335 -1.7167 -0.7835
12513TIP3   OH258953   6.480   2.678  14.059  0.4912  0.0034 -0.0875
12513TIP3    H158954   6.420   2.609  14.089 -1.9403  1.2620 -1.7485
12513TIP3    H258955   6.441   2.710  13.978  2.8485  1.7298 -0.6277
12514TIP3   OH258956   2.680   4.270   5.946  0.3157 -0.5154  0.0698
12514TIP3    H158957   2.661   4.350   5.995  0.9038 -1.3945  1.8051
12514TIP3    H258958   2.617   4.206   5.978  1.2249 -1.3271  0.2904
12515TIP3   OH258959   1.434   2.664  13.898 -0.6674 -0.3086 -0.4447
12515TIP3    H158960   1.464   2.742  13.851  0.7586 -0.3803  0.3000
12515TIP3    H258961   1.351   2.642  13.856 -0.8557  1.3131 -1.0036
12516TIP3   OH258962   5.949   2.817  11.200  0.1553 -0.1321 -0.2320
12516TIP3    H158963   5.879   2.842  11.140 -0.3897 -0.5927  0.2001
12516TIP3    H258964   5.994   2.745  11.155  0.1430 -0.0626 -0.3577
12517TIP3   OH258965   5.309   0.198  15.444  0.5071 -0.3543 -0.1375
12517TIP3    H158966   5.226   0.160  15.413  0.8994 -2.0290  0.7651
12517TIP3    H258967   5.369   0.186  15.371  0.6136 -1.4823  0.1186
12518TIP3   OH258968   4.509   0.692   2.281 -0.2677  0.4075 -0.0352
12518TIP3    H158969   4.496   0.746   2.359 -3.3597  1.2688 -1.0110
12518TIP3    H258970   4.535   0.754   2.213  0.0734  0.0335 -0.2499
12519TIP3   OH258971   5.453   2.465  13.591  0.2086  0.1599  0.4100
12519TIP3    H158972   5.366   2.503  13.579 -0.4444 -1.0971  0.9743
12519TIP3    H258973   5.453   2.388  13.535 -0.0376 -1.3480  2.3771
12520TIP3   OH258974   2.363   2.333  14.103 -0.0525 -0.6579  0.0895
12520TIP3    H158975   2.338   2.324  14.195  0.9119  2.2286  0.7386
12520TIP3    H258976   2.375   2.428  14.090 -3.1632 -0.5182 -3.8508
12521TIP3   OH258977   6.660   0.479  14.958 -0.4175 -0.5590 -0.4125
12521TIP3    H158978   6.722   0.535  14.911 -0.8926 -1.9273 -2.8660
12521TIP3    H258979   6.670   0.393  14.918 -1.5964 -1.5926  1.3889
12522TIP3   OH258980   2.978   2.025  16.495 -0.3114  0.2727 -0.4249
12522TIP3    H158981   2.903   2.034  16.436 -0.0539 -2.5789 -1.3163
12522TIP3    H258982   2.997   1.931  16.497  0.9284  0.4502  2.7331
12523TIP3   OH258983   1.405   5.161  16.897  0.0273 -0.2391  0.3079
12523TIP3    H158984   1.449   5.113  16.968 -0.1392  0.6085  1.0059
12523TIP3    H258985   1.467   5.158  16.824  0.6249 -0.3091  0.8088
12524TIP3   OH258986   6.634   2.219  15.131  0.0150  0.6139 -0.2828
12524TIP3    H158987   6.597   2.263  15.055 -1.0824 -0.2748 -0.2911
12524TIP3    H258988   6.659   2.133  15.100  1.2567  0.8754 -0.0481
12525TIP3   OH258989   5.374   2.208  12.626  0.7526  0.6646 -0.2270
12525TIP3    H158990   5.349   2.140  12.564 -0.4669 -0.3024  1.2719
12525TIP3    H258991   5.440   2.166  12.682  0.7619  1.0529  0.0569
12526TIP3   OH258992   2.734   2.313   3.110  0.0166  0.2285  0.1778
12526TIP3    H158993   2.795   2.245   3.079 -0.9016 -0.7242  0.3891
12526TIP3    H258994   2.656   2.301   3.055 -0.4038  0.6810  0.6704
12527TIP3   OH258995   2.444   2.658  15.294  0.0864  0.3486 -0.5560
12527TIP3    H158996   2.478   2.746  15.280  2.3722 -0.4842 -0.5977
12527TIP3    H258997   2.476   2.608  15.220  0.0167 -0.8414  0.1930
12528TIP3   OH258998   2.608   0.969   4.861  0.0337 -0.0914 -0.0714
12528TIP3    H158999   2.676   0.977   4.928 -0.9355  0.2930  0.9040
12528TIP3    H259000   2.569   0.883   4.877 -0.9401  0.4541  0.6087
12529TIP3   OH259001   3.321   5.794  12.351 -0.0361  0.2121  0.7234
12529TIP3    H159002   3.288   5.777  12.263  0.0699 -3.0951  1.1825
12529TIP3    H259003   3.244   5.791  12.407  0.2317 -0.9510  1.0606
12530TIP3   OH259004   5.000   2.206  17.098  0.3718  0.1236 -0.1913
12530TIP3    H159005   4.927   2.178  17.044 -0.8306 -0.1596  1.5253
12530TIP3    H259006   5.045   2.125  17.122 -2.1897 -0.4081  3.4776
12531TIP3   OH259007   2.880   6.565   6.713 -0.2921 -0.1465 -0.0281
12531TIP3    H159008   2.832   6.489   6.681  0.5578 -1.8554  2.4735
12531TIP3    H259009   2.969   6.554   6.679 -0.1285 -0.3952  0.4633
12532TIP3   OH259010   5.044   6.519   0.764 -0.1558 -0.0353 -0.6495
12532TIP3    H159011   5.106   6.456   0.801 -1.5461 -0.9638  0.1987
12532TIP3    H259012   4.982   6.467   0.713 -1.0726  0.6699 -0.3074
12533TIP3   OH259013   0.123   5.878   5.823  0.1523 -0.0277 -0.1308
12533TIP3    H159014   0.040   5.844   5.790  0.7345  0.0682 -1.8281
12533TIP3    H259015   0.113   5.973   5.819  1.0387  0.0284 -2.4180
12534TIP3   OH259016   4.802   6.017  17.282 -0.6459  0.3884  0.2885
12534TIP3    H159017   4.751   5.956  17.337 -2.0849  1.3781  0.0909
12534TIP3    H259018   4.872   6.047  17.340 -0.6769 -0.4532  0.7962
12535TIP3   OH259019   5.465   5.269   1.868  0.3258  0.4246 -0.5899
12535TIP3    H159020   5.491   5.334   1.934  0.0713  1.2310 -1.2595
12535TIP3    H259021   5.516   5.191   1.889  0.7052  0.8660  0.1835
12536TIP3   OH259022   4.069   6.681  14.547 -0.1202 -0.3536 -0.4158
12536TIP3    H159023   3.977   6.691  14.573 -0.3438 -1.2249 -0.8251
12536TIP3    H259024   4.118   6.706  14.625 -0.6141  2.0482 -0.7813
12537TIP3   OH259025   4.547   6.716   2.545  0.0461  0.6176 -0.6051
12537TIP3    H159026   4.548   6.786   2.610  1.8417  0.4205 -0.3809
12537TIP3    H259027   4.582   6.756   2.466 -0.4322  0.3776 -0.9430
12538TIP3   OH259028   6.240   2.979  12.882  0.2963  0.4918  0.4606
12538TIP3    H159029   6.327   2.987  12.919  1.0076 -1.4707 -0.6351
12538TIP3    H259030   6.233   3.052  12.821  1.6548  0.0334 -0.2919
12539TIP3   OH259031   5.947   0.798  11.286 -0.4154  0.1139  0.1168
12539TIP3    H159032   5.859   0.833  11.297 -0.7774 -0.4909 -0.7209
12539TIP3    H259033   5.944   0.713  11.331 -1.6396 -1.9634 -3.4413
12540TIP3   OH259034   2.394   6.018  11.481 -0.5590 -0.9217  0.1099
12540TIP3    H159035   2.481   6.057  11.489 -0.8073 -0.0530 -1.1340
12540TIP3    H259036   2.403   5.953  11.411 -1.4183  0.9045 -1.8300
12541TIP3   OH259037   0.536   0.751   6.839  0.1796 -0.4478  0.1710
12541TIP3    H159038   0.512   0.695   6.912 -0.2514 -0.0065  0.3775
12541TIP3    H259039   0.502   0.706   6.762  1.8962 -1.6370  0.0708
12542TIP3   OH259040   6.223   5.851   5.244  0.2622 -0.0642 -0.0325
12542TIP3    H159041   6.240   5.759   5.226  3.1677  0.0894  1.3324
12542TIP3    H259042   6.204   5.854   5.338  0.0775  0.7224 -0.0859
12543TIP3   OH259043   4.922   2.714   4.331 -0.5535 -0.3427 -0.0017
12543TIP3    H159044   4.887   2.793   4.372  0.5868 -0.3817  1.1282
12543TIP3    H259045   4.970   2.744   4.255  3.0017  0.5937  2.3695
12544TIP3   OH259046   1.944   4.872   3.304  0.2371  0.6180 -0.0455
12544TIP3    H159047   1.998   4.794   3.317 -0.3626  0.6244  3.4386
12544TIP3    H259048   2.005   4.938   3.269  1.6638 -0.3711  0.4779
12545TIP3   OH259049   0.961   4.750   5.431  0.4658 -0.4213  0.0741
12545TIP3    H159050   0.926   4.769   5.518 -0.2433  2.8741 -0.7898
12545TIP3    H259051   0.916   4.670   5.404 -1.9157  0.3618  1.4144
12546TIP3   OH259052   3.719   2.950  13.818 -0.6746 -0.8991 -0.1610
12546TIP3    H159053   3.792   2.896  13.849 -0.1466  0.1724  0.5210
12546TIP3    H259054   3.646   2.888  13.810 -0.2925 -1.5916  1.3223
12547TIP3   OH259055   3.419   2.732   3.557 -0.2972  0.2712  0.6689
12547TIP3    H159056   3.409   2.640   3.583 -0.9620  0.1027 -0.1551
12547TIP3    H259057   3.513   2.742   3.541 -0.2627 -0.3486  0.4450
12548TIP3   OH259058   0.639   3.861   2.186  0.3803  0.4672  0.3777
12548TIP3    H159059   0.649   3.822   2.273 -1.5599  1.6762  1.2016
12548TIP3    H259060   0.663   3.953   2.198  1.2816  0.4059 -0.6921
12549TIP3   OH259061   2.387   2.715   5.428  0.0638 -0.1808 -0.0671
12549TIP3    H159062   2.471   2.671   5.414 -0.5100 -1.2229 -0.3822
12549TIP3    H259063   2.362   2.747   5.341 -0.4307 -0.9460 -0.2156
12550TIP3   OH259064   2.051   4.615  12.254  0.4453 -0.3945 -0.4698
12550TIP3    H159065   1.978   4.553  12.245  1.1421 -1.2844 -0.1205
12550TIP3    H259066   2.125   4.561  12.280  1.2138  0.5193 -0.7205
12551TIP3   OH259067   6.243   6.273   4.330 -0.1327  0.5681 -0.2847
12551TIP3    H159068   6.190   6.346   4.364  0.3788  1.4548 -1.3496
12551TIP3    H259069   6.178   6.213   4.293 -0.5971  0.2275  1.0306
12552TIP3   OH259070   6.033   3.732   3.863  0.1628 -1.1865  0.7377
12552TIP3    H159071   6.122   3.761   3.843  0.6784 -1.0697  2.8600
12552TIP3    H259072   5.995   3.805   3.913 -1.1071 -1.2753 -0.0543
12553TIP3   OH259073   2.807   6.692   5.291 -0.6399  0.2732  0.5827
12553TIP3    H159074   2.869   6.663   5.358 -0.2557  0.7846  0.4565
12553TIP3    H259075   2.757   6.762   5.332  0.3928  1.4040 -0.0167
12554TIP3   OH259076   1.635   5.483  12.423  0.0817 -0.2019 -0.2195
12554TIP3    H159077   1.706   5.526  12.376  0.0412  1.0983  0.8329
12554TIP3    H259078   1.678   5.419  12.479  0.2581 -0.6486 -0.8551
12555TIP3   OH259079   3.452   1.492   5.516  0.3113  0.7002 -0.5323
12555TIP3    H159080   3.474   1.437   5.591  0.5446  1.1806 -0.2397
12555TIP3    H259081   3.536   1.531   5.490 -0.1593  2.6866  0.7083
12556TIP3   OH259082   3.085   4.268  14.715  0.3447 -0.7045  0.1332
12556TIP3    H159083   3.173   4.239  14.741  0.7507 -0.9693 -1.4275
12556TIP3    H259084   3.027   4.197  14.743  1.2973 -3.1479 -3.4594
12557TIP3   OH259085   2.120   2.699  16.353 -0.2676 -1.1063  0.0871
12557TIP3    H159086   2.055   2.654  16.407 -0.4426  1.9813  2.7941
12557TIP3    H259087   2.069   2.762  16.301  0.2250 -1.7017 -1.1519
12558TIP3   OH259088   1.111   6.087  12.933  0.2646  0.9091 -0.1097
12558TIP3    H159089   1.082   6.148  13.000 -1.1511  0.0111  0.1491
12558TIP3    H259090   1.091   6.131  12.850 -1.3953  0.5868  0.0646
12559TIP3   OH259091   0.657   1.766  13.439 -0.4365  0.0739  0.5515
12559TIP3    H159092   0.709   1.819  13.500  0.1873 -0.4252  0.4638
12559TIP3    H259093   0.599   1.715  13.496 -0.8793  0.6814  0.6477
12560TIP3   OH259094   2.706   4.058   1.700 -0.0447  0.0357  0.0403
12560TIP3    H159095   2.799   4.078   1.703 -0.0784  0.2943 -0.4072
12560TIP3    H259096   2.700   3.975   1.653 -0.1484  1.0140 -1.7946
12561TIP3   OH259097   0.713   6.123  14.609 -0.2622  0.4778  0.0122
12561TIP3    H159098   0.638   6.173  14.577 -0.1526  1.1858  0.8484
12561TIP3    H259099   0.680   6.034  14.618 -0.9037  0.7125  0.0441
12562TIP3   OH259100   1.219   3.390   3.753  0.3089 -0.4714 -0.6880
12562TIP3    H159101   1.181   3.366   3.838  2.1481 -1.9119 -0.1860
12562TIP3    H259102   1.210   3.311   3.700 -1.1718  0.5336 -2.0463
12563TIP3   OH259103   1.354   0.669   4.483  0.3462 -0.0109 -0.4270
12563TIP3    H159104   1.429   0.728   4.471 -0.2121  1.5385  2.6714
12563TIP3    H259105   1.391   0.582   4.471  2.4516  0.7443  0.0648
12564TIP3   OH259106   2.605   5.650   1.935  0.3384 -0.0021  0.2186
12564TIP3    H159107   2.559   5.677   2.015  0.4805 -0.6509  0.5218
12564TIP3    H259108   2.536   5.614   1.880  0.3322 -0.0945  0.2864
12565TIP3   OH259109   4.701   0.918   5.531 -0.2341  0.0262  0.3305
12565TIP3    H159110   4.673   0.915   5.440 -1.1595  0.2028  0.5960
12565TIP3    H259111   4.658   0.843   5.572 -0.9252  0.7012  0.8968
12566TIP3   OH259112   0.998   4.204   2.142  0.0972  0.4330  0.3244
12566TIP3    H159113   1.080   4.182   2.098 -0.2484 -0.8857  0.2852
12566TIP3    H259114   1.011   4.292   2.176 -0.1311  2.2728 -3.7441
12567TIP3   OH259115   1.946   0.313   5.617 -0.3914 -0.1188  0.2364
12567TIP3    H159116   1.892   0.342   5.691 -0.7586  2.6558 -1.0116
12567TIP3    H259117   1.958   0.391   5.564  2.0502 -1.4371 -1.3341
12568TIP3   OH259118   3.739   4.044   0.867  0.5052  0.4318 -0.2851
12568TIP3    H159119   3.758   3.959   0.828  0.1296  1.0107 -1.7841
12568TIP3    H259120   3.785   4.107   0.812  0.4666  1.2355  0.5793
12569TIP3   OH259121   0.758   0.210  13.781  0.5332  0.3588 -0.7120
12569TIP3    H159122   0.726   0.300  13.780 -2.0026 -0.4717 -0.6627
12569TIP3    H259123   0.735   0.176  13.694  0.4100 -0.5615 -0.3332
12570TIP3   OH259124   6.346   5.198   2.560 -1.0057  0.4188 -0.5025
12570TIP3    H159125   6.421   5.140   2.575 -2.9234 -2.1781 -0.2589
12570TIP3    H259126   6.351   5.218   2.466 -0.3045 -0.1822 -0.6118
12571TIP3   OH259127   1.314   6.368   5.874 -0.0521 -0.1861  0.1614
12571TIP3    H159128   1.252   6.329   5.936 -1.4716 -0.8485 -1.5844
12571TIP3    H259129   1.379   6.411   5.929 -1.7058 -0.0013  2.0955
12572TIP3   OH259130   1.786   6.655   0.254  0.3598  0.1091 -0.1411
12572TIP3    H159131   1.855   6.720   0.237  0.7100 -0.5738 -1.4344
12572TIP3    H259132   1.828   6.571   0.238 -0.8385 -0.3122 -1.1865
12573TIP3   OH259133   3.620   0.753   0.580 -0.0150  0.0274  0.8465
12573TIP3    H159134   3.671   0.699   0.641 -0.6617  0.4259  1.7655
12573TIP3    H259135   3.642   0.718   0.494  2.1846  0.4941  1.1415
12574TIP3   OH259136   6.294   5.008  16.267 -0.4039 -0.0001  0.3760
12574TIP3    H159137   6.322   5.095  16.295 -0.0450  0.9479 -2.5122
12574TIP3    H259138   6.240   5.025  16.189 -0.8568 -2.3374  0.1153
12575TIP3   OH259139   2.026   4.526  11.931  0.3424 -0.3237 -0.1246
12575TIP3    H159140   2.114   4.489  11.932 -0.2338 -1.9146 -2.1353
12575TIP3    H259141   1.970   4.458  11.969 -0.1172  0.4266  0.5753
12576TIP3   OH259142   6.650   0.850   1.549 -0.0794  0.9271 -0.0125
12576TIP3    H159143   6.612   0.762   1.551  0.1616  0.8339  0.6357
12576TIP3    H259144   6.744   0.837   1.539 -0.0091  1.0983  0.3925
12577TIP3   OH259145   1.785   2.394   0.106  0.1544 -0.4155  0.2331
12577TIP3    H159146   1.869   2.435   0.087  1.3851 -1.3333  3.0446
12577TIP3    H259147   1.808   2.311   0.149 -2.1861 -0.9735  0.5537
12578TIP3   OH259148   1.978   3.535  14.691  0.2966 -0.4510 -0.2135
12578TIP3    H159149   1.898   3.561  14.737  0.3576 -0.3640 -0.1546
12578TIP3    H259150   1.957   3.546  14.598  0.6531  0.8431 -0.1702
12579TIP3   OH259151   4.925   5.386  12.391 -0.2697 -0.3757  0.2384
12579TIP3    H159152   4.928   5.481  12.399 -2.0450 -0.1377 -1.1391
12579TIP3    H259153   4.958   5.353  12.475 -0.0195  1.4467  0.8981
12580TIP3   OH259154   5.908   4.722   6.199  0.7329 -0.0536 -0.7190
12580TIP3    H159155   5.865   4.788   6.253  1.1636  0.9187 -1.5337
12580TIP3    H259156   5.878   4.638   6.235 -3.0919  0.4997 -2.1680
12581TIP3   OH259157   4.415   3.003   3.840  0.0914  0.2277 -0.4563
12581TIP3    H159158   4.452   2.958   3.764  1.3677  1.0282 -0.3515
12581TIP3    H259159   4.491   3.041   3.884 -0.8305  1.4966  0.0981
12582TIP3   OH259160   1.405   2.695   0.902  0.0564  0.3377 -0.2469
12582TIP3    H159161   1.350   2.617   0.904  0.1285  0.2144 -1.7965
12582TIP3    H259162   1.456   2.691   0.983 -1.8913  0.2510  1.0492
12583TIP3   OH259163   4.928   5.118   6.051  0.6681 -0.8159 -0.4001
12583TIP3    H159164   4.853   5.070   6.085  1.0022 -0.7745  0.4302
12583TIP3    H259165   4.993   5.114   6.121  1.4796 -0.9285 -1.1334
12584TIP3   OH259166   5.321   3.741  16.613  0.3703  0.2954 -0.8685
12584TIP3    H159167   5.329   3.662  16.560  0.2648 -0.7831  0.6658
12584TIP3    H259168   5.409   3.779  16.612  0.8634 -0.7854 -0.2290
12585TIP3   OH259169   1.558   1.842   4.479  0.1252  0.0516 -0.7088
12585TIP3    H159170   1.501   1.836   4.556  1.8627  0.2338  0.6749
12585TIP3    H259171   1.598   1.756   4.472  2.2335  0.8281  0.5229
12586TIP3   OH259172   5.770   2.721  12.889  0.3292 -0.1177  0.0110
12586TIP3    H159173   5.750   2.734  12.982  1.4757  0.2007  0.2361
12586TIP3    H259174   5.812   2.635  12.886 -0.6914 -0.6214 -0.3955
12587TIP3   OH259175   0.967   6.631  12.385  0.0535  0.8068  0.7735
12587TIP3    H159176   0.996   6.716  12.353  2.4515  0.1359  0.9642
12587TIP3    H259177   0.966   6.575  12.308  0.9768  0.4124  1.0315
12588TIP3   OH259178   4.750   2.489  10.707 -0.0266  0.0208 -0.3002
12588TIP3    H159179   4.674   2.436  10.729  0.1433 -0.0279  0.2006
12588TIP3    H259180   4.730   2.575  10.744  0.0881  0.0502 -0.3055
12589TIP3   OH259181   5.847   4.278  15.562 -0.0175 -0.2223  0.1906
12589TIP3    H159182   5.906   4.245  15.629  1.5350 -3.1652 -2.3753
12589TIP3    H259183   5.885   4.361  15.535  1.4513 -0.7847  0.4460
12590TIP3   OH259184   4.522   3.938  15.967 -0.0498 -0.3073  0.1207
12590TIP3    H159185   4.509   3.932  16.062  0.8299 -2.0152  0.1757
12590TIP3    H259186   4.554   4.028  15.953  1.4197 -0.5289  1.6736
12591TIP3   OH259187   0.224   5.140  16.103  0.0759 -0.0366 -0.1661
12591TIP3    H159188   0.178   5.109  16.180 -0.9340  2.8278  0.5137
12591TIP3    H259189   0.164   5.125  16.030  0.7750 -2.1534 -0.3811
12592TIP3   OH259190   6.327   4.310  16.558 -0.2053 -0.4410  0.1189
12592TIP3    H159191   6.332   4.231  16.505  1.7991  0.1855 -0.6922
12592TIP3    H259192   6.390   4.296  16.629 -0.2578  0.1909  0.2990
12593TIP3   OH259193   6.675   1.987   2.567 -0.0863  0.7013 -0.1977
12593TIP3    H159194   6.624   2.020   2.493 -2.9679 -0.6412  1.0481
12593TIP3    H259195   6.683   2.063   2.625 -1.0209  0.8601 -0.2582
12594TIP3   OH259196   6.234   0.238  15.847 -0.0051  0.1906  0.3495
12594TIP3    H159197   6.229   0.176  15.920 -1.2892  1.2748  1.2271
12594TIP3    H259198   6.263   0.320  15.888 -1.2814  0.9610 -0.2501
12595TIP3   OH259199   2.895   2.582  12.765 -0.1440  0.8112  0.1581
12595TIP3    H159200   2.875   2.618  12.851 -0.6700  1.3511 -0.1811
12595TIP3    H259201   2.975   2.532  12.778  0.1119  1.3763  0.8300
12596TIP3   OH259202   4.280   0.341   3.164 -0.3884 -0.1884 -0.2190
12596TIP3    H159203   4.305   0.250   3.146  0.0790 -0.5548  2.0636
12596TIP3    H259204   4.315   0.359   3.251  1.4872  2.9285 -1.4675
12597TIP3   OH259205   0.747   0.215   5.583 -0.6771 -0.0767 -0.2636
12597TIP3    H159206   0.786   0.128   5.589  0.7004  0.5133 -0.3416
12597TIP3    H259207   0.662   0.206   5.627 -0.8647 -1.6056 -0.8432
12598TIP3   OH259208   6.724   1.530  16.849 -0.1035  0.0255  0.2604
12598TIP3    H159209   6.814   1.538  16.881  0.3062  2.7848 -1.2850
12598TIP3    H259210   6.730   1.468  16.776  1.3170  2.6277 -2.0090
12599TIP3   OH259211   0.303   0.484  13.471  0.1169 -0.0987 -0.5680
12599TIP3    H159212   0.257   0.437  13.401  0.2189 -0.7104 -0.2329
12599TIP3    H259213   0.309   0.421  13.543 -1.5248  1.0855  0.6675
12600TIP3   OH259214   0.165   3.526   2.032 -0.0423 -0.0088 -0.6384
12600TIP3    H159215   0.239   3.585   2.017 -1.6767  2.4770  0.4579
12600TIP3    H259216   0.204   3.438   2.031  2.7948  1.1490 -0.7112
12601TIP3   OH259217   5.264   5.474  15.765 -0.0165  0.7882 -0.6288
12601TIP3    H159218   5.216   5.398  15.796  2.6377 -0.0360  2.0500
12601TIP3    H259219   5.323   5.440  15.697 -0.6419  1.0370 -1.3083
12602TIP3   OH259220   0.157   0.233  14.154 -0.1105 -0.0803 -0.3231
12602TIP3    H159221   0.228   0.253  14.093 -0.8212  1.5530 -0.6692
12602TIP3    H259222   0.197   0.240  14.241 -0.0194  1.7918 -0.4748
12603TIP3   OH259223   4.936   6.352   4.012 -0.7491 -0.2449  0.3460
12603TIP3    H159224   4.944   6.275   3.956 -0.8774 -1.2063  1.5986
12603TIP3    H259225   4.950   6.426   3.953  1.7884 -1.2791 -0.4732
12604TIP3   OH259226   4.697   6.128  14.451 -0.1285 -0.4002 -0.0676
12604TIP3    H159227   4.653   6.075  14.384 -1.2374 -3.4260  2.7411
12604TIP3    H259228   4.654   6.103  14.533  2.2249  1.8205  2.0416
12605TIP3   OH259229   1.999   0.471  13.440 -0.5095  0.0694  0.0491
12605TIP3    H159230   2.030   0.390  13.398  2.3020  2.0881 -2.2439
12605TIP3    H259231   1.905   0.473  13.422 -0.8934 -3.1236  1.1505
12606TIP3   OH259232   5.729   3.747   2.345  0.1901 -0.5278 -0.1306
12606TIP3    H159233   5.676   3.796   2.283 -1.6092 -1.2140  0.8107
12606TIP3    H259234   5.792   3.812   2.378 -2.2202  1.3123  1.2337
12607TIP3   OH259235   5.337   5.760   1.824 -0.0237 -0.3046  0.1612
12607TIP3    H159236   5.293   5.685   1.784  0.5257  0.1194 -1.2908
12607TIP3    H259237   5.290   5.836   1.790 -0.6187  0.0518  1.6730
12608TIP3   OH259238   3.487   2.330  15.175 -0.1942  0.7019  0.7017
12608TIP3    H159239   3.559   2.278  15.210 -1.5367 -1.5299  0.3511
12608TIP3    H259240   3.525   2.379  15.103  1.0138 -0.2824  0.6382
12609TIP3   OH259241   1.115   6.366   0.005 -0.6055  0.3817  0.2715
12609TIP3    H159242   1.131   6.445  -0.046 -1.0655  1.6051  1.9413
12609TIP3    H259243   1.019   6.360   0.010 -0.6712 -1.6760 -1.8505
12610TIP3   OH259244   2.651   3.893  14.699 -0.0840  0.0450 -0.3650
12610TIP3    H159245   2.649   3.806  14.658 -0.2552  0.4169 -1.1618
12610TIP3    H259246   2.653   3.875  14.793  0.9361 -0.8315 -0.5335
12611TIP3   OH259247   0.360   5.518   4.240 -0.4425  0.3850  0.2827
12611TIP3    H159248   0.311   5.596   4.211 -0.2808  1.0967  1.8240
12611TIP3    H259249   0.337   5.508   4.332 -0.6488 -1.5723  0.0653
12612TIP3   OH259250   1.288   4.516   1.368  0.0558 -0.2688  0.2462
12612TIP3    H159251   1.207   4.567   1.366  1.4289  2.0602 -1.5896
12612TIP3    H259252   1.299   4.486   1.277  1.8522  0.5623  0.1466
12613TIP3   OH259253   0.343   0.382   4.256  1.1928  0.3450  0.2169
12613TIP3    H159254   0.425   0.368   4.303  1.2544 -2.2085 -0.5372
12613TIP3    H259255   0.282   0.318   4.292  0.7153 -0.4894 -1.8963
12614TIP3   OH259256   4.096   3.807  14.908  0.7243  0.2081  0.3668
12614TIP3    H159257   4.003   3.790  14.891  0.7801  0.7383 -0.4916
12614TIP3    H259258   4.141   3.771  14.832  1.2938 -0.6280  1.0732
12615TIP3   OH259259   2.170   2.505   3.131 -0.0715  0.1643  0.7760
12615TIP3    H159260   2.161   2.411   3.119  2.0157  0.1656 -1.6730
12615TIP3    H259261   2.230   2.515   3.205 -0.5333 -0.4054  1.2304
12616TIP3   OH259262   3.149   6.101   0.471  0.0839 -0.6048  0.4076
12616TIP3    H159263   3.229   6.131   0.514  0.0178 -0.5371  0.4839
12616TIP3    H259264   3.120   6.177   0.420  0.1087 -0.6536  0.3208
12617TIP3   OH259265   5.071   5.926  11.296 -0.3564  0.2749 -0.0342
12617TIP3    H159266   5.034   5.986  11.231  0.8868  0.0455 -0.9942
12617TIP3    H259267   5.164   5.950  11.300  0.0847 -1.3084 -0.1429
12618TIP3   OH259268   4.615   0.683   5.210 -0.3824  0.1417 -0.1926
12618TIP3    H159269   4.568   0.610   5.170 -1.0266 -0.9213  2.3106
12618TIP3    H259270   4.654   0.646   5.289  1.9136  1.8063 -0.4404
12619TIP3   OH259271   1.593   2.355  11.753 -0.0222 -0.6745  0.6094
12619TIP3    H159272   1.663   2.298  11.784 -0.2888 -2.2238 -1.3673
12619TIP3    H259273   1.545   2.301  11.690 -2.2449  0.7430  0.9637
12620TIP3   OH259274   1.455   4.553   3.780 -0.0951 -0.0298 -0.3284
12620TIP3    H159275   1.373   4.537   3.733  0.5668 -0.7935 -1.2631
12620TIP3    H259276   1.491   4.632   3.740 -0.2730  0.1808 -0.0689
12621TIP3   OH259277   6.673   3.477  14.926 -0.3419 -0.6051 -0.3648
12621TIP3    H159278   6.749   3.508  14.877 -0.5612 -1.0995 -1.0184
12621TIP3    H259279   6.611   3.550  14.921 -0.0532 -0.3372 -0.1241
12622TIP3   OH259280   3.989   5.986   0.899  0.2369  0.1789  0.1743
12622TIP3    H159281   4.078   5.995   0.864  1.0480 -2.4682  1.2813
12622TIP3    H259282   3.992   6.030   0.983  0.5730 -0.0828  0.3022
12623TIP3   OH259283   0.577   6.098   0.891 -0.2710  0.1209  0.1898
12623TIP3    H159284   0.656   6.045   0.904 -0.8486 -0.4404  1.6038
12623TIP3    H259285   0.583   6.127   0.800  2.1114  0.9905  0.5440
12624TIP3   OH259286   1.065   3.838  15.558 -0.0226  0.1780 -0.4868
12624TIP3    H159287   1.157   3.858  15.573 -0.1209  0.2025  0.0865
12624TIP3    H259288   1.066   3.755  15.510  0.2892 -0.0117 -0.1558
12625TIP3   OH259289   4.744   5.876  14.024  0.5511  0.1497 -0.1594
12625TIP3    H159290   4.754   5.906  13.933  0.9933 -0.9019 -0.4684
12625TIP3    H259291   4.709   5.952  14.070  1.6011  1.1403 -0.9317
12626TIP3   OH259292   0.314   2.510   2.292 -0.0264 -0.1643 -0.2911
12626TIP3    H159293   0.296   2.499   2.385  0.6652 -0.9493 -0.2431
12626TIP3    H259294   0.403   2.545   2.288 -0.4744  0.9886 -0.6293
12627TIP3   OH259295   2.093   3.990   1.085 -0.0405  0.2128 -0.1933
12627TIP3    H159296   2.104   3.899   1.057  0.1752  0.5853 -1.3562
12627TIP3    H259297   2.024   4.025   1.028 -2.0678  0.0540  1.9912
12628TIP3   OH259298   2.842   0.886   2.025 -0.0305  0.3301  0.4170
12628TIP3    H159299   2.882   0.806   2.060 -0.3615  0.5457  1.3183
12628TIP3    H259300   2.772   0.854   1.968  0.1154 -0.0223  0.4280
12629TIP3   OH259301   6.027   5.392   4.057 -0.3737 -0.1494 -0.1324
12629TIP3    H159302   6.071   5.355   3.981 -0.2251  0.7539 -0.5069
12629TIP3    H259303   5.965   5.456   4.020 -0.6980 -0.1073  0.4747
12630TIP3   OH259304   2.243   0.183   6.530 -0.4267  0.4309  0.1092
12630TIP3    H159305   2.151   0.205   6.515 -0.6263 -0.7967 -0.6480
12630TIP3    H259306   2.290   0.225   6.459 -0.4421  0.7569  0.2897
12631TIP3   OH259307   6.109   6.310  17.169  0.0631  0.6829  0.2534
12631TIP3    H159308   6.182   6.288  17.227 -0.1208  0.8520  0.5535
12631TIP3    H259309   6.046   6.354  17.226  1.0606  3.4467 -0.5930
12632TIP3   OH259310   5.712   1.624  12.365 -0.1726  0.6945  0.5516
12632TIP3    H159311   5.635   1.618  12.308 -0.1279 -1.0054  0.6289
12632TIP3    H259312   5.716   1.539  12.408  3.0037 -0.0867 -1.0500
12633TIP3   OH259313   6.370   3.942   5.267  0.0532 -0.0051 -0.3606
12633TIP3    H159314   6.373   4.038   5.257 -1.4926  0.1774  0.6668
12633TIP3    H259315   6.279   3.919   5.252  0.7793 -1.6621 -2.9224
12634TIP3   OH259316   0.610   2.538   2.262  0.1493 -0.3521  0.5302
12634TIP3    H159317   0.587   2.479   2.190 -2.5275 -0.2447  1.1961
12634TIP3    H259318   0.669   2.486   2.317  0.5964 -1.1556 -0.6616
12635TIP3   OH259319   1.482   0.326   4.443  0.0263 -0.2622 -0.4027
12635TIP3    H159320   1.457   0.245   4.399  0.0431 -1.4938  1.7202
12635TIP3    H259321   1.548   0.365   4.386 -0.7312 -1.1953 -1.9770
12636TIP3   OH259322   3.676   1.832  11.598 -0.0537  0.1485 -0.2548
12636TIP3    H159323   3.659   1.925  11.613 -1.0282 -0.1865  0.8633
12636TIP3    H259324   3.669   1.821  11.504  0.1150  1.2182 -0.4004
12637TIP3   OH259325   1.216   3.882   5.919  0.4625  0.3200 -0.6996
12637TIP3    H159326   1.141   3.866   5.976  1.8730 -0.9929  0.8967
12637TIP3    H259327   1.254   3.964   5.951  0.0074  0.7581 -1.2359
12638TIP3   OH259328   4.412   6.010  14.616 -0.1291  0.0660  0.0926
12638TIP3    H159329   4.329   6.053  14.595 -0.2049 -0.4928 -0.7969
12638TIP3    H259330   4.408   5.926  14.571 -0.0886 -1.0158  1.9830
12639TIP3   OH259331   3.653   0.068  12.630 -1.0465  0.2570  0.4266
12639TIP3    H159332   3.590  -0.003  12.623 -0.1663 -0.6274  1.1575
12639TIP3    H259333   3.724   0.032  12.683 -1.5614  2.3599  2.7445
12640TIP3   OH259334   0.632   2.838  13.909 -0.1824 -0.2353  0.8441
12640TIP3    H159335   0.684   2.761  13.934  0.7140  0.2609  0.5538
12640TIP3    H259336   0.627   2.890  13.989  2.5061  1.2492  0.1849
12641TIP3   OH259337   2.435   3.150  11.048 -0.3787 -0.1850  0.1194
12641TIP3    H159338   2.527   3.152  11.078 -0.6911  0.0278  1.1132
12641TIP3    H259339   2.432   3.213  10.976  0.7064 -1.7263 -1.3450
12642TIP3   OH259340   5.952   4.605   5.253  0.1690  0.4476  0.2477
12642TIP3    H159341   5.941   4.599   5.158  1.2450  1.0854  0.0667
12642TIP3    H259342   5.884   4.666   5.281  0.1761  0.6581 -0.1837
12643TIP3   OH259343   4.092   4.346  15.620  0.1108 -0.3486  0.1009
12643TIP3    H159344   4.154   4.292  15.669  0.3740 -0.2181 -0.0895
12643TIP3    H259345   4.085   4.427  15.672 -0.2410 -0.5382  0.3567
12644TIP3   OH259346   6.543   6.070   6.053 -0.0511 -0.3803  0.0573
12644TIP3    H159347   6.463   6.020   6.040  0.1407 -0.2378 -1.9597
12644TIP3    H259348   6.553   6.121   5.972  2.2026 -0.6070  0.1309
12645TIP3   OH259349   1.325   0.917  16.873 -0.1593 -0.2803 -0.4475
12645TIP3    H159350   1.327   1.013  16.879 -1.3227 -0.2630 -0.2088
12645TIP3    H259351   1.402   0.895  16.820 -0.1400  0.8095 -0.8984
12646TIP3   OH259352   0.229   4.498   2.963  0.0417  0.0228 -0.2463
12646TIP3    H159353   0.213   4.548   3.043  2.5008 -0.3868  0.6135
12646TIP3    H259354   0.204   4.408   2.986 -0.1253  0.0687 -0.2483
12647TIP3   OH259355   1.537   2.116  17.052  0.1969  0.4879 -0.0153
12647TIP3    H159356   1.616   2.160  17.085  0.0377  0.9021 -0.1774
12647TIP3    H259357   1.570   2.053  16.988  0.2228  3.1520 -2.8580
12648TIP3   OH259358   3.244   3.266  16.386  0.1211  0.4151  0.2068
12648TIP3    H159359   3.185   3.272  16.461  0.8813 -0.5943  0.9118
12648TIP3    H259360   3.330   3.292  16.421  0.2981  0.8691 -0.5500
12649TIP3   OH259361   5.664   1.013  15.011 -0.1122  0.6162 -0.4589
12649TIP3    H159362   5.626   1.080  14.955 -0.6312  0.8175  0.1233
12649TIP3    H259363   5.656   1.048  15.100 -0.2726 -0.1539 -0.1580
12650TIP3   OH259364   6.613   6.304  13.320 -0.2659  0.0900 -0.2344
12650TIP3    H159365   6.647   6.286  13.407  0.7867  1.0703 -0.4172
12650TIP3    H259366   6.596   6.398  13.319  0.0396  0.1549 -1.1690
12651TIP3   OH259367   6.702   0.057  15.177 -0.4810  0.0182 -0.3605
12651TIP3    H159368   6.638  -0.015  15.172 -0.9825  0.4804 -0.6024
12651TIP3    H259369   6.650   0.134  15.197  0.1473  0.1851  0.7459
12652TIP3   OH259370   1.582   1.800  13.656  0.3457  0.3488  0.2247
12652TIP3    H159371   1.516   1.823  13.591  0.0462  1.2415  0.8296
12652TIP3    H259372   1.616   1.715  13.626 -1.8235 -0.6775  0.4905
12653TIP3   OH259373   2.702   1.744  12.745 -0.5638 -0.5573  0.9066
12653TIP3    H159374   2.620   1.789  12.726  0.3293  0.0917 -2.0316
12653TIP3    H259375   2.750   1.803  12.802  0.7510  2.7965 -3.1400
12654TIP3   OH259376   0.540   5.347   4.838 -0.5352 -0.6198 -0.3862
12654TIP3    H159377   0.569   5.256   4.837  1.5740  0.0077 -0.7017
12654TIP3    H259378   0.515   5.363   4.929  0.2971 -1.1674 -0.0510
12655TIP3   OH259379   2.254   3.839  16.982  0.0589 -0.3539 -0.1189
12655TIP3    H159380   2.251   3.768  16.918  1.3975 -0.8970  0.3874
12655TIP3    H259381   2.242   3.795  17.066  0.6949  0.0325  0.1812
12656TIP3   OH259382   1.606   2.738   1.710  0.2273  0.1637 -0.1987
12656TIP3    H159383   1.644   2.806   1.654 -2.0635  0.8475 -1.0255
12656TIP3    H259384   1.663   2.662   1.697  2.4620  1.6764  0.2387
12657TIP3   OH259385   3.111   1.235  13.952  0.3617  0.2114  0.2032
12657TIP3    H159386   3.073   1.149  13.966  1.1316 -0.4472 -1.4468
12657TIP3    H259387   3.196   1.232  13.997 -0.0844  0.5068  1.0740
12658TIP3   OH259388   6.185   2.175  14.634  0.6451 -0.2514 -0.0907
12658TIP3    H159389   6.150   2.248  14.684  0.7386 -1.4549  1.8322
12658TIP3    H259390   6.135   2.176  14.552  0.5889  1.8695 -0.0790
12659TIP3   OH259391   6.371   6.645  13.028  0.1770  0.1476 -0.1476
12659TIP3    H159392   6.432   6.711  13.061 -1.1013  0.9650  0.6871
12659TIP3    H259393   6.347   6.676  12.941  1.4343 -0.5323 -0.7552
12660TIP3   OH259394   2.440   0.489  14.493  0.1083 -0.3442  1.0001
12660TIP3    H159395   2.396   0.415  14.534 -1.8490  1.6417  2.7083
12660TIP3    H259396   2.532   0.479  14.518 -0.2228 -1.8353  1.7042
12661TIP3   OH259397   1.644   5.117  14.323  0.3262  0.0014  0.0529
12661TIP3    H159398   1.733   5.094  14.347  0.4620  1.8444  1.5746
12661TIP3    H259399   1.617   5.181  14.390 -2.1643 -0.5777 -0.2927
12662TIP3   OH259400   3.067   0.384  14.947 -0.1040  0.0221 -0.0800
12662TIP3    H159401   3.013   0.320  14.993 -1.1160  0.6240 -0.3938
12662TIP3    H259402   3.113   0.431  15.016 -1.3888  0.7249  0.3373
12663TIP3   OH259403   2.977   4.734  15.501 -0.1118 -0.0645  0.6867
12663TIP3    H159404   2.936   4.721  15.586 -1.2440 -1.2109 -0.0111
12663TIP3    H259405   2.967   4.650  15.455  0.8956  0.3722 -0.4130
12664TIP3   OH259406   5.373   1.013   4.481 -0.0895 -0.5611 -0.4511
12664TIP3    H159407   5.451   1.044   4.527 -0.3954  0.5366 -0.6474
12664TIP3    H259408   5.354   1.082   4.417  0.5713 -2.2203 -2.5488
12665TIP3   OH259409   6.376   3.593   5.515  0.0733 -0.4429 -0.5309
12665TIP3    H159410   6.368   3.517   5.572  1.1489 -0.6430 -0.6239
12665TIP3    H259411   6.353   3.668   5.570  0.7062 -0.6735  0.0693
12666TIP3   OH259412   3.544   1.272   3.732  0.2089  0.7982 -0.4753
12666TIP3    H159413   3.464   1.319   3.709 -0.9716 -1.1144 -0.5930
12666TIP3    H259414   3.534   1.251   3.825  0.4962  0.4044 -0.5289
12667TIP3   OH259415   5.714   6.008  12.172  0.0768  0.6360 -0.4248
12667TIP3    H159416   5.623   6.036  12.177  0.2778  1.6330 -1.7261
12667TIP3    H259417   5.747   6.015  12.261 -0.6369  1.9767 -0.2479
12668TIP3   OH259418   5.223   6.266   5.632  0.8196  0.0831 -0.6873
12668TIP3    H159419   5.268   6.258   5.716  1.9097 -0.2912 -1.2808
12668TIP3    H259420   5.175   6.349   5.639 -0.1103 -0.5407  0.7412
12669TIP3   OH259421   1.875   2.387   5.519  0.8365  0.3507 -0.2745
12669TIP3    H159422   1.883   2.293   5.502 -1.1993 -0.0444  0.5982
12669TIP3    H259423   1.888   2.428   5.434  0.2192 -0.8397 -0.9679
12670TIP3   OH259424   6.152   1.718   0.389 -0.2630  0.2483  0.2700
12670TIP3    H159425   6.071   1.768   0.388  0.7113  1.8895  0.3143
12670TIP3    H259426   6.128   1.632   0.354 -2.5582 -0.2121  2.6513
12671TIP3   OH259427   3.251   4.728   6.064 -0.0963  0.3229  0.1999
12671TIP3    H159428   3.294   4.721   6.149  1.2618 -1.4808 -0.5636
12671TIP3    H259429   3.196   4.650   6.058 -0.5890  0.7033 -0.3767
12672TIP3   OH259430   5.253   4.680  13.166 -0.0246  0.3476 -0.2116
12672TIP3    H159431   5.243   4.738  13.090  0.6086 -1.8467 -2.0771
12672TIP3    H259432   5.348   4.673  13.178 -0.1034  1.6806  1.6968
12673TIP3   OH259433   1.392   5.906  14.319 -0.4690  0.3822  0.1308
12673TIP3    H159434   1.301   5.925  14.342 -0.2915  1.4131  0.0125
12673TIP3    H259435   1.444   5.955  14.382  0.0428  4.1434 -2.8668
12674TIP3   OH259436   1.968   5.107  14.571 -0.1204 -0.4401  0.3886
12674TIP3    H159437   2.050   5.151  14.547  0.3733 -0.8317  1.3146
12674TIP3    H259438   1.956   5.041  14.502  0.2120 -0.2171  0.1117
12675TIP3   OH259439   4.855   4.055  13.217 -0.6577  0.1531  0.3997
12675TIP3    H159440   4.826   3.991  13.282  1.4945 -0.6905  0.6251
12675TIP3    H259441   4.951   4.051  13.221 -0.3419  3.9431  0.9974
12676TIP3   OH259442   2.841   5.845  15.497  0.0007 -0.8553 -0.5205
12676TIP3    H159443   2.803   5.932  15.507 -0.0761 -0.9530  0.0746
12676TIP3    H259444   2.780   5.799  15.440 -0.6121 -0.9037  0.1580
12677TIP3   OH259445   2.466   3.967   5.462  0.4952  0.2950  0.4821
12677TIP3    H159446   2.374   3.985   5.443  0.8164  2.7375  0.9649
12677TIP3    H259447   2.468   3.947   5.555  0.3387 -1.0230  0.2311
12678TIP3   OH259448   1.867   3.051  13.319 -0.2545  0.1484 -0.0502
12678TIP3    H159449   1.946   3.005  13.349  0.4127  1.5763  0.4679
12678TIP3    H259450   1.869   3.135  13.366 -1.3946  0.7476 -1.0254
12679TIP3   OH259451   6.015   4.470   0.201  0.2883  0.1927  0.4111
12679TIP3    H159452   5.957   4.534   0.243  1.3902  1.1911  0.4450
12679TIP3    H259453   5.984   4.386   0.234 -0.6415  0.7529  1.0448
12680TIP3   OH259454   1.611   3.592   5.303 -0.2842 -0.1278 -0.4030
12680TIP3    H159455   1.635   3.501   5.321 -0.7341 -0.1018  0.3480
12680TIP3    H259456   1.619   3.637   5.387 -0.9232  0.3318 -0.5779
12681TIP3   OH259457   2.239   3.475   1.462  0.5130 -0.1230 -0.0121
12681TIP3    H159458   2.250   3.525   1.543 -0.3130  0.5611 -0.3060
12681TIP3    H259459   2.158   3.510   1.423  1.7803  0.7722 -1.9984
12682TIP3   OH259460   3.924   5.791  14.359  0.7495 -0.3556  0.3492
12682TIP3    H159461   3.972   5.710  14.338  0.2126 -0.3152 -1.1531
12682TIP3    H259462   3.864   5.803  14.285  0.2095  0.9599  0.9739
12683TIP3   OH259463   5.776   6.745  16.035 -0.3012 -0.3475  0.0419
12683TIP3    H159464   5.835   6.673  16.058  0.9754  1.0020  1.2216
12683TIP3    H259465   5.770   6.742  15.940 -0.3373 -2.0349  0.0673
12684TIP3   OH259466   4.679   4.415  15.196  0.3668  0.3780 -0.0674
12684TIP3    H159467   4.621   4.457  15.132  0.5012 -0.2170 -0.5834
12684TIP3    H259468   4.736   4.359  15.144 -1.0155 -1.9304  0.7479
12685TIP3   OH259469   4.680   1.561  15.455  0.9470  0.4095  0.9868
12685TIP3    H159470   4.757   1.618  15.461  1.4006 -0.1670  0.7065
12685TIP3    H259471   4.702   1.485  15.508  1.3934 -0.6673 -0.6722
12686TIP3   OH259472   2.651   2.253  16.125  0.2060  0.1226  0.1535
12686TIP3    H159473   2.635   2.237  16.218 -3.4316  0.7389 -0.1907
12686TIP3    H259474   2.564   2.250  16.086  1.7216 -1.6169 -3.5383
12687TIP3   OH259475   5.732   3.655   1.221 -0.1815  0.7361  0.6505
12687TIP3    H159476   5.705   3.746   1.230  0.5205  0.9268  0.8120
12687TIP3    H259477   5.732   3.621   1.310 -0.6615  0.5050  0.5709
12688TIP3   OH259478   1.795   6.520  17.307  0.6619  0.0308 -0.0002
12688TIP3    H159479   1.829   6.447  17.257 -0.4144 -1.1044  0.8669
12688TIP3    H259480   1.800   6.492  17.398  0.1318  0.9954  0.3493
12689TIP3   OH259481   2.158   3.434   6.141  0.2345 -0.5525  0.1262
12689TIP3    H159482   2.087   3.428   6.077 -2.1965  0.6923  2.5270
12689TIP3    H259483   2.140   3.364   6.204  0.2846  0.6407  1.5216
12690TIP3   OH259484   6.305   1.283  14.995  0.0181 -0.2463 -0.5069
12690TIP3    H159485   6.356   1.294  14.914  1.0765 -0.5904  0.0929
12690TIP3    H259486   6.288   1.372  15.025 -1.1944 -0.0826 -1.5783
12691TIP3   OH259487   3.267   1.074  15.333 -0.3977  0.1822  0.2111
12691TIP3    H159488   3.336   1.114  15.280 -0.0395 -0.5005  0.1420
12691TIP3    H259489   3.190   1.076  15.278  0.3568 -2.0630 -1.0876
12692TIP3   OH259490   1.564   1.731  12.068  0.0225  0.6343 -0.1934
12692TIP3    H159491   1.623   1.805  12.084 -0.2228  1.0924 -1.3285
12692TIP3    H259492   1.614   1.654  12.096  1.4013  0.9565 -1.5866
12693TIP3   OH259493   0.969   6.716   3.975  1.2301  0.5633  0.3368
12693TIP3    H159494   0.968   6.710   3.880  1.4228 -1.0968  0.4118
12693TIP3    H259495   0.899   6.657   4.004 -0.0088  2.3646  1.2069
12694TIP3   OH259496   3.463   6.622   5.607  0.0969  0.0202  0.3112
12694TIP3    H159497   3.515   6.634   5.686 -1.3757  0.5514  1.2483
12694TIP3    H259498   3.408   6.700   5.602  0.6492  0.3378 -1.6507
12695TIP3   OH259499   1.939   3.032  14.318  0.1769 -0.3475 -0.1857
12695TIP3    H159500   1.987   2.999  14.394  0.0540  1.2247  0.6302
12695TIP3    H259501   2.002   3.032  14.247  0.5899 -0.8833  0.1793
12696TIP3   OH259502   5.223   4.276  12.560  0.5087  0.4010 -0.1288
12696TIP3    H159503   5.156   4.244  12.619 -0.0695  0.4195 -0.7584
12696TIP3    H259504   5.288   4.316  12.617  0.0240  0.3181  0.4960
12697TIP3   OH259505   3.770   5.882  15.530  0.1069  0.1232 -0.2703
12697TIP3    H159506   3.792   5.824  15.456 -1.7318 -1.5515  0.4023
12697TIP3    H259507   3.687   5.921  15.506 -1.7239 -2.1946  1.7321
12698TIP3   OH259508   0.837   2.526   4.806 -0.2823  0.2298  0.1955
12698TIP3    H159509   0.827   2.487   4.893  2.2632  0.5564  0.7017
12698TIP3    H259510   0.917   2.487   4.771 -0.8036  0.7381 -1.6962
12699TIP3   OH259511   5.011   4.807   6.589 -0.3328 -0.0992  0.2575
12699TIP3    H159512   5.089   4.782   6.638  0.2350  0.3161 -0.4123
12699TIP3    H259513   5.012   4.902   6.590 -0.4283 -0.0877 -0.3684
12700TIP3   OH259514   1.101   2.390   5.783 -0.2732  0.0171 -0.2205
12700TIP3    H159515   1.067   2.416   5.869 -1.9420 -1.7108 -0.2961
12700TIP3    H259516   1.170   2.453   5.765  0.0954  0.4752  2.3671
12701TIP3   OH259517   1.238   0.617   3.283 -0.3615 -0.3812  0.4759
12701TIP3    H159518   1.278   0.638   3.367 -1.5861  1.4754  0.6481
12701TIP3    H259519   1.293   0.663   3.219 -0.9182  0.3511  0.5147
12702TIP3   OH259520   1.908   5.716  16.221 -0.0967  0.0991 -0.4834
12702TIP3    H159521   1.956   5.641  16.256  2.2728  1.2310 -1.1271
12702TIP3    H259522   1.916   5.707  16.126  0.7602  1.4654 -0.5650
12703TIP3   OH259523   1.510   2.152  12.639  0.0190 -0.3604 -0.0489
12703TIP3    H159524   1.419   2.143  12.611 -0.0450 -0.2064  0.1041
12703TIP3    H259525   1.526   2.246  12.637  1.0867 -0.5130 -2.8892
12704TIP3   OH259526   0.332   4.658   5.422 -0.4463 -0.2216 -0.0552
12704TIP3    H159527   0.253   4.706   5.449 -0.1796 -0.1334  0.6007
12704TIP3    H259528   0.328   4.657   5.327 -1.7251 -1.0269 -0.0225
12705TIP3   OH259529   6.203   2.908   1.237 -0.2345  1.0326  0.0607
12705TIP3    H159530   6.183   2.977   1.301  1.4715  0.9461  0.7288
12705TIP3    H259531   6.221   2.830   1.291  1.0397  0.9066 -0.5190
12706TIP3   OH259532   5.254   4.059   3.280  0.2402 -0.4299  0.2638
12706TIP3    H159533   5.164   4.085   3.261  1.0028  3.9064  1.5614
12706TIP3    H259534   5.248   4.012   3.364 -0.7473  0.6826  0.8422
12707TIP3   OH259535   0.552   5.824   1.583  0.2691 -0.5838  0.7329
12707TIP3    H159536   0.549   5.919   1.574  0.7942 -0.7546 -2.1179
12707TIP3    H259537   0.615   5.809   1.654 -0.1879  1.1550  1.5790
12708TIP3   OH259538   3.282   1.506   5.893 -0.1791  0.2521 -0.1920
12708TIP3    H159539   3.278   1.419   5.853 -3.6676  0.3430 -0.3801
12708TIP3    H259540   3.283   1.488   5.987  2.0037  0.0657 -0.2099
12709TIP3   OH259541   0.369   4.972  12.078  0.2988  0.4009  0.4430
12709TIP3    H159542   0.288   4.962  12.128 -0.9193  0.2077 -1.4437
12709TIP3    H259543   0.397   4.882  12.059 -0.3305  0.4356 -0.7899
12710TIP3   OH259544   2.851   6.259   4.295  0.5145  0.6959  0.3583
12710TIP3    H159545   2.777   6.276   4.238 -0.7373 -2.9616  0.6922
12710TIP3    H259546   2.824   6.295   4.380  0.5965  2.3093 -0.2564
12711TIP3   OH259547   3.891   2.738  14.893 -0.5114 -0.0252 -0.2530
12711TIP3    H159548   3.867   2.714  14.804 -0.8429  0.1384 -0.2088
12711TIP3    H259549   3.837   2.814  14.913 -0.2279  0.1167 -0.0159
12712TIP3   OH259550   5.063   5.655  11.348  0.2548 -0.1457 -0.1489
12712TIP3    H159551   5.084   5.748  11.356 -0.8530  0.1066  0.0058
12712TIP3    H259552   4.975   5.648  11.384 -0.3800 -0.9557 -1.8004
12713TIP3   OH259553   4.930   5.810   0.210 -0.4865  0.2773  0.0213
12713TIP3    H159554   4.855   5.791   0.154 -0.2512 -2.7966  0.5646
12713TIP3    H259555   5.006   5.786   0.156 -0.1374 -0.4032  0.7901
12714TIP3   OH259556   6.392   2.576  11.123 -0.3427 -0.1347 -1.0995
12714TIP3    H159557   6.393   2.482  11.106 -0.0823 -0.4903  0.6665
12714TIP3    H259558   6.473   2.608  11.083  0.7377 -1.0799  0.2538
12715TIP3   OH259559   3.313   0.576   1.953  0.1044 -0.3201  0.4406
12715TIP3    H159560   3.377   0.530   1.898 -1.1581 -0.0721 -1.3368
12715TIP3    H259561   3.259   0.625   1.891 -1.2440  0.1996  1.9467
12716TIP3   OH259562   2.273   5.283   1.017 -0.0702 -0.3052 -0.2244
12716TIP3    H159563   2.209   5.213   1.004 -1.1346  0.9947 -2.5407
12716TIP3    H259564   2.275   5.330   0.933  0.1073  2.8498  1.4174
12717TIP3   OH259565   2.726   4.050   1.983  0.9386  0.1137  0.2972
12717TIP3    H159566   2.699   4.081   1.896 -1.2355 -0.0777  0.8628
12717TIP3    H259567   2.794   3.985   1.965  0.1117 -0.3591 -1.3113
12718TIP3   OH259568   5.353   1.007   1.283  0.0990  0.3047  0.0915
12718TIP3    H159569   5.263   1.033   1.267 -0.3091 -0.4220  1.0935
12718TIP3    H259570   5.403   1.088   1.278 -0.5792  0.6851 -0.6342
12719TIP3   OH259571   5.942   6.319   6.901 -0.1147  0.1326  0.7780
12719TIP3    H159572   6.030   6.281   6.902  0.1882  0.4710 -2.4517
12719TIP3    H259573   5.900   6.284   6.980  1.9503 -2.4459  0.8776
12720TIP3   OH259574   4.577   6.127   0.672  0.1441 -0.4105 -0.5174
12720TIP3    H159575   4.557   6.033   0.672  2.5300 -0.9694 -0.5718
12720TIP3    H259576   4.497   6.168   0.638 -0.7644 -2.4574 -1.0133
12721TIP3   OH259577   1.199   0.134   0.207  0.3595  0.7645  0.4033
12721TIP3    H159578   1.149   0.172   0.135  1.3425 -0.6120 -1.0694
12721TIP3    H259579   1.270   0.086   0.165 -0.2886 -1.9506  2.1742
12722TIP3   OH259580   4.836   4.326  15.863  0.9157  0.0403 -0.7791
12722TIP3    H159581   4.825   4.345  15.769 -1.5410  1.3857 -0.2961
12722TIP3    H259582   4.747   4.309  15.894  1.5863  0.4184  1.4699
12723TIP3   OH259583   0.007   3.604  16.474  0.5172 -0.5867  0.1873
12723TIP3    H159584  -0.013   3.684  16.425 -0.4015 -1.1400 -0.3729
12723TIP3    H259585  -0.009   3.626  16.565  2.6580  0.5941  0.3479
12724TIP3   OH259586   1.035   2.185  15.605 -0.3396  0.0015 -0.0184
12724TIP3    H159587   0.979   2.213  15.678  0.3411 -1.4698  1.1251
12724TIP3    H259588   1.110   2.244  15.608 -0.9800  0.8624 -0.4598
12725TIP3   OH259589   2.091   2.064   1.883  0.0958 -0.4646 -0.0227
12725TIP3    H159590   2.084   1.969   1.879 -0.7703 -0.3901 -0.3630
12725TIP3    H259591   2.085   2.085   1.976  0.1330 -0.7245  0.0398
12726TIP3   OH259592   4.536   1.049   2.819 -0.5869 -0.0414 -0.9429
12726TIP3    H159593   4.460   1.089   2.776 -0.2613  0.2430 -1.2731
12726TIP3    H259594   4.544   0.963   2.778 -0.4306  0.1287 -1.2745
12727TIP3   OH259595   0.879   6.163  17.076 -0.2079 -0.2301 -0.6039
12727TIP3    H159596   0.828   6.213  17.013  1.6476  0.7745 -1.4027
12727TIP3    H259597   0.884   6.075  17.038 -0.5655 -0.0976 -0.9649
12728TIP3   OH259598   1.130   4.825   5.774  0.5066 -0.7125  0.2172
12728TIP3    H159599   1.127   4.834   5.869 -1.8342  1.5106  0.0501
12728TIP3    H259600   1.102   4.735   5.757 -0.2516 -0.7734  1.6154
12729TIP3   OH259601   0.594   1.445  10.578  0.3481  0.1992  0.1312
12729TIP3    H159602   0.525   1.511  10.582  1.2816  1.1600  4.1298
12729TIP3    H259603   0.669   1.490  10.538  0.0781  0.5758  0.0475
12730TIP3   OH259604   5.742   0.407  16.994 -0.1091  0.0077  0.4143
12730TIP3    H159605   5.649   0.402  17.013  0.0248 -0.3420  1.0220
12730TIP3    H259606   5.774   0.317  17.004  0.1607 -0.0036 -0.5177
12731TIP3   OH259607   4.560   5.785   2.851  0.4181 -0.7158 -0.1617
12731TIP3    H159608   4.594   5.703   2.885  1.9825  0.2029  0.6049
12731TIP3    H259609   4.558   5.844   2.927 -4.0903 -0.9700  0.1576
12732TIP3   OH259610   4.644   1.963   3.596  0.4242  0.6460 -0.2981
12732TIP3    H159611   4.560   1.943   3.555  0.9016  0.6395 -1.3011
12732TIP3    H259612   4.703   1.982   3.523  1.7281 -0.9142  0.2735
12733TIP3   OH259613   4.565   2.251  16.872 -0.0001  0.1230 -0.0078
12733TIP3    H159614   4.511   2.315  16.824  0.4477  0.4805 -0.0415
12733TIP3    H259615   4.503   2.182  16.896 -0.4897  0.5508  0.0020
12734TIP3   OH259616   0.899   6.342   0.729  0.3639  0.4764 -0.4362
12734TIP3    H159617   0.835   6.364   0.797  1.0906  0.5404  0.2458
12734TIP3    H259618   0.937   6.426   0.702  0.6228  0.3880 -0.3598
12735TIP3   OH259619   0.919   4.932  16.838  0.5295 -0.2326  0.1847
12735TIP3    H159620   0.930   4.921  16.933  2.2686 -0.2763  0.0205
12735TIP3    H259621   1.008   4.943  16.805 -0.0676  0.0713 -1.4236
12736TIP3   OH259622   3.002   4.771   3.483 -0.5365  0.5715  0.0063
12736TIP3    H159623   3.033   4.682   3.468 -0.0550  0.5966  0.7813
12736TIP3    H259624   3.042   4.796   3.566 -1.4761  1.1456  0.2963
12737TIP3   OH259625   3.929   1.241   3.921  0.4591 -0.3558  0.0012
12737TIP3    H159626   3.996   1.174   3.937  0.3881 -0.1710  1.1292
12737TIP3    H259627   3.861   1.222   3.985  0.1720  0.4558 -0.0604
12738TIP3   OH259628   3.797   5.467   3.879  0.4862  0.3029 -0.0950
12738TIP3    H159629   3.838   5.429   3.957 -0.0339 -0.1830 -0.0464
12738TIP3    H259630   3.811   5.561   3.888 -0.1569  0.3182  0.9430
12739TIP3   OH259631   3.471   2.609  11.400  0.7027  0.2897 -0.0599
12739TIP3    H159632   3.473   2.691  11.351  1.0639  0.0927 -0.3787
12739TIP3    H259633   3.434   2.545  11.339 -1.2521  0.5664  0.7431
12740TIP3   OH259634   2.843   1.527   4.819  0.3690  0.7377 -0.4267
12740TIP3    H159635   2.847   1.495   4.729 -1.4084 -1.9682  0.3299
12740TIP3    H259636   2.770   1.589   4.819 -0.0614  0.2370 -0.7221
12741TIP3   OH259637   4.197   0.556   0.002 -0.1010  0.1864 -0.0809
12741TIP3    H159638   4.223   0.637  -0.041  1.4939 -0.3408 -0.1644
12741TIP3    H259639   4.103   0.550  -0.014  0.2893  0.3515 -2.9216
12742TIP3   OH259640   4.068   4.122   2.598 -0.2854  0.1706 -0.4277
12742TIP3    H159641   4.143   4.098   2.544  0.9794 -1.4481  1.8779
12742TIP3    H259642   4.057   4.216   2.583  1.1681  0.1389 -2.0113
12743TIP3   OH259643   1.483   3.410  11.053  0.2378  0.0141  0.0661
12743TIP3    H159644   1.512   3.426  10.963  0.7925  1.7708  0.5285
12743TIP3    H259645   1.388   3.401  11.046  0.2706  0.1158 -0.6868
12744TIP3   OH259646   5.811   3.641  14.085  0.0317  0.0419 -0.0785
12744TIP3    H159647   5.822   3.603  13.998 -0.5295 -0.1783 -0.0580
12744TIP3    H259648   5.748   3.583  14.128 -0.0809  0.4390  0.2973
12745TIP3   OH259649   5.051   6.244  16.265  0.4802 -0.2431 -0.2601
12745TIP3    H159650   5.017   6.155  16.270  1.1551 -0.6976 -2.5191
12745TIP3    H259651   5.028   6.284  16.349  2.0035 -3.1552  1.6921
12746TIP3   OH259652   3.864   4.426   6.457 -0.4872  0.4408  0.4732
12746TIP3    H159653   3.897   4.342   6.424 -2.2450 -0.2413  0.2962
12746TIP3    H259654   3.835   4.473   6.379  1.4196  1.7139  0.4598
12747TIP3   OH259655   1.544   5.313  12.252 -0.1733  0.0541 -0.2672
12747TIP3    H159656   1.565   5.372  12.324 -1.0535  0.1058 -0.0392
12747TIP3    H259657   1.466   5.266  12.282 -0.8560  0.4393 -1.3973
12748TIP3   OH259658   1.932   6.013   3.073 -0.1856  0.6393 -0.1963
12748TIP3    H159659   1.890   6.082   3.124 -2.2529 -1.0853  0.6030
12748TIP3    H259660   1.859   5.961   3.038  1.2620 -0.8387 -1.1766
12749TIP3   OH259661   3.146   0.098  15.317  0.3848 -0.0140 -0.5520
12749TIP3    H159662   3.126   0.158  15.389 -0.9335 -1.6875  0.5701
12749TIP3    H259663   3.239   0.110  15.301  0.5427  0.9970  0.8971
12750TIP3   OH259664   1.153   6.434   2.104  0.0794 -0.0884 -0.1079
12750TIP3    H159665   1.187   6.346   2.117  0.1710  0.2227  2.4135
12750TIP3    H259666   1.123   6.461   2.191 -3.3678  1.0160 -1.4689
12751TIP3   OH259667   1.581   1.433  17.408  0.2405  0.0705  0.1208
12751TIP3    H159668   1.614   1.345  17.425  0.6083  0.1416 -0.2213
12751TIP3    H259669   1.526   1.453  17.484  1.2793  0.0923  0.8929
12752TIP3   OH259670   4.863   0.139   2.324 -0.8915 -0.5907  0.2953
12752TIP3    H159671   4.917   0.133   2.402 -0.3063  0.9688  0.0496
12752TIP3    H259672   4.855   0.233   2.307 -0.4924 -0.8847 -1.8594
12753TIP3   OH259673   5.696   1.763   5.716 -0.6391  0.2232  0.1434
12753TIP3    H159674   5.693   1.847   5.762  1.8601 -0.3617  1.5457
12753TIP3    H259675   5.742   1.704   5.776 -1.1112 -1.8095 -1.3631
12754TIP3   OH259676   4.302   4.655   5.930  0.0731  0.0938  0.0994
12754TIP3    H159677   4.396   4.649   5.913  0.4138 -2.7086  2.3287
12754TIP3    H259678   4.296   4.680   6.023 -1.4457  1.1842 -0.2499
12755TIP3   OH259679   0.378   4.175  10.749 -0.4053  0.1035 -0.0935
12755TIP3    H159680   0.429   4.195  10.827 -0.5368  0.7828 -0.1721
12755TIP3    H259681   0.287   4.176  10.780 -0.4867  0.7951 -0.3280
12756TIP3   OH259682   6.401   4.744   2.472  0.1748  0.0624 -0.1400
12756TIP3    H159683   6.482   4.761   2.520  1.0499  0.3212 -1.6346
12756TIP3    H259684   6.426   4.678   2.406 -0.4049  1.3087 -1.6597
12757TIP3   OH259685   0.177   6.560   4.350 -0.1682 -0.2957 -0.3023
12757TIP3    H159686   0.199   6.483   4.403  0.1409 -0.5691 -0.8243
12757TIP3    H259687   0.169   6.631   4.414 -0.8261 -0.8276  0.2295
12758TIP3   OH259688   0.464   6.011   4.876 -0.3574  0.0172 -0.0343
12758TIP3    H159689   0.396   6.016   4.943 -0.1989  0.0460  0.1266
12758TIP3    H259690   0.419   6.031   4.794 -0.4691  0.4053  0.1195
12759TIP3   OH259691   3.996   4.024  15.273 -0.3534  0.2611  0.1055
12759TIP3    H159692   4.027   4.114  15.262 -1.4631  0.5665 -0.6999
12759TIP3    H259693   3.901   4.030  15.264 -0.4021 -1.0683 -0.5423
12760TIP3   OH259694   4.062   5.367  16.037 -0.1892 -0.0678 -0.3589
12760TIP3    H159695   4.114   5.304  15.988  1.2059 -0.1447  1.1402
12760TIP3    H259696   3.974   5.330  16.038  0.4291 -1.5997 -0.1982
12761TIP3   OH259697   2.981   4.609  13.672  0.6774  0.0867 -0.6721
12761TIP3    H159698   2.976   4.695  13.629  0.3104  0.4128  0.0065
12761TIP3    H259699   2.890   4.578  13.674  0.6935  0.0659 -0.1563
12762TIP3   OH259700   3.125   3.500  14.512 -0.1063 -0.5965 -0.1510
12762TIP3    H159701   3.165   3.468  14.432  3.9631  1.3183  0.8564
12762TIP3    H259702   3.107   3.592  14.496  1.4093 -0.0059  1.2637
12763TIP3   OH259703   3.045   3.888   4.497 -0.4517  0.1373 -0.6850
12763TIP3    H159704   3.007   3.805   4.469  0.1293  0.0583 -1.2437
12763TIP3    H259705   3.140   3.874   4.495 -0.3663  0.3348  0.6872
12764TIP3   OH259706   1.194   5.008   5.356 -0.0625  0.1592 -0.1580
12764TIP3    H159707   1.185   4.915   5.335  1.7581  0.0836 -0.6982
12764TIP3    H259708   1.156   5.054   5.281 -1.1751 -0.1277  0.2130
12765TIP3   OH259709   4.045   2.315   5.219 -0.4283 -0.0792 -0.1326
12765TIP3    H159710   4.027   2.243   5.280  0.2654 -0.7916 -0.7606
12765TIP3    H259711   4.139   2.328   5.224 -0.4499  0.2724 -0.6080
12766TIP3   OH259712   3.990   2.795  11.583 -0.2470  0.6125 -0.0661
12766TIP3    H159713   3.919   2.846  11.624 -1.8783  1.3902 -3.4939
12766TIP3    H259714   4.005   2.838  11.499  1.6865 -1.7933 -1.0709
12767TIP3   OH259715   5.177   1.902  14.992 -0.2388  0.7112  0.4181
12767TIP3    H159716   5.087   1.922  15.019 -0.7025 -3.4492  2.7617
12767TIP3    H259717   5.213   1.852  15.065  3.3322  0.4337 -1.3441
12768TIP3   OH259718   3.083   5.643   1.033 -0.2327  0.3501 -0.1157
12768TIP3    H159719   3.116   5.594   0.958  0.5037  0.8442 -0.1230
12768TIP3    H259720   2.991   5.617   1.040  0.1892 -1.2226  0.0372
12769TIP3   OH259721   2.500   2.779   6.065 -0.1674 -0.3774 -0.1541
12769TIP3    H159722   2.551   2.792   5.985 -0.3770 -1.1096 -0.4156
12769TIP3    H259723   2.461   2.692   6.054 -1.5105  0.1755  0.0012
12770TIP3   OH259724   6.656   3.104   3.882 -0.4374  0.2425  0.0784
12770TIP3    H159725   6.655   3.067   3.794 -0.7428 -1.6760  0.8142
12770TIP3    H259726   6.748   3.107   3.907 -0.4630 -1.5017  0.5251
12771TIP3   OH259727   1.592   2.468  17.405 -0.2747 -0.2393 -0.1380
12771TIP3    H159728   1.639   2.439  17.483  1.6019  0.6499 -0.8615
12771TIP3    H259729   1.598   2.564  17.409 -1.0451 -0.1518 -0.8599
12772TIP3   OH259730   1.120   3.549  16.146 -0.0953 -0.4882  0.2208
12772TIP3    H159731   1.076   3.468  16.119  0.7160 -0.7879 -0.2378
12772TIP3    H259732   1.183   3.522  16.213 -0.1831 -0.1582  0.4404
12773TIP3   OH259733   6.024   1.153   6.851  0.1616 -0.3590 -0.3115
12773TIP3    H159734   5.945   1.100   6.851  0.1270 -0.3709  1.2911
12773TIP3    H259735   6.063   1.138   6.937  2.2258 -0.7889 -1.2510
12774TIP3   OH259736   0.306   3.979   2.933  0.5752 -0.5875 -0.6407
12774TIP3    H159737   0.301   4.065   2.975  1.9410 -0.5029 -0.6010
12774TIP3    H259738   0.216   3.948   2.930  0.1792  0.4368  0.1984
12775TIP3   OH259739   4.861   2.957   3.670 -0.4373 -0.2962  0.2617
12775TIP3    H159740   4.768   2.950   3.648 -0.8433  2.1172  0.9485
12775TIP3    H259741   4.905   2.962   3.585 -1.1535  0.6225 -0.0660
12776TIP3   OH259742   2.119   6.645  14.283  0.1370 -0.2329 -0.4636
12776TIP3    H159743   2.164   6.605  14.209  0.5972  1.6613 -1.2634
12776TIP3    H259744   2.081   6.571  14.331  2.5135 -1.7605 -0.7748
12777TIP3   OH259745   4.573   4.860   5.617 -0.0917 -0.4055 -0.4039
12777TIP3    H159746   4.539   4.871   5.528 -2.1442 -1.7478  0.1475
12777TIP3    H259747   4.651   4.805   5.606 -1.2750 -1.9934 -1.2715
12778TIP3   OH259748   3.773   6.735  11.993 -0.2255  0.0065  0.3577
12778TIP3    H159749   3.758   6.767  11.904 -0.9170 -0.5808  0.2510
12778TIP3    H259750   3.688   6.699  12.020  0.2084 -0.6146  0.9253
12779TIP3   OH259751   6.376   5.827  15.599  0.6695  0.8999  0.5390
12779TIP3    H159752   6.370   5.733  15.616 -3.8786  0.6665 -0.9032
12779TIP3    H259753   6.333   5.868  15.674 -2.1972  1.2640 -1.1521
12780TIP3   OH259754   2.419   3.112   0.012  0.2151 -0.2254 -0.1895
12780TIP3    H159755   2.399   3.182  -0.051 -0.7643 -0.9038 -0.6565
12780TIP3    H259756   2.352   3.120   0.079 -0.1934 -0.9971 -0.4920
12781TIP3   OH259757   2.312   2.878   5.216 -0.1899  0.1119  0.3267
12781TIP3    H159758   2.263   2.916   5.143 -1.7210 -0.0491  1.2314
12781TIP3    H259759   2.385   2.938   5.229  0.4009 -0.1214 -1.6306
12782TIP3   OH259760   6.070   0.912   0.813 -0.3106 -0.2298 -0.0411
12782TIP3    H159761   5.980   0.880   0.800 -1.7179  3.8232 -1.7790
12782TIP3    H259762   6.062   0.980   0.879  1.4147  0.5525 -0.5988
12783TIP3   OH259763   1.565   0.802  16.666 -0.0348  0.0712 -0.5943
12783TIP3    H159764   1.550   0.721  16.618 -1.7023 -0.3733  0.5780
12783TIP3    H259765   1.582   0.774  16.756  1.6248  0.9349 -0.6108
12784TIP3   OH259766   5.694   5.179  11.564  0.5721  0.2194  0.0412
12784TIP3    H159767   5.744   5.126  11.502  1.7401  1.3775 -0.0368
12784TIP3    H259768   5.635   5.116  11.606  0.0937 -0.6885 -1.8571
12785TIP3   OH259769   2.846   2.096   2.397  0.1324  0.2923 -0.5189
12785TIP3    H159770   2.771   2.153   2.418 -0.6338 -0.4990 -1.0097
12785TIP3    H259771   2.876   2.063   2.482  1.4935  2.4861 -0.0807
12786TIP3   OH259772   1.211   5.306   6.083 -0.0903 -0.0896  0.2737
12786TIP3    H159773   1.172   5.254   6.153 -0.0772 -0.8135 -0.2471
12786TIP3    H259774   1.281   5.355   6.126  0.2124 -0.8701  0.6907
12787TIP3   OH259775   6.362   4.519   3.976 -0.1077 -0.4931 -0.1311
12787TIP3    H159776   6.280   4.534   3.929  1.3247  2.2714 -2.0637
12787TIP3    H259777   6.342   4.543   4.067 -1.5911 -0.5164 -0.4190
12788TIP3   OH259778   2.865   4.693   1.574 -0.1010 -0.1915 -0.1449
12788TIP3    H159779   2.801   4.684   1.643  0.3910 -1.8331  0.1223
12788TIP3    H259780   2.818   4.667   1.494 -0.3043  0.4809 -0.2518
12789TIP3   OH259781   0.891   4.403   4.441 -0.0428 -0.1654  0.1138
12789TIP3    H159782   0.829   4.428   4.510  0.6333  0.3530  0.5484
12789TIP3    H259783   0.906   4.310   4.454 -1.1083 -0.4179 -0.3151
12790TIP3   OH259784   2.403   0.008   4.942 -0.0417 -0.1954  0.4433
12790TIP3    H159785   2.401  -0.086   4.924  0.6884 -0.0712 -0.3403
12790TIP3    H259786   2.394   0.050   4.856  0.8512  0.4352  0.6407
12791TIP3   OH259787   5.794   2.064  11.785  0.1103  0.1356 -0.4043
12791TIP3    H159788   5.795   1.971  11.764  0.4458  0.6829 -3.1555
12791TIP3    H259789   5.701   2.085  11.796 -0.3095  0.0797 -3.1920
12792TIP3   OH259790   5.921   5.770   1.095 -0.0162  0.8311  0.1713
12792TIP3    H159791   5.833   5.737   1.079 -0.2719  1.3533  0.4751
12792TIP3    H259792   5.936   5.755   1.188  0.6538 -0.2822 -0.1040
12793TIP3   OH259793   2.071   1.137  16.665 -0.4356  0.1738 -0.3163
12793TIP3    H159794   2.005   1.077  16.701 -0.6735  0.5131 -0.1806
12793TIP3    H259795   2.149   1.122  16.720 -0.7517  0.5843  0.2575
12794TIP3   OH259796   6.603   0.060   1.092  0.3232 -0.1209  0.6544
12794TIP3    H159797   6.569   0.113   1.020 -0.6682 -1.0977  0.3793
12794TIP3    H259798   6.543  -0.014   1.098  1.9026 -1.4701  0.7462
12795TIP3   OH259799   2.151   1.845  12.853  0.4656  0.4877  0.5040
12795TIP3    H159800   2.213   1.773  12.865  0.9677  1.1558  2.2356
12795TIP3    H259801   2.135   1.878  12.941 -0.8656  1.5911 -0.1070
12796TIP3   OH259802   5.088   3.770  11.171 -0.3235  0.3057 -0.1628
12796TIP3    H159803   5.144   3.696  11.194 -0.5205  0.3307  0.3987
12796TIP3    H259804   5.004   3.751  11.213  0.0373  1.5274  1.2006
12797TIP3   OH259805   4.081   1.464  12.451  0.2781 -0.6250  0.6425
12797TIP3    H159806   4.093   1.391  12.512  0.6434  0.4460  1.8983
12797TIP3    H259807   4.106   1.542  12.501 -1.5412  0.5495 -0.1683
12798TIP3   OH259808   0.488   1.864  10.756  0.5149  0.0624 -0.0701
12798TIP3    H159809   0.448   1.950  10.740  0.7835  0.4648  1.2328
12798TIP3    H259810   0.444   1.832  10.835 -0.6953 -1.7408 -1.4015
12799TIP3   OH259811   1.166   4.733   3.974  0.0658 -0.1282 -0.1723
12799TIP3    H159812   1.073   4.710   3.979  0.0810 -0.7519 -1.9363
12799TIP3    H259813   1.204   4.667   3.916  1.3773  0.7961 -0.4158
12800TIP3   OH259814   2.565   2.893  14.936  0.6354 -0.1902  0.7544
12800TIP3    H159815   2.510   2.956  14.890  1.1596  0.9405  1.6331
12800TIP3    H259816   2.534   2.808  14.906 -0.1675  0.4726 -0.3666
12801TIP3   OH259817   1.516   0.426   1.828 -0.0792 -0.8441  0.0957
12801TIP3    H159818   1.493   0.344   1.785  0.0846 -0.1457 -1.4172
12801TIP3    H259819   1.493   0.493   1.764  1.8239  0.1487  0.3888
12802TIP3   OH259820   1.812   3.878  12.013 -0.4445  0.0333  0.0192
12802TIP3    H159821   1.771   3.827  12.084 -0.6858 -1.1538 -0.9283
12802TIP3    H259822   1.826   3.814  11.943  1.1970  0.8420 -0.4526
12803TIP3   OH259823   6.741   4.956  16.095  0.2139  0.2892 -0.1080
12803TIP3    H159824   6.782   4.871  16.077  0.0028 -0.1327  1.2882
12803TIP3    H259825   6.680   4.968  16.023  0.3009 -0.7075 -0.3755
12804TIP3   OH259826   0.756   4.235   2.499 -0.4095 -0.6139  0.4540
12804TIP3    H159827   0.755   4.139   2.503 -1.7742 -0.6399  0.1046
12804TIP3    H259828   0.675   4.262   2.542 -0.2789  0.3632  0.1199
12805TIP3   OH259829   5.824   5.688  16.048  0.3483 -0.0753 -0.5425
12805TIP3    H159830   5.890   5.683  16.118 -0.9756 -3.6134  0.6754
12805TIP3    H259831   5.744   5.717  16.092 -0.3709 -1.8499 -0.5774
12806TIP3   OH259832   6.744   1.596   4.816  0.7296  0.3412  0.4262
12806TIP3    H159833   6.838   1.582   4.824  1.1757  0.8923 -2.7362
12806TIP3    H259834   6.708   1.507   4.808  1.4239  0.1883 -1.5818
12807TIP3   OH259835   1.687   1.527   5.507  0.2008  0.4220  0.0385
12807TIP3    H159836   1.751   1.570   5.563  0.1175  1.1619 -0.4208
12807TIP3    H259837   1.609   1.581   5.514  0.3330  0.8014 -1.1545
12808TIP3   OH259838   2.471   2.574   1.151 -0.0809  0.4980  0.3773
12808TIP3    H159839   2.501   2.603   1.064 -0.2589  1.2368  0.5562
12808TIP3    H259840   2.381   2.605   1.156 -0.3908 -0.4067  0.4410
12809TIP3   OH259841   1.944   1.939  11.899 -0.4569 -0.1494  0.5264
12809TIP3    H159842   1.939   2.029  11.934 -1.7198  0.4218 -1.0235
12809TIP3    H259843   2.037   1.928  11.877 -0.4742  1.2732 -0.4343
12810TIP3   OH259844   5.749   1.238  11.874  0.4342 -0.2704  0.6937
12810TIP3    H159845   5.716   1.149  11.873 -1.3660  0.3585  1.1982
12810TIP3    H259846   5.683   1.290  11.828  0.9466  0.9503  1.2708
12811TIP3   OH259847   6.236   6.720   2.224 -0.1041 -0.3775  0.2321
12811TIP3    H159848   6.276   6.636   2.249  0.6234  0.4264  1.8970
12811TIP3    H259849   6.296   6.786   2.257 -0.6607  0.8321 -1.0756
12812TIP3   OH259850   4.397   3.399  16.885 -0.2467  0.0593  0.8696
12812TIP3    H159851   4.393   3.451  16.966 -0.0170  0.8573  0.3854
12812TIP3    H259852   4.360   3.314  16.909 -0.2422  0.3050  1.7963
12813TIP3   OH259853   4.759   2.195  11.302 -0.5652  0.0420 -0.3401
12813TIP3    H159854   4.693   2.166  11.239 -0.4133 -1.9333  0.3337
12813TIP3    H259855   4.751   2.290  11.303 -2.9518 -0.0966 -0.7521
12814TIP3   OH259856   4.074   0.727  13.706  0.4995  0.1546  0.4914
12814TIP3    H159857   4.076   0.815  13.744 -0.1710  0.1174  0.6201
12814TIP3    H259858   4.146   0.727  13.643  0.5759  0.7616  0.5687
12815TIP3   OH259859   2.642   3.705   2.596  0.0628  0.6657 -0.0713
12815TIP3    H159860   2.647   3.764   2.521  2.9917 -0.0673 -0.5512
12815TIP3    H259861   2.678   3.755   2.669  0.0369  0.3767  0.1407
12816TIP3   OH259862   5.210   0.378   2.380 -0.1109 -0.2463  0.1811
12816TIP3    H159863   5.295   0.399   2.343 -0.3500 -0.4109 -0.4866
12816TIP3    H259864   5.196   0.444   2.448 -0.5092  1.2954 -1.3385
12817TIP3   OH259865   5.148   1.919   2.217  0.0565 -0.6515 -0.0218
12817TIP3    H159866   5.123   1.861   2.288  0.9424 -1.0206  0.0016
12817TIP3    H259867   5.223   1.876   2.176  2.0854  1.4191  1.2883
12818TIP3   OH259868   4.780   0.821   0.256  0.5748 -0.2931  0.4435
12818TIP3    H159869   4.738   0.862   0.332  0.2192 -0.9763  0.6168
12818TIP3    H259870   4.760   0.880   0.183  0.8990  0.3544  0.8660
12819TIP3   OH259871   0.293   1.511   0.578  0.2239  0.2036 -0.1791
12819TIP3    H159872   0.359   1.460   0.531 -1.0806 -0.3433 -1.5021
12819TIP3    H259873   0.333   1.531   0.662  2.0285 -0.1839 -0.9105
12820TIP3   OH259874   4.346   2.073  16.597 -0.1449 -0.0997 -0.5560
12820TIP3    H159875   4.352   2.002  16.660 -0.3212  0.2325 -0.1595
12820TIP3    H259876   4.282   2.133  16.635  0.3440  0.4980 -0.6604
12821TIP3   OH259877   2.644   2.593  15.074 -0.2535 -0.1631 -0.1093
12821TIP3    H159878   2.599   2.623  14.995  0.6983  2.6784  0.2978
12821TIP3    H259879   2.737   2.607  15.055 -0.0410  1.1252  1.6532
12822TIP3   OH259880   3.775   0.990  16.705  0.3106 -0.1549  0.3881
12822TIP3    H159881   3.726   1.060  16.663  0.5101 -0.0559  0.3171
12822TIP3    H259882   3.750   0.911  16.658 -0.1914 -0.1900  0.7030
12823TIP3   OH259883   5.110   2.006   2.610 -0.5601  0.4917  0.5957
12823TIP3    H159884   5.178   1.992   2.675 -0.1311  1.2933  0.3318
12823TIP3    H259885   5.094   2.100   2.612 -0.0710  0.6367 -0.9004
12824TIP3   OH259886   0.636   5.231  11.140  0.0638  0.1081  0.3915
12824TIP3    H159887   0.570   5.242  11.070 -0.1184 -1.9575  0.1632
12824TIP3    H259888   0.626   5.140  11.167  2.6532 -0.1937  0.5607
12825TIP3   OH259889   5.248   2.066   3.718  0.1013  0.0727 -0.1803
12825TIP3    H159890   5.168   2.074   3.666  0.0045 -0.9517 -0.2079
12825TIP3    H259891   5.319   2.065   3.653 -0.0388 -1.5137 -0.3424
12826TIP3   OH259892   1.223   4.180   2.016 -0.0570 -0.3395 -0.2493
12826TIP3    H159893   1.242   4.194   1.924 -0.8813 -0.9475 -0.5197
12826TIP3    H259894   1.308   4.194   2.060  0.6212 -1.2597 -1.2240
12827TIP3   OH259895   5.816   4.404   5.451 -0.1256 -0.2102 -0.0930
12827TIP3    H159896   5.863   4.464   5.393 -0.3185  0.4844  0.4571
12827TIP3    H259897   5.728   4.398   5.412 -0.2687  0.2909  0.1408
12828TIP3   OH259898   4.916   0.357   3.729 -0.0503 -0.4262 -0.0549
12828TIP3    H159899   4.885   0.326   3.814  0.4789  0.0270  0.3107
12828TIP3    H259900   4.991   0.302   3.709  0.0740 -0.2604 -0.0395
12829TIP3   OH259901   0.345   1.773  12.356  0.4260  0.0856  0.0446
12829TIP3    H159902   0.324   1.681  12.373  4.2831 -1.2752 -1.2976
12829TIP3    H259903   0.353   1.813  12.442  2.3575 -1.9484  0.9213
12830TIP3   OH259904   2.409   2.634   1.809  1.0645  0.2255 -0.4920
12830TIP3    H159905   2.459   2.595   1.881  1.8426  1.5975 -0.2522
12830TIP3    H259906   2.368   2.712   1.848  2.0647  1.3923 -1.6535
12831TIP3   OH259907   1.579   2.250   4.652  0.5830 -0.4716  0.0743
12831TIP3    H159908   1.496   2.245   4.701  0.5680 -1.5348 -0.0417
12831TIP3    H259909   1.636   2.187   4.695  0.8501 -0.8026 -0.7514
12832TIP3   OH259910   1.376   1.238   3.980  0.2523  0.1958 -0.6269
12832TIP3    H159911   1.391   1.145   3.997 -0.2716  0.1995 -0.1212
12832TIP3    H259912   1.372   1.278   4.067  0.0197  0.6200 -0.8284
12833TIP3   OH259913   1.635   2.463   0.349  0.3677  0.3795  0.9258
12833TIP3    H159914   1.696   2.429   0.283 -0.8963 -0.4600  0.1553
12833TIP3    H259915   1.660   2.418   0.430  0.7507  0.0162  0.6100
12834TIP3   OH259916   3.240   2.849   3.366 -0.0160 -0.7077  0.2591
12834TIP3    H159917   3.154   2.859   3.405 -0.0868  1.3015 -0.2714
12834TIP3    H259918   3.295   2.814   3.436 -0.7789  0.0665  1.2746
12835TIP3   OH259919   3.988   4.080  12.324 -0.2262  0.0243 -0.4440
12835TIP3    H159920   4.027   4.025  12.257  0.3422 -1.2425  0.8585
12835TIP3    H259921   3.897   4.051  12.329  0.0380 -0.7157  0.1448
12836TIP3   OH259922   4.849   1.249  14.282  0.0508  0.0039  0.1156
12836TIP3    H159923   4.800   1.210  14.355  0.7068 -0.4385  0.3309
12836TIP3    H259924   4.886   1.330  14.319  0.6368 -0.3738  0.3791
12837TIP3   OH259925   0.054   3.393   0.761  0.3510  0.1388 -0.1066
12837TIP3    H159926  -0.004   3.381   0.686  1.2203  1.5286 -1.0421
12837TIP3    H259927  -0.004   3.385   0.837 -1.2025  1.9739 -1.0113
12838TIP3   OH259928   0.425   6.506   0.387  0.3150  0.2639  0.4179
12838TIP3    H159929   0.405   6.488   0.479 -2.0366 -0.1713 -0.0992
12838TIP3    H259930   0.445   6.420   0.350 -0.0387  0.2456  0.2633
12839TIP3   OH259931   1.033   3.533   6.122 -0.3562  0.3547 -0.1950
12839TIP3    H159932   1.129   3.536   6.131 -0.3668  0.2808 -0.0454
12839TIP3    H259933   1.018   3.471   6.051 -0.2765  0.7682 -0.5725
12840TIP3   OH259934   1.275   6.388   4.616  0.1900 -0.1758  0.2358
12840TIP3    H159935   1.199   6.423   4.663  0.2784  0.5339 -0.1404
12840TIP3    H259936   1.261   6.414   4.525  1.3736  0.8423  0.3147
12841TIP3   OH259937   1.234   3.633   1.865 -0.4783  0.0283 -0.7830
12841TIP3    H159938   1.166   3.644   1.798  1.3819  0.0087 -2.8167
12841TIP3    H259939   1.237   3.539   1.882 -1.8641  0.1701  0.3877
12842TIP3   OH259940   1.313   4.087   0.625  0.3470 -0.2034  0.2456
12842TIP3    H159941   1.276   4.163   0.669  1.2445 -0.2079  1.0315
12842TIP3    H259942   1.314   4.018   0.692  1.3231 -0.3351  0.1079
12843TIP3   OH259943   4.197   1.870  16.447  0.5441 -0.0048 -0.4600
12843TIP3    H159944   4.276   1.913  16.481 -0.4346  0.2382  1.6803
12843TIP3    H259945   4.228   1.786  16.412  1.5444 -0.9568  2.4188
12844TIP3   OH259946   2.151   5.648   2.635  0.2536 -0.0688  0.5236
12844TIP3    H159947   2.128   5.555   2.638  2.5746 -0.6830  2.6813
12844TIP3    H259948   2.243   5.649   2.611  0.6635  1.5625  1.9591
12845TIP3   OH259949   4.884   5.061  16.880 -0.3754  0.0218  0.2836
12845TIP3    H159950   4.880   5.081  16.786 -0.4479  1.7174  0.6128
12845TIP3    H259951   4.916   5.142  16.920  0.0391 -0.8134  1.6880
12846TIP3   OH259952   2.867   1.374   1.097 -0.0333  0.3699 -0.6863
12846TIP3    H159953   2.834   1.455   1.057  0.7856  0.9367 -0.2629
12846TIP3    H259954   2.813   1.305   1.061 -1.1370  1.1741 -0.6221
12847TIP3   OH259955   3.988   0.308  11.479  0.2295 -0.7661  0.1327
12847TIP3    H159956   4.028   0.322  11.565 -0.3020  0.3783  0.2188
12847TIP3    H259957   4.061   0.297  11.419  0.6129 -1.1982  0.6720
12848TIP3   OH259958   1.770   0.382   4.297  0.0353 -0.1924 -1.0856
12848TIP3    H159959   1.826   0.383   4.219  2.2889  3.0680  0.3401
12848TIP3    H259960   1.827   0.347   4.366 -0.5496  0.6365 -0.1515
12849TIP3   OH259961   3.351   0.515   6.182  0.3676 -0.1766 -0.0450
12849TIP3    H159962   3.371   0.422   6.194 -0.3084 -0.4837 -1.1314
12849TIP3    H259963   3.269   0.528   6.229  1.2170  0.2443  1.3785
12850TIP3   OH259964   2.744   6.131   2.863  0.5073 -0.4763 -0.0930
12850TIP3    H159965   2.809   6.198   2.885 -0.8228  0.7967  0.0584
12850TIP3    H259966   2.770   6.101   2.776  0.9336  0.4679 -0.3056
12851TIP3   OH259967   4.778   2.550  17.342  0.2171 -0.0951  0.2656
12851TIP3    H159968   4.864   2.524  17.308 -0.0257  2.2748 -2.5768
12851TIP3    H259969   4.797   2.613  17.411  0.7475 -0.5803  0.5745
12852TIP3   OH259970   4.771   4.792  11.710  0.6998  0.1275  0.0021
12852TIP3    H159971   4.676   4.797  11.720  0.6082 -1.2289 -0.0672
12852TIP3    H259972   4.805   4.832  11.790  0.0000 -3.0704  2.0970
12853TIP3   OH259973   6.127   1.527  13.469  0.2293 -0.2601 -0.6860
12853TIP3    H159974   6.218   1.501  13.479  0.1446 -0.3452 -0.0967
12853TIP3    H259975   6.129   1.623  13.468  0.6191 -0.1991 -3.5894
12854TIP3   OH259976   6.146   1.183  13.173 -0.7609 -0.1748 -0.2689
12854TIP3    H159977   6.159   1.259  13.116 -0.9442  0.2724  0.2823
12854TIP3    H259978   6.215   1.189  13.238 -1.0175 -0.2673  0.0108
12855TIP3   OH259979   0.128   1.850  16.633  0.4091  0.0860 -0.4049
12855TIP3    H159980   0.083   1.905  16.697  2.3067  0.4964  0.6716
12855TIP3    H259981   0.214   1.892  16.622  0.6750 -0.8259 -2.1022
12856TIP3   OH259982   3.527   3.504   0.239  0.2290 -0.2432  0.0030
12856TIP3    H159983   3.484   3.420   0.222 -1.4872  0.6643 -0.3358
12856TIP3    H259984   3.468   3.569   0.202  1.1114  1.1896  1.0178
12857TIP3   OH259985   4.394   1.561   1.673 -0.0339 -0.5253  0.1111
12857TIP3    H159986   4.410   1.639   1.726 -2.1524  0.4618 -0.5536
12857TIP3    H259987   4.480   1.522   1.660  1.3481  2.5127 -0.7568
12858TIP3   OH259988   0.498   6.735   0.760 -0.2472  0.6417 -0.3220
12858TIP3    H159989   0.433   6.733   0.830 -2.0086 -1.6933 -1.8262
12858TIP3    H259990   0.470   6.807   0.703 -0.3232  0.9346  0.0880
12859TIP3   OH259991   5.704   5.011  16.419 -0.1145  0.1139  0.2304
12859TIP3    H159992   5.647   5.010  16.342  0.5871  0.2418 -0.2942
12859TIP3    H259993   5.715   4.919  16.442  1.9605 -0.1580 -1.5509
12860TIP3   OH259994   6.255   2.133   2.494 -0.0361  0.1353 -0.2737
12860TIP3    H159995   6.244   2.228   2.488 -2.1704  0.0419  0.9240
12860TIP3    H259996   6.207   2.098   2.419 -0.4512 -0.0126  0.0520
12861TIP3   OH259997   1.571   2.969   1.497 -0.4238  0.0560  0.9428
12861TIP3    H159998   1.645   2.994   1.553  0.2476 -0.0072  0.0990
12861TIP3    H259999   1.545   3.050   1.453  0.1404 -0.2147  0.0891
12862TIP3   OH260000   5.205   0.206  17.181  0.6317 -0.1275 -0.3920
12862TIP3    H160001   5.262   0.148  17.232  0.1911 -2.1555 -2.1084
12862TIP3    H260002   5.208   0.172  17.092 -1.3248  1.2214 -1.0454
12863TIP3   OH260003   0.823   0.304  13.295  0.3517 -0.2138 -0.4245
12863TIP3    H160004   0.891   0.258  13.344  0.4297  0.8728  0.5075
12863TIP3    H260005   0.745   0.297  13.351  0.3847  0.8370 -0.2329
12864TIP3   OH260006   4.641   2.654   2.256  0.6554 -0.2332 -0.2392
12864TIP3    H160007   4.717   2.616   2.213  0.3392 -0.5852 -0.4955
12864TIP3    H260008   4.575   2.659   2.187  0.1814 -0.6892  0.1783
12865TIP3   OH260009   3.271   5.330  17.333  0.1285 -0.2488  0.0196
12865TIP3    H160010   3.258   5.261  17.398 -2.0151  0.4363  0.3733
12865TIP3    H260011   3.296   5.407  17.384 -0.1492 -0.0765 -0.1008
12866TIP3   OH260012   0.405   3.394  17.362 -0.6731 -0.2836 -0.4832
12866TIP3    H160013   0.376   3.476  17.403 -2.5749 -0.6610 -0.9855
12866TIP3    H260014   0.458   3.423  17.288  3.1452  0.4174  2.2080
12867TIP3   OH260015   4.428   1.823  15.301 -0.1968 -0.3180  0.0258
12867TIP3    H160016   4.360   1.878  15.260 -1.0020 -2.5818 -1.8820
12867TIP3    H260017   4.472   1.882  15.362  0.8312  3.2956 -3.7401
12868TIP3   OH260018   5.257   3.997   6.139 -0.7174  0.1330  0.0204
12868TIP3    H160019   5.281   3.948   6.060 -0.7000 -0.6480  0.5082
12868TIP3    H260020   5.215   3.933   6.196 -0.6758  0.6798  0.6803
12869TIP3   OH260021   1.598   3.886   4.328  0.0442  0.3071  0.1158
12869TIP3    H160022   1.575   3.961   4.383 -1.3571 -0.9196  1.2715
12869TIP3    H260023   1.538   3.891   4.253 -0.0637  0.3371  0.2042
12870TIP3   OH260024   3.177   3.608  16.872  0.1311  0.1979 -0.2389
12870TIP3    H160025   3.144   3.605  16.782 -3.5960 -1.2774  0.9726
12870TIP3    H260026   3.196   3.701  16.887 -0.3471  0.6516 -2.1690
12871TIP3   OH260027   2.654   3.441  16.376 -0.3460  0.3370 -0.1489
12871TIP3    H160028   2.592   3.369  16.390  0.3293 -0.5368 -1.4403
12871TIP3    H260029   2.726   3.423  16.436  1.0293 -1.5757 -2.2271
12872TIP3   OH260030   5.408   6.231   5.428  0.2728 -0.0831 -0.2917
12872TIP3    H160031   5.476   6.294   5.406 -1.8633  1.7110 -2.2125
12872TIP3    H260032   5.375   6.259   5.513  1.0783 -0.2656  0.0975
12873TIP3   OH260033   4.178   0.039  10.982 -0.3791 -0.3037  0.4795
12873TIP3    H160034   4.268   0.006  10.972 -0.7102 -0.9127 -0.7903
12873TIP3    H260035   4.166   0.097  10.907 -0.3994  1.3844  1.7482
12874TIP3   OH260036   0.846   6.432   1.585  0.5688  0.0337 -0.5724
12874TIP3    H160037   0.783   6.500   1.606  1.4883  0.8167 -0.2574
12874TIP3    H260038   0.857   6.383   1.666  0.9314  0.3743 -0.4153
12875TIP3   OH260039   2.680   0.035  14.769  0.4081  0.1160 -0.4376
12875TIP3    H160040   2.684   0.034  14.865 -1.4213  1.2381 -0.3148
12875TIP3    H260041   2.732   0.111  14.743  0.3079  0.2326 -0.2963
12876TIP3   OH260042   0.197   3.035   2.752  0.5262 -0.0068  0.0159
12876TIP3    H160043   0.234   3.123   2.746 -0.2233  0.2518 -0.9956
12876TIP3    H260044   0.246   2.983   2.689  1.4444 -0.5128  1.1054
12877TIP3   OH260045   2.781   4.764   2.416  0.1666  0.1207 -0.3892
12877TIP3    H160046   2.701   4.813   2.432 -0.2405 -1.0764  1.5076
12877TIP3    H260047   2.761   4.674   2.445  1.3749 -0.8306 -2.2817
12878TIP3   OH260048   0.095   3.330   3.228  0.1534  0.1626 -0.2756
12878TIP3    H160049   0.012   3.294   3.196  0.0644 -0.2629  0.4260
12878TIP3    H260050   0.078   3.424   3.237 -0.9511 -0.1725  1.8583
12879TIP3   OH260051   2.969   0.655   2.118  0.3747 -0.0669 -0.1014
12879TIP3    H160052   2.978   0.623   2.208  2.3435  1.3878  0.2870
12879TIP3    H260053   2.995   0.581   2.064 -1.0098 -1.0235  0.4792
12880TIP3   OH260054   0.677   5.415   1.932  0.1400 -0.6489  0.2182
12880TIP3    H160055   0.646   5.450   1.849  1.0061 -0.1834  0.0793
12880TIP3    H260056   0.597   5.396   1.981 -0.4006 -1.7328 -1.0341
12881TIP3   OH260057   2.181   6.732  14.782  0.2574  0.4219 -0.3560
12881TIP3    H160058   2.164   6.747  14.875  0.1798 -0.4161 -0.2254
12881TIP3    H260059   2.148   6.810  14.738  0.7547  1.0401  0.3665
12882TIP3   OH260060   4.512   5.511  10.531  0.2117  0.4964 -0.2165
12882TIP3    H160061   4.602   5.522  10.560 -0.5412  1.2807  1.9818
12882TIP3    H260062   4.478   5.439  10.584 -0.4863  0.2410 -0.9913
12883TIP3   OH260063   5.532   4.912   0.203  0.5810  0.8302 -0.1873
12883TIP3    H160064   5.543   4.875   0.116 -1.3013 -1.8076  0.5684
12883TIP3    H260065   5.457   4.971   0.195  0.7410  0.9991 -0.4535
12884TIP3   OH260066   0.110   0.852  14.083 -0.3825 -0.6218 -0.4908
12884TIP3    H160067   0.079   0.762  14.077  0.1979 -1.0415  1.7430
12884TIP3    H260068   0.080   0.881  14.169  0.9275  0.7192 -0.4592
12885TIP3   OH260069   3.730   5.974   5.917 -0.3637 -0.1656  0.4531
12885TIP3    H160070   3.775   5.968   6.002  3.4417  1.3747 -1.2205
12885TIP3    H260071   3.762   5.899   5.867 -0.2208  0.5476 -0.5506
12886TIP3   OH260072   6.417   0.520  13.682 -0.1632 -0.4098 -0.1592
12886TIP3    H160073   6.399   0.490  13.592 -0.4366 -0.1604 -0.1893
12886TIP3    H260074   6.351   0.477  13.735 -0.4997  0.0615 -0.1887
12887TIP3   OH260075   2.964   3.023  11.957  0.1649  0.2157 -0.7962
12887TIP3    H160076   2.937   2.949  12.011 -2.5219  1.4494 -0.2952
12887TIP3    H260077   2.885   3.048  11.908  0.3901  3.7681  0.3285
12888TIP3   OH260078   6.299   4.448  15.636 -0.1806  0.2241 -0.3634
12888TIP3    H160079   6.218   4.485  15.672  0.0530 -0.0692  0.4924
12888TIP3    H260080   6.354   4.524  15.617 -1.4906  0.5989 -3.1440
12889TIP3   OH260081   0.675   1.786  11.355 -0.5162  0.4905 -0.0781
12889TIP3    H160082   0.685   1.777  11.260 -1.4037 -1.4397 -0.0418
12889TIP3    H260083   0.759   1.822  11.384  0.3644 -0.3572 -1.4308
12890TIP3   OH260084   4.767   4.597  14.236  0.0372 -0.2961 -0.5915
12890TIP3    H160085   4.784   4.510  14.198  0.7707  0.0755 -1.1379
12890TIP3    H260086   4.817   4.597  14.317 -0.4184 -0.5823 -0.3015
12891TIP3   OH260087   2.389   5.525   0.479  0.3364  0.3908  0.1516
12891TIP3    H160088   2.410   5.472   0.402 -0.2327  0.5116 -0.0882
12891TIP3    H260089   2.405   5.466   0.553  0.6163  0.1857 -0.0697
12892TIP3   OH260090   0.383   4.870  17.430  0.1993  0.5497  0.2985
12892TIP3    H160091   0.469   4.829  17.426  0.1583  0.3266  1.3920
12892TIP3    H260092   0.374   4.899  17.521 -1.4929 -0.7906  0.6278
12893TIP3   OH260093   6.660   0.269   2.623 -0.0664 -0.4052  0.0825
12893TIP3    H160094   6.711   0.188   2.618  1.0205  0.2034  0.6958
12893TIP3    H260095   6.710   0.332   2.571 -1.1238 -0.2249 -0.7419
12894TIP3   OH260096   4.710   5.973  13.738 -0.6101 -0.0414  0.3460
12894TIP3    H160097   4.805   5.984  13.728 -0.2983 -1.6638  1.1716
12894TIP3    H260098   4.679   5.947  13.652 -0.1072 -0.6074  0.3289
12895TIP3   OH260099   6.726   3.214   1.406 -0.0253 -0.3439 -0.0793
12895TIP3    H160100   6.649   3.211   1.463 -0.9451 -1.3086 -1.3061
12895TIP3    H260101   6.740   3.308   1.390 -2.3234 -0.1423 -1.5353
12896TIP3   OH260102   2.002   0.985  16.941  0.1396  0.4958 -0.5754
12896TIP3    H160103   1.957   0.912  16.984 -0.3426  0.8838 -0.4126
12896TIP3    H260104   2.026   1.043  17.013  0.9930  0.2547 -0.6476
12897TIP3   OH260105   5.470   5.996   0.473  0.4118  0.5355 -0.1886
12897TIP3    H160106   5.533   5.924   0.480  1.4989  1.4041 -0.5872
12897TIP3    H260107   5.514   6.060   0.417 -2.0536 -0.0840 -3.0758
12898TIP3   OH260108   2.829   2.695   2.412 -0.2289 -0.2647 -0.0175
12898TIP3    H160109   2.871   2.612   2.389  0.0076 -0.2707  0.4174
12898TIP3    H260110   2.794   2.728   2.330 -0.1749 -0.7136 -0.2229
12899TIP3   OH260111   1.760   1.691  17.441 -0.4653  0.4161 -0.0508
12899TIP3    H160112   1.825   1.727  17.380  1.4379 -0.9582  1.0364
12899TIP3    H260113   1.734   1.608  17.402  1.4171 -0.8902  1.3178
12900TIP3   OH260114   3.193   0.290  13.420  0.6926  0.7251 -0.0731
12900TIP3    H160115   3.103   0.288  13.387  1.4478  0.5061 -2.2909
12900TIP3    H260116   3.187   0.338  13.503 -1.6186 -0.3559  0.4659
12901TIP3   OH260117   6.545   6.314   4.918 -0.6667  0.2135 -0.0666
12901TIP3    H160118   6.507   6.369   4.850 -2.4815 -1.4746 -0.4998
12901TIP3    H260119   6.469   6.282   4.967  0.1866 -2.8383 -0.5820
12902TIP3   OH260120   4.193   5.760   2.130 -0.0336  0.3682  0.2928
12902TIP3    H160121   4.260   5.800   2.186 -0.7652  1.9992  0.0515
12902TIP3    H260122   4.225   5.772   2.041  0.9725 -1.9451  0.2572
12903TIP3   OH260123   1.812   5.066   1.330  0.6389  0.5994  0.3473
12903TIP3    H160124   1.782   5.014   1.256 -1.5006  1.3083  0.6353
12903TIP3    H260125   1.890   5.111   1.298 -1.4728  2.6835 -2.3816
12904TIP3   OH260126   5.904   0.021  12.573  0.0507  0.5921 -0.0621
12904TIP3    H160127   5.894   0.096  12.515  1.5199 -1.0129 -2.6342
12904TIP3    H260128   5.998   0.001  12.570 -0.2449 -1.1304  0.7917
12905TIP3   OH260129   2.480   0.229  10.942 -0.3462  0.1100 -0.1705
12905TIP3    H160130   2.521   0.185  10.867 -0.8701 -3.8833  1.6045
12905TIP3    H260131   2.532   0.200  11.017 -1.9293  1.0704  1.3675
12906TIP3   OH260132   1.904   4.914  12.161  0.3346  0.3459  0.4941
12906TIP3    H160133   1.853   4.992  12.182 -0.9683 -0.9129  2.2518
12906TIP3    H260134   1.860   4.843  12.207  2.6401 -1.1216  0.6010
12907TIP3   OH260135   0.580   3.009   3.027  0.1921 -0.3377 -0.4517
12907TIP3    H160136   0.502   3.054   3.060  1.5140  2.1711 -0.5228
12907TIP3    H260137   0.562   2.992   2.935  0.0348  1.0096 -0.6832
12908TIP3   OH260138   3.844   6.540  13.274 -0.9985  0.1182 -0.1358
12908TIP3    H160139   3.780   6.596  13.319 -0.4535  1.5467 -1.0817
12908TIP3    H260140   3.890   6.599  13.214  0.3350 -1.1441 -0.4088
12909TIP3   OH260141   4.476   3.336   4.612  0.0172 -0.7575  0.1459
12909TIP3    H160142   4.382   3.318   4.622  0.2023 -1.6723  0.3282
12909TIP3    H260143   4.506   3.357   4.700 -0.0566 -0.2224  0.0482
12910TIP3   OH260144   4.454   6.297  16.481 -0.0848  0.1571  0.2427
12910TIP3    H160145   4.494   6.294  16.394 -0.9174  0.7570 -0.1782
12910TIP3    H260146   4.470   6.386  16.512  0.3275 -0.0925  0.7747
12911TIP3   OH260147   2.299   4.151  14.295  0.5294 -0.3741  0.4327
12911TIP3    H160148   2.328   4.117  14.210  0.9071  0.5749  0.1690
12911TIP3    H260149   2.221   4.204  14.274 -0.6863 -1.8907  0.9755
12912TIP3   OH260150   0.308   2.261   2.731 -0.1006  0.2197 -0.1333
12912TIP3    H160151   0.326   2.193   2.666  0.6480 -0.3177  0.6091
12912TIP3    H260152   0.306   2.215   2.815 -2.3038  0.7002  0.1382
12913TIP3   OH260153   4.409   4.941  13.896  0.1585  0.5149  0.0883
12913TIP3    H160154   4.433   4.981  13.980 -0.0248 -3.0387  2.0497
12913TIP3    H260155   4.314   4.943  13.895  0.1127 -0.4636  0.6094
12914TIP3   OH260156   6.721   6.365   0.995  0.1230  0.0177  0.4763
12914TIP3    H160157   6.696   6.333   0.908 -0.2705 -0.5241  0.7884
12914TIP3    H260158   6.638   6.379   1.040  0.3032  0.9530  0.5368
12915TIP3   OH260159   2.626   2.992   2.532  0.0973  0.1787  0.1796
12915TIP3    H160160   2.716   2.971   2.556  0.0967  0.1037  0.1168
12915TIP3    H260161   2.631   3.081   2.495  0.3490 -0.2892 -0.9695
12916TIP3   OH260162   3.152   0.788   3.985  0.3863 -0.3090  0.0033
12916TIP3    H160163   3.089   0.854   4.014  1.7990  1.6473 -1.1158
12916TIP3    H260164   3.168   0.735   4.063 -2.4859 -0.8278  0.3521
12917TIP3   OH260165   0.025   4.291   1.314 -0.1689 -0.0667  0.1065
12917TIP3    H160166  -0.045   4.345   1.350 -0.1382  0.9504 -1.2562
12917TIP3    H260167   0.099   4.351   1.306  0.4632 -0.8053  0.3215
12918TIP3   OH260168   2.859   0.277   4.693  0.4412 -0.1513 -0.3401
12918TIP3    H160169   2.906   0.241   4.618 -2.0351 -1.3401 -1.4584
12918TIP3    H260170   2.896   0.232   4.769  1.6975 -0.3562 -1.0556
12919TIP3   OH260171   2.957   6.620   4.416 -0.1541 -0.2152  0.1128
12919TIP3    H160172   2.883   6.559   4.410  1.0634 -1.7547 -0.0847
12919TIP3    H260173   2.917   6.705   4.431 -2.0973 -0.5167 -2.6583
12920TIP3   OH260174   3.128   6.448  12.550  0.3661 -0.5294 -0.3927
12920TIP3    H160175   3.156   6.460  12.641  2.3373 -0.1607 -1.0009
12920TIP3    H260176   3.056   6.509  12.538  0.3487 -0.2983  0.8034
12921TIP3   OH260177   0.527   2.877  13.252  0.5256 -0.0557 -0.2987
12921TIP3    H160178   0.571   2.929  13.319 -0.4319 -1.2629  1.3518
12921TIP3    H260179   0.597   2.846  13.195  1.5009  0.1472  0.7538
12922TIP3   OH260180   1.687   1.932   5.532  0.1088 -0.2615 -0.3400
12922TIP3    H160181   1.736   1.993   5.478  2.5859 -1.9345 -0.1118
12922TIP3    H260182   1.608   1.913   5.481  1.7103 -0.7690 -2.8310
12923TIP3   OH260183   6.651   3.482   2.245  0.6641 -0.2110 -0.3636
12923TIP3    H160184   6.610   3.565   2.221 -0.4927 -0.5588  0.3158
12923TIP3    H260185   6.645   3.428   2.166  0.9267  0.1673 -0.6419
12924TIP3   OH260186   5.458   0.694  17.379 -0.1621 -0.2752  0.2582
12924TIP3    H160187   5.362   0.692  17.375 -0.1248 -0.5802 -1.7055
12924TIP3    H260188   5.485   0.611  17.339  0.9405 -0.4965  1.3893
12925TIP3   OH260189   2.694   5.811  14.640 -0.3152  0.5681 -0.0692
12925TIP3    H160190   2.788   5.813  14.621 -0.1026 -1.9142  0.4658
12925TIP3    H260191   2.660   5.737  14.590 -1.6388  0.2488  1.2235
12926TIP3   OH260192   0.605   6.496   3.281 -0.2223  0.2064 -0.2915
12926TIP3    H160193   0.592   6.405   3.255 -0.4088  0.4663 -1.1302
12926TIP3    H260194   0.691   6.519   3.247 -0.9085  0.8692 -1.6640
12927TIP3   OH260195   1.148   3.825   1.332 -0.0930  0.3811  0.7320
12927TIP3    H160196   1.210   3.753   1.343 -1.0795 -0.3955  1.3571
12927TIP3    H260197   1.090   3.795   1.262 -0.6833  0.4448  1.1919
12928TIP3   OH260198   4.579   3.988  16.880  0.3486  0.0402  0.0307
12928TIP3    H160199   4.530   3.985  16.798  0.1341 -3.8071  0.1096
12928TIP3    H260200   4.512   3.986  16.948  0.5431 -0.6991  0.2089
12929TIP3   OH260201   1.166   3.864   2.752 -0.1020  0.5541 -0.0169
12929TIP3    H160202   1.115   3.943   2.764  2.0276  1.9723  0.2609
12929TIP3    H260203   1.213   3.878   2.670 -1.7554 -1.7031 -1.4842
12930TIP3   OH260204   1.439   4.746   5.150 -0.1035  0.3726  0.5073
12930TIP3    H160205   1.360   4.750   5.203  0.7697  1.3754  1.7975
12930TIP3    H260206   1.449   4.654   5.127 -0.9111  0.0320  1.4713
12931TIP3   OH260207   0.261   6.041  16.052  0.1599  0.0068 -0.3936
12931TIP3    H160208   0.240   6.042  15.958 -2.2273 -0.3105  0.0869
12931TIP3    H260209   0.296   5.954  16.067 -0.4412 -0.3150 -0.8068
12932TIP3   OH260210   0.481   2.766   5.269 -0.3459  0.5400 -0.5473
12932TIP3    H160211   0.514   2.747   5.182 -0.0742  0.8819 -0.5219
12932TIP3    H260212   0.439   2.685   5.298  2.0155 -0.5305  0.1333
12933TIP3   OH260213   1.121   0.966   2.658  0.3922  0.1164  0.2274
12933TIP3    H160214   1.090   1.050   2.691  2.3130  0.7318  0.6014
12933TIP3    H260215   1.147   0.917   2.736  0.1882 -0.4633 -0.0537
12934TIP3   OH260216   0.486   5.206   5.102 -0.3523 -0.2244  0.2427
12934TIP3    H160217   0.536   5.266   5.158  0.7007 -0.3124 -0.5813
12934TIP3    H260218   0.528   5.121   5.114 -1.4160 -0.6744  0.8827
12935TIP3   OH260219   1.873   4.811   5.273  0.3520  0.0201 -0.5337
12935TIP3    H160220   1.840   4.722   5.266 -0.0801  0.1281  0.0720
12935TIP3    H260221   1.903   4.833   5.185  0.2972 -0.6584 -0.7213
12936TIP3   OH260222   2.115   5.091   0.800 -0.1212 -0.3431  0.2642
12936TIP3    H160223   2.038   5.036   0.790  0.0361 -0.5788  0.3379
12936TIP3    H260224   2.173   5.041   0.856  0.8398 -0.9673 -1.2235
12937TIP3   OH260225   6.032   2.628  16.599  0.3040 -0.2349 -0.8439
12937TIP3    H160226   5.969   2.695  16.625  0.9100  0.0998 -0.1961
12937TIP3    H260227   6.101   2.677  16.555  0.1183 -0.5981 -1.5450
12938TIP3   OH260228   0.471   0.103  12.495 -0.1531 -0.4200 -0.0392
12938TIP3    H160229   0.530   0.070  12.563 -1.1184 -2.3592 -0.0780
12938TIP3    H260230   0.529   0.124  12.422  0.7395  0.2809  0.8199
12939TIP3   OH260231   5.383   1.560  12.442  0.0405 -0.0405  0.0723
12939TIP3    H160232   5.424   1.643  12.416 -0.1426 -0.3517 -1.2931
12939TIP3    H260233   5.337   1.581  12.523  0.2081  1.1322 -0.1125
12940TIP3   OH260234   3.990   3.305  10.594  0.2435 -0.0057  0.1371
12940TIP3    H160235   3.994   3.340  10.683  1.8590 -1.7428  0.8281
12940TIP3    H260236   4.072   3.332  10.553  0.9275 -1.7339  0.2553
12941TIP3   OH260237   6.236   2.367   4.693  0.2127 -0.1500 -0.7972
12941TIP3    H160238   6.244   2.436   4.758 -1.4933  0.4867 -1.2127
12941TIP3    H260239   6.245   2.412   4.609 -1.3169 -0.3433 -1.0849
12942TIP3   OH260240   3.231   5.191   0.074  0.2345  0.7107  0.4363
12942TIP3    H160241   3.230   5.101   0.042  0.6334  0.4358  1.1828
12942TIP3    H260242   3.138   5.212   0.088  0.1898  0.0980  1.1192
12943TIP3   OH260243   4.257   0.345   1.723 -0.7963 -0.1934 -1.0893
12943TIP3    H160244   4.210   0.422   1.757 -0.0427 -0.2678  0.1683
12943TIP3    H260245   4.212   0.270   1.762  0.0566 -0.2834 -0.2617
12944TIP3   OH260246   4.110   0.471   6.369  0.1733 -0.5955 -0.5476
12944TIP3    H160247   4.060   0.503   6.445 -0.2085 -1.3482 -0.4726
12944TIP3    H260248   4.043   0.452   6.303  0.5205  0.3167 -1.1893
12945TIP3   OH260249   5.085   6.295  15.683  0.5708  0.4058 -1.0541
12945TIP3    H160250   5.124   6.318  15.599  0.8440  0.0121 -1.0416
12945TIP3    H260251   5.004   6.346  15.688  1.3114  1.6034 -0.8727
12946TIP3   OH260252   0.764   1.606  13.249  0.2545 -0.4065  0.0784
12946TIP3    H160253   0.722   1.660  13.316 -2.6607 -1.0380 -1.0874
12946TIP3    H260254   0.728   1.637  13.166 -0.1707 -2.9071 -0.7755
12947TIP3   OH260255   3.402   2.080  15.634  0.2910  0.0268  0.6196
12947TIP3    H160256   3.443   2.009  15.683  0.7115  1.5831  2.7031
12947TIP3    H260257   3.444   2.077  15.548  1.5016 -1.2190  1.2105
12948TIP3   OH260258   2.836   0.493   2.738 -0.8383 -0.2941 -1.1019
12948TIP3    H160259   2.786   0.501   2.819 -0.2319 -1.0180 -0.6445
12948TIP3    H260260   2.772   0.464   2.673 -1.1273 -0.6981 -0.6438
12949TIP3   OH260261   4.290   1.114   2.724 -0.1893  0.4658  0.1933
12949TIP3    H160262   4.242   1.196   2.710  0.1134  0.6335  0.1252
12949TIP3    H260263   4.222   1.047   2.731 -0.4397  0.7256  0.2660
12950TIP3   OH260264   1.291   0.790   0.178  0.5893  0.9004  0.1031
12950TIP3    H160265   1.309   0.778   0.271  1.6424  0.8617 -0.0859
12950TIP3    H260266   1.378   0.795   0.138  0.2547 -1.9579 -1.2561
12951TIP3   OH260267   6.574   4.616   3.781 -0.0150 -0.8649  0.3058
12951TIP3    H160268   6.489   4.596   3.820  0.4597 -0.4055  1.6158
12951TIP3    H260269   6.591   4.707   3.805 -0.0217 -0.3106 -1.6175
12952TIP3   OH260270   5.928   4.124  17.292 -0.2388  0.5671 -0.0359
12952TIP3    H160271   5.994   4.113  17.360 -1.1097  0.4626  0.8043
12952TIP3    H260272   5.919   4.219  17.281  0.0977  0.5808 -0.2102
12953TIP3   OH260273   6.314   3.886   3.111  0.0257  0.4226  0.5211
12953TIP3    H160274   6.281   3.872   3.022  0.9594 -0.2855  0.2644
12953TIP3    H260275   6.382   3.819   3.122 -1.2941 -0.6994  2.4265
12954TIP3   OH260276   5.016   5.858   5.868 -0.1251  0.8513 -0.3495
12954TIP3    H160277   4.993   5.765   5.872 -0.0658  0.8831  0.9294
12954TIP3    H260278   5.081   5.863   5.798 -0.8199  0.0856 -1.0802
12955TIP3   OH260279   1.707   1.643  12.630 -0.4590  0.5351  0.5308
12955TIP3    H160280   1.751   1.682  12.705 -0.0309 -0.7215  0.9685
12955TIP3    H260281   1.626   1.607  12.665 -0.3120  0.0404  0.3759
12956TIP3   OH260282   4.906   5.726  15.808 -0.1523  0.3275 -0.1181
12956TIP3    H160283   4.900   5.676  15.727 -2.9648  2.9563 -1.7520
12956TIP3    H260284   4.975   5.791  15.791  0.9480 -0.5987  0.6142
12957TIP3   OH260285   0.250   6.283  15.641 -0.0756 -0.3028 -0.3495
12957TIP3    H160286   0.321   6.284  15.576 -0.6084 -1.1337 -0.9591
12957TIP3    H260287   0.234   6.376  15.659 -0.2488 -0.0241 -1.7812
12958TIP3   OH260288   3.347   2.216  12.258 -0.7064  0.4921 -0.5332
12958TIP3    H160289   3.419   2.157  12.237 -1.7027 -0.7386 -0.6485
12958TIP3    H260290   3.268   2.167  12.234 -1.6528  1.2490  0.8695
12959TIP3   OH260291   3.040   2.994  14.844 -0.0852 -0.4442  0.2593
12959TIP3    H160292   3.056   3.019  14.753  1.2056  3.0040  1.2826
12959TIP3    H260293   2.945   2.979  14.849 -0.8474  2.9863 -1.0114
12960TIP3   OH260294   4.252   4.729   6.209  0.1804  0.5046 -0.1522
12960TIP3    H160295   4.261   4.780   6.290  1.6060  0.4023 -0.2273
12960TIP3    H260296   4.279   4.640   6.233  3.0135  0.9748 -1.2467
12961TIP3   OH260297   3.255   4.739  12.612 -0.1673  0.4277  0.5353
12961TIP3    H160298   3.165   4.772  12.609 -0.2682  0.2535  1.3453
12961TIP3    H260299   3.308   4.817  12.627 -0.1495  0.5646 -0.1839
12962TIP3   OH260300   3.848   2.670   6.006  0.6191 -0.8215 -0.9028
12962TIP3    H160301   3.804   2.602   5.955  0.5474 -1.1642 -0.3850
12962TIP3    H260302   3.827   2.751   5.959 -0.2202 -1.0273 -0.9043
12963TIP3   OH260303   2.397   5.376   4.640 -0.2134 -0.7107 -0.6397
12963TIP3    H160304   2.303   5.360   4.639 -0.1181 -1.3641 -0.0943
12963TIP3    H260305   2.407   5.468   4.616 -0.9795 -0.6635 -0.7821
12964TIP3   OH260306   4.666   2.473   3.139 -0.0117  0.6007 -0.0597
12964TIP3    H160307   4.635   2.393   3.182  1.3770 -0.7657 -1.4636
12964TIP3    H260308   4.687   2.532   3.211  1.9605 -1.4944  1.2288
12965TIP3   OH260309   3.480   1.828   2.420 -0.4260  0.4870 -1.0545
12965TIP3    H160310   3.508   1.919   2.420  0.5398  0.2533  0.8387
12965TIP3    H260311   3.404   1.827   2.479  0.2177 -0.0746 -0.2104
12966TIP3   OH260312   1.797   5.196   0.401  0.4250  0.7635 -0.0986
12966TIP3    H160313   1.881   5.157   0.428 -0.1943 -0.4387  0.1646
12966TIP3    H260314   1.796   5.281   0.444  0.6219 -0.0433  1.6168
12967TIP3   OH260315   3.782   0.999  16.380  0.6283 -0.4232  0.5987
12967TIP3    H160316   3.761   0.970  16.292 -0.7162  1.7783  0.1221
12967TIP3    H260317   3.707   0.972  16.433  1.0366 -0.9803  0.9047
12968TIP3   OH260318   4.764   2.331  12.557 -0.4913 -0.2102 -0.0742
12968TIP3    H160319   4.825   2.280  12.612  2.1965  1.7798 -1.0220
12968TIP3    H260320   4.775   2.294  12.469 -1.4166 -0.4616 -0.0891
12969TIP3   OH260321   2.716   3.135   5.977  0.2114  0.4413  0.2869
12969TIP3    H160322   2.766   3.070   6.026  0.2630  0.6981  0.5832
12969TIP3    H260323   2.719   3.105   5.886  0.1437 -0.0233  0.4355
12970TIP3   OH260324   2.914   0.407  15.258 -0.9450 -0.0551 -0.3503
12970TIP3    H160325   2.896   0.482  15.201  0.9293 -0.1994 -1.2225
12970TIP3    H260326   3.003   0.422  15.289 -0.9680 -1.3476  0.3968
12971TIP3   OH260327   1.962   4.557   3.294  0.1972 -0.2317  0.0290
12971TIP3    H160328   2.016   4.548   3.215  0.5557 -3.3782  0.4996
12971TIP3    H260329   2.021   4.534   3.365 -0.2148  2.2389  1.2878
12972TIP3   OH260330   5.015   0.416   4.887  0.0336 -0.1728 -0.4073
12972TIP3    H160331   4.951   0.409   4.958  0.8544  1.0940  0.5043
12972TIP3    H260332   5.017   0.329   4.848 -0.2357 -0.9981  1.3146
12973TIP3   OH260333   1.371   3.481  11.655 -1.2068  0.2766  0.4666
12973TIP3    H160334   1.320   3.504  11.732  0.2603  1.3092  1.1650
12973TIP3    H260335   1.436   3.550  11.647  1.0909 -1.7318  0.5409
12974TIP3   OH260336   6.256   1.679   2.040  0.4766 -0.4269  0.0996
12974TIP3    H160337   6.284   1.743   2.105  1.2446 -0.1450 -0.4830
12974TIP3    H260338   6.169   1.709   2.012 -0.0844 -0.8364  1.3376
12975TIP3   OH260339   4.154   1.874  15.683  0.4148  0.7810  0.2586
12975TIP3    H160340   4.246   1.852  15.700 -0.1349 -0.8848  1.3552
12975TIP3    H260341   4.106   1.794  15.705 -1.2703  1.4925 -0.6708
12976TIP3   OH260342   3.239   2.338  16.057  0.4859  0.1155 -0.5076
12976TIP3    H160343   3.202   2.311  15.974  0.4417 -0.4375 -0.3168
12976TIP3    H260344   3.313   2.394  16.034  1.1435 -0.8940 -0.9586
12977TIP3   OH260345   6.307   5.620   5.148  0.4474 -0.3232  1.2068
12977TIP3    H160346   6.302   5.643   5.055  0.4669  1.3752  1.5882
12977TIP3    H260347   6.353   5.536   5.149 -0.2184 -0.7505 -0.3537
12978TIP3   OH260348   0.277   6.423   1.648 -0.6398  0.0069 -0.4477
12978TIP3    H160349   0.223   6.360   1.696 -0.5240 -1.0479 -1.6592
12978TIP3    H260350   0.219   6.497   1.631 -1.2661 -0.4828 -0.4521
12979TIP3   OH260351   4.162   5.040   6.386 -0.0578 -0.0823  0.5548
12979TIP3    H160352   4.190   5.096   6.458 -1.4766  1.8433 -0.2884
12979TIP3    H260353   4.080   5.080   6.355 -0.0634 -1.4637 -1.4225
12980TIP3   OH260354   4.403   4.526   1.031  0.1207 -0.1744 -0.1171
12980TIP3    H160355   4.356   4.596   1.077  0.9255  1.1461 -1.2040
12980TIP3    H260356   4.491   4.561   1.018  0.4815 -1.3059 -0.9051
12981TIP3   OH260357   4.244   3.341   5.931  0.1400  0.1658 -0.7661
12981TIP3    H160358   4.234   3.246   5.921  0.3908  0.0784 -0.2655
12981TIP3    H260359   4.291   3.351   6.014 -1.2318  0.7910 -0.0272
12982TIP3   OH260360   4.967   1.389   1.642  0.1181 -0.3720  0.0013
12982TIP3    H160361   5.038   1.329   1.620  1.0508 -0.0084  1.8213
12982TIP3    H260362   4.897   1.332   1.675  0.3667 -0.5855  0.1637
12983TIP3   OH260363   1.536   3.459  16.549 -0.1677 -0.3760 -0.2075
12983TIP3    H160364   1.507   3.474  16.459 -2.2179 -2.8138 -0.0701
12983TIP3    H260365   1.599   3.387  16.542  1.5343  1.0305  0.1167
12984TIP3   OH260366   5.880   5.075   1.856 -0.1822  0.1755  0.0300
12984TIP3    H160367   5.790   5.053   1.877 -0.5259  0.0955 -1.4091
12984TIP3    H260368   5.907   5.137   1.924 -0.9657 -0.5792  1.0586
12985TIP3   OH260369   4.967   5.715  15.398 -0.0241 -0.2723  0.0137
12985TIP3    H160370   4.972   5.649  15.467 -0.9131  0.1256  0.4781
12985TIP3    H260371   4.959   5.798  15.444 -0.0129  0.0599 -0.5660
12986TIP3   OH260372   2.988   2.487   0.720 -0.2941 -0.6908  0.2536
12986TIP3    H160373   3.073   2.532   0.713 -0.6235 -0.0515  0.3215
12986TIP3    H260374   2.931   2.536   0.661 -0.3550 -1.7622 -0.6102
12987TIP3   OH260375   6.285   3.798   5.660 -0.5161 -0.4050 -0.6426
12987TIP3    H160376   6.230   3.859   5.611  0.5803  1.0191 -0.1971
12987TIP3    H260377   6.233   3.774   5.736 -0.6398  0.7304 -0.3498
12988TIP3   OH260378   4.824   5.529  12.124  0.1475  0.1964  0.5378
12988TIP3    H160379   4.868   5.445  12.134 -0.1195 -0.3029 -1.8701
12988TIP3    H260380   4.868   5.571  12.051  0.1369  2.1044  1.5507
12989TIP3   OH260381   0.994   1.203   2.763  0.5091  0.2263 -0.6117
12989TIP3    H160382   0.902   1.206   2.737  0.0500 -1.8759  0.5694
12989TIP3    H260383   0.998   1.249   2.846 -0.1709 -2.3842  0.9681
12990TIP3   OH260384   0.806   1.553   4.389  0.3412  0.3071  0.5910
12990TIP3    H160385   0.789   1.594   4.474  0.3524  1.0887  0.2272
12990TIP3    H260386   0.900   1.538   4.387  0.0291 -2.2926  1.8418
12991TIP3   OH260387   4.210   5.148  15.998  0.3935  0.7985 -0.4667
12991TIP3    H160388   4.180   5.092  16.069 -2.2421  0.6018 -1.5924
12991TIP3    H260389   4.242   5.087  15.931  1.5004  0.9014 -0.0411
12992TIP3   OH260390   2.410   6.456  15.136  0.6287 -0.1696 -0.0896
12992TIP3    H160391   2.373   6.542  15.158  0.5947 -0.4805  1.0971
12992TIP3    H260392   2.408   6.454  15.040  0.9098  1.2724 -0.1452
12993TIP3   OH260393   5.172   5.656  14.669  0.5753  0.1219  0.4927
12993TIP3    H160394   5.098   5.649  14.729  0.8491  0.5684  0.8831
12993TIP3    H260395   5.249   5.641  14.723  0.7715 -0.4613  0.0657
12994TIP3   OH260396   1.517   5.335   5.744  0.5863  0.1382 -0.4317
12994TIP3    H160397   1.598   5.363   5.786 -0.4762  1.7276  0.6436
12994TIP3    H260398   1.524   5.239   5.740  2.0652  0.1777  0.5450
12995TIP3   OH260399   5.092   4.738  13.383 -0.4710  0.6922 -0.3583
12995TIP3    H160400   5.133   4.704  13.304 -0.8255  0.7564 -0.5734
12995TIP3    H260401   5.146   4.813  13.409 -1.0423  1.4353 -1.2444
12996TIP3   OH260402   0.928   3.479   1.860  0.6373 -0.4498 -0.2709
12996TIP3    H160403   0.988   3.451   1.930 -0.5671 -0.0847  0.9491
12996TIP3    H260404   0.902   3.568   1.885 -0.4903 -0.6458 -0.7166
12997TIP3   OH260405   1.675   1.585  14.625 -0.5388  0.9203 -0.5600
12997TIP3    H160406   1.731   1.513  14.597 -1.6743 -1.6974  3.1601
12997TIP3    H260407   1.727   1.630  14.692 -1.4555  0.8154  0.2348
12998TIP3   OH260408   5.797   5.574  12.150 -0.2166  0.0244  0.5524
12998TIP3    H160409   5.784   5.632  12.225 -0.3278  1.1794 -0.3504
12998TIP3    H260410   5.803   5.632  12.074  0.9964 -1.0517 -0.2198
12999TIP3   OH260411   0.462   6.332   3.758 -0.3091  0.1534 -0.2719
12999TIP3    H160412   0.373   6.297   3.751  0.0091 -0.9162  0.7378
12999TIP3    H260413   0.458   6.392   3.833  0.2247 -1.3044  0.9653
13000TIP3   OH260414   0.962   2.899   2.785  0.5051 -0.0805 -0.6753
13000TIP3    H160415   0.934   2.906   2.694 -1.1160 -1.7866 -0.3558
13000TIP3    H260416   1.058   2.898   2.781  0.4713  0.3411 -2.2922
13001TIP3   OH260417   5.157   2.039   4.138 -0.7157  0.2823  0.1147
13001TIP3    H160418   5.086   1.982   4.170  0.5209 -1.3426  0.0830
13001TIP3    H260419   5.198   2.072   4.217 -0.8257  0.3415  0.1473
13002TIP3   OH260420   4.465   3.443   6.110  0.2015  0.4557  0.1162
13002TIP3    H160421   4.517   3.363   6.110 -1.3818 -0.6592  1.3758
13002TIP3    H260422   4.471   3.476   6.200 -0.3077  0.9593 -0.0266
13003TIP3   OH260423   1.814   3.908  12.756  0.0978  0.0005 -0.3469
13003TIP3    H160424   1.776   3.960  12.827 -0.7712 -1.2827  0.1747
13003TIP3    H260425   1.887   3.960  12.724  0.1449  0.8740  1.1059
13004TIP3   OH260426   1.707   3.519   4.663 -0.4556 -0.7134 -0.1074
13004TIP3    H160427   1.742   3.566   4.587 -1.0249 -0.8640 -0.4651
13004TIP3    H260428   1.773   3.452   4.682  2.2018  2.2411  2.5440
13005TIP3   OH260429   2.511   1.233   4.313  0.1369  0.0983 -0.0176
13005TIP3    H160430   2.503   1.189   4.398  1.9595 -1.9793 -0.7993
13005TIP3    H260431   2.491   1.324   4.331 -0.4752 -0.4399  2.4555
13006TIP3   OH260432   6.387   3.296  15.658  0.1837 -0.0207  0.0366
13006TIP3    H160433   6.427   3.273  15.574  2.8010  0.6678  1.0231
13006TIP3    H260434   6.418   3.229  15.719  0.3995  0.9029  0.9796
13007TIP3   OH260435   2.596   0.498  17.407 -0.4918 -0.0387  0.1705
13007TIP3    H160436   2.544   0.455  17.340 -0.9943  2.6337 -1.3087
13007TIP3    H260437   2.672   0.533  17.360  0.5385 -0.3278  1.5293
13008TIP3   OH260438   6.497   0.841  14.044 -0.0770 -0.0297 -0.0134
13008TIP3    H160439   6.545   0.760  14.022  2.3029  0.7079  1.9973
13008TIP3    H260440   6.542   0.909  13.994  1.7465  0.8128  2.5872
13009TIP3   OH260441   3.606   1.776  14.525  0.0634  0.2871 -0.1016
13009TIP3    H160442   3.540   1.777  14.456 -0.6841  1.7380  0.5906
13009TIP3    H260443   3.615   1.868  14.550  1.1172 -0.0950  0.9865
13010TIP3   OH260444   5.888   0.384   4.937  0.3341 -0.1906 -0.2650
13010TIP3    H160445   5.905   0.430   4.854  0.6431  0.8975  0.3880
13010TIP3    H260446   5.800   0.349   4.927 -1.1247  3.0031  0.2762
13011TIP3   OH260447   3.254   1.338   0.804  0.7287  0.1893 -0.5290
13011TIP3    H160448   3.253   1.353   0.709  0.4462 -2.0484 -0.9332
13011TIP3    H260449   3.320   1.269   0.817 -1.1278 -1.5007  0.5134
13012TIP3   OH260450   4.113   2.546  16.196 -0.2669  0.1261 -0.2633
13012TIP3    H160451   4.192   2.592  16.225 -0.3978 -0.2335  0.6845
13012TIP3    H260452   4.086   2.495  16.272 -0.7248 -0.6997 -0.9699
13013TIP3   OH260453   0.075   2.300   2.352  0.5761  0.3967  0.1739
13013TIP3    H160454   0.072   2.205   2.363  3.5379  0.1267 -0.3885
13013TIP3    H260455   0.080   2.313   2.257 -1.1287  1.2513  0.1648
13014TIP3   OH260456   1.493   3.892   2.202  0.5948 -0.4575  0.2194
13014TIP3    H160457   1.578   3.892   2.245  0.4416 -0.3692  0.5249
13014TIP3    H260458   1.434   3.935   2.264  0.2911 -0.6662  0.0825
13015TIP3   OH260459   2.897   1.005   0.181 -0.2726 -0.3025 -0.0861
13015TIP3    H160460   2.892   1.032   0.273 -1.5381 -0.0916 -0.1968
13015TIP3    H260461   2.850   0.922   0.178 -0.7332 -0.0275 -0.6356
13016TIP3   OH260462   0.586   0.677  16.232  0.2088  0.2762 -0.0232
13016TIP3    H160463   0.571   0.583  16.215  0.2186  0.3764 -0.6279
13016TIP3    H260464   0.506   0.719  16.202  0.8374  0.6115 -1.2886
13017TIP3   OH260465   0.690   5.530  11.445  0.2327 -0.4525 -0.4840
13017TIP3    H160466   0.640   5.564  11.519  1.7683  0.1279  0.3228
13017TIP3    H260467   0.645   5.565  11.368  1.1761  2.7334  0.2788
13018TIP3   OH260468   0.775   4.593  13.116  0.9520 -0.1295 -0.3664
13018TIP3    H160469   0.809   4.643  13.191 -0.9485  0.1581  0.3664
13018TIP3    H260470   0.826   4.512  13.116  2.6285  0.8812 -0.2610
13019TIP3   OH260471   1.376   3.570  12.797 -0.6452  0.1495 -0.1263
13019TIP3    H160472   1.354   3.633  12.865  0.7958 -1.4516  1.9263
13019TIP3    H260473   1.330   3.490  12.823  1.7699 -1.1678  0.3414
13020TIP3   OH260474   6.651   4.153  16.186  0.1317 -0.8206  0.1392
13020TIP3    H160475   6.681   4.131  16.275 -0.6748 -1.2159  0.3252
13020TIP3    H260476   6.614   4.071  16.153  2.0172 -1.1723 -1.2557
13021TIP3   OH260477   5.966   3.807   4.871  0.1111  0.1751  0.3901
13021TIP3    H160478   5.899   3.876   4.871 -1.1684 -0.7210 -4.1652
13021TIP3    H260479   6.049   3.854   4.879 -0.8231  2.0528 -0.2982
13022TIP3   OH260480   4.758   4.107   4.481  0.5263  0.5954  0.5264
13022TIP3    H160481   4.854   4.101   4.478  0.6232  1.5166  1.1819
13022TIP3    H260482   4.739   4.197   4.455 -0.4220 -0.5153 -3.1731
13023TIP3   OH260483   0.011   5.970   2.908 -0.7088 -0.1231 -0.4457
13023TIP3    H160484   0.032   5.956   2.816  0.7201 -0.9018 -0.0325
13023TIP3    H260485   0.045   5.892   2.952  1.6704  1.7046  1.1779
13024TIP3   OH260486   2.635   0.683  13.090  0.1538  0.5502 -0.1309
13024TIP3    H160487   2.553   0.707  13.046  0.3086  2.0371  0.3368
13024TIP3    H260488   2.702   0.736  13.046  1.0448 -1.2649 -1.0825
13025TIP3   OH260489   6.672   0.094  12.890  0.0023 -0.0776 -0.0055
13025TIP3    H160490   6.695   0.009  12.851  2.0222  0.7804 -0.8164
13025TIP3    H260491   6.614   0.135  12.825  0.6977  0.0016 -0.5850
13026TIP3   OH260492   3.868   0.742   2.024  0.4735  0.1370  0.1926
13026TIP3    H160493   3.894   0.687   2.098 -1.1943 -1.1247 -0.0975
13026TIP3    H260494   3.795   0.695   1.985 -1.1466  2.6516  0.0101
13027TIP3   OH260495   6.446   5.581   3.194 -0.4449  0.1880  0.0228
13027TIP3    H160496   6.379   5.650   3.199  0.0426  0.7213 -0.5298
13027TIP3    H260497   6.444   5.553   3.103  1.3895  1.5818 -0.5067
13028TIP3   OH260498   3.848   2.101   0.083  0.0823 -0.0879 -0.8202
13028TIP3    H160499   3.909   2.040   0.124  0.2619 -0.7123 -1.9782
13028TIP3    H260500   3.792   2.047   0.027 -1.1790  0.5487 -0.2202
13029TIP3   OH260501   0.084   4.307   0.164 -0.2650  0.0436  0.2578
13029TIP3    H160502   0.011   4.285   0.106  0.5813 -1.6982 -0.2112
13029TIP3    H260503   0.111   4.394   0.135 -0.2492 -0.5291 -1.5889
13030TIP3   OH260504   0.390   1.261   3.103 -0.3925 -0.9601  0.1131
13030TIP3    H160505   0.414   1.173   3.133 -0.9612 -2.0599 -2.3465
13030TIP3    H260506   0.317   1.246   3.043  2.2578  0.5571 -3.8950
13031TIP3   OH260507   3.968   4.296   3.430  0.1626  0.3809 -0.0344
13031TIP3    H160508   3.949   4.377   3.478  0.3351 -0.4751  1.5271
13031TIP3    H260509   4.063   4.298   3.417  0.1825  0.3788  0.1035
13032TIP3   OH260510   0.544   6.633  13.397  0.1105 -0.1459  0.1675
13032TIP3    H160511   0.622   6.596  13.438 -0.0371 -0.4529  0.1737
13032TIP3    H260512   0.536   6.586  13.314  1.4443  1.7287 -1.0843
13033TIP3   OH260513   2.524   1.999  14.018 -0.2049  0.2936 -0.1408
13033TIP3    H160514   2.524   2.054  14.097  0.6697  0.5934 -0.3439
13033TIP3    H260515   2.574   2.049  13.954  2.3665 -1.5474  0.2506
13034TIP3   OH260516   4.334   5.943   3.968 -0.1209  0.1178  0.2001
13034TIP3    H160517   4.409   5.980   3.923  0.7886 -0.0416  1.5263
13034TIP3    H260518   4.300   6.015   4.021  0.4888 -0.3923  1.3192
13035TIP3   OH260519   4.423   3.469  12.595  0.0923 -0.0953  0.3683
13035TIP3    H160520   4.395   3.558  12.619  0.4372 -0.3297  1.7052
13035TIP3    H260521   4.341   3.424  12.573 -0.1597  0.3648  0.3449
13036TIP3   OH260522   2.379   4.993   0.147 -0.3776  0.3896 -0.5275
13036TIP3    H160523   2.318   5.002   0.073 -0.8980 -0.1177 -0.1747
13036TIP3    H260524   2.466   4.992   0.107 -0.6613  0.0096 -1.1436
13037TIP3   OH260525   5.352   4.616   3.876  0.3639 -0.3080  0.2232
13037TIP3    H160526   5.274   4.592   3.827 -0.0801  1.7597 -0.1941
13037TIP3    H260527   5.371   4.706   3.848  2.1290 -0.2979  1.2863
13038TIP3   OH260528   4.996   0.661   0.314 -0.4395  0.2024  0.0659
13038TIP3    H160529   5.074   0.700   0.274 -0.8470  3.3671  1.9654
13038TIP3    H260530   4.924   0.719   0.287 -1.3693 -0.0673  1.8161
13039TIP3   OH260531   3.510   4.347  11.317 -0.8158  0.4385 -1.0149
13039TIP3    H160532   3.502   4.357  11.222  0.1119  0.9928 -1.0451
13039TIP3    H260533   3.599   4.312  11.330 -0.2583  2.0299 -0.2617
13040TIP3   OH260534   5.448   5.672  13.483  0.4264 -0.3511 -0.3269
13040TIP3    H160535   5.493   5.727  13.548 -0.6993 -1.3472  1.3602
13040TIP3    H260536   5.469   5.714  13.399  1.1994  1.5203  0.7178
13041TIP3   OH260537   0.013   3.375  15.389  0.2151 -0.2137  0.6396
13041TIP3    H160538  -0.020   3.377  15.480  1.8549  0.8707  1.2636
13041TIP3    H260539  -0.003   3.286  15.359 -0.4328 -0.5743  1.9764
13042TIP3   OH260540   6.717   6.036   0.921  0.4032  0.0168  0.2491
13042TIP3    H160541   6.802   6.000   0.947  0.7430  1.3329  1.0506
13042TIP3    H260542   6.679   6.069   1.002 -2.0008 -2.6891  0.3531
13043TIP3   OH260543   4.331   3.271  14.974  0.0859  0.3512 -0.1261
13043TIP3    H160544   4.330   3.178  14.952  0.4493  0.1861  0.5142
13043TIP3    H260545   4.299   3.275  15.064  2.9728  0.4718  1.0194
13044TIP3   OH260546   0.660   2.121  10.616 -0.0589  0.3734  0.6000
13044TIP3    H160547   0.565   2.134  10.612 -0.3388 -1.2737  1.2624
13044TIP3    H260548   0.683   2.139  10.708  0.3860  1.3293  0.3202
13045TIP3   OH260549   5.964   1.726  10.701  0.2811  0.1703  0.0633
13045TIP3    H160550   6.048   1.694  10.668  0.6626  0.0122  1.1619
13045TIP3    H260551   5.918   1.648  10.731  0.1904  0.3748  0.4647
13046TIP3   OH260552   0.248   2.394  13.470 -0.0528 -0.0569 -0.3897
13046TIP3    H160553   0.153   2.387  13.473 -0.1894  1.4411  1.7787
13046TIP3    H260554   0.278   2.345  13.547  0.9605 -0.7469 -1.2061
13047TIP3   OH260555   0.618   2.182   1.364 -0.1884 -0.0233  0.6174
13047TIP3    H160556   0.555   2.134   1.418 -0.1451  1.1314  1.7516
13047TIP3    H260557   0.696   2.189   1.420  0.8889 -1.1881 -0.6533
13048TIP3   OH260558   5.356   3.334  15.393 -0.5533 -0.5928  0.2534
13048TIP3    H160559   5.375   3.251  15.437  1.2081 -0.2585  0.1849
13048TIP3    H260560   5.404   3.329  15.310 -2.2565 -0.4074 -0.7921
13049TIP3   OH260561   6.003   0.981   1.950  0.4681  0.2044  0.1513
13049TIP3    H160562   5.922   1.014   1.990  1.6245  1.5182  1.5384
13049TIP3    H260563   6.060   1.058   1.945  1.6688 -0.6985 -0.7721
13050TIP3   OH260564   0.840   2.226  15.799 -0.3291  0.3105  0.3910
13050TIP3    H160565   0.793   2.145  15.817 -0.8374 -0.0095 -2.0470
13050TIP3    H260566   0.897   2.238  15.876 -0.9697 -1.7946  1.2694
13051TIP3   OH260567   2.759   0.807   3.542  0.7939  0.0604 -0.0008
13051TIP3    H160568   2.837   0.846   3.580  1.1943 -1.7164  1.1212
13051TIP3    H260569   2.760   0.716   3.573 -0.9292 -0.4094 -1.1715
13052TIP3   OH260570   4.503   0.649   0.125  0.7151 -0.2514 -0.4399
13052TIP3    H160571   4.476   0.562   0.154  0.1084 -0.0377 -0.3362
13052TIP3    H260572   4.423   0.702   0.131  1.5283  0.9010  1.6946
13053TIP3   OH260573   6.588   6.315  14.313 -0.3121  0.0269 -0.0250
13053TIP3    H160574   6.595   6.295  14.220  0.3561  3.5234 -0.8519
13053TIP3    H260575   6.504   6.277  14.340 -1.5563  0.7373 -2.6018
13054TIP3   OH260576   3.395   4.766   5.026  0.3911 -0.2599 -0.1978
13054TIP3    H160577   3.361   4.701   5.088 -0.9475 -1.3046 -1.9512
13054TIP3    H260578   3.468   4.722   4.982  0.5563  0.0347 -0.2210
13055TIP3   OH260579   1.420   4.780   0.578  0.3633 -0.4750 -0.1762
13055TIP3    H160580   1.436   4.693   0.541  2.0606 -0.2088 -0.1662
13055TIP3    H260581   1.325   4.791   0.574  0.1679 -2.0791 -0.7284
13056TIP3   OH260582   4.042   0.734   2.987 -0.0269  0.6800  0.0836
13056TIP3    H160583   4.074   0.732   2.896  0.1201  0.4984  0.1404
13056TIP3    H260584   3.947   0.735   2.978 -0.0917 -1.7451 -0.0508
13057TIP3   OH260585   2.886   6.726   3.903  0.2425  0.3035 -0.6128
13057TIP3    H160586   2.913   6.642   3.865  3.3226  1.2574 -0.7689
13057TIP3    H260587   2.897   6.715   3.997 -2.6213 -0.4490 -0.2663
13058TIP3   OH260588   3.008   0.231  15.581  0.2010 -0.0378  0.0696
13058TIP3    H160589   3.030   0.199  15.669  0.2696 -0.3268 -0.0524
13058TIP3    H260590   3.090   0.266  15.547  0.6494 -1.7189 -0.6446
13059TIP3   OH260591   1.960   6.174  15.632  0.3555  0.1374  0.3612
13059TIP3    H160592   1.972   6.147  15.723 -0.5703  0.1387  0.4933
13059TIP3    H260593   1.949   6.269  15.637 -2.5617 -0.1294  0.6027
13060TIP3   OH260594   2.085   3.152   5.276  0.2524  0.0416  0.1486
13060TIP3    H160595   2.058   3.060   5.280  1.8160 -0.5902 -2.2214
13060TIP3    H260596   2.135   3.166   5.357  1.3110 -1.6664 -0.1597
13061TIP3   OH260597   5.760   0.633  13.990  0.0477 -0.8315 -0.1281
13061TIP3    H160598   5.779   0.664  14.078 -1.7017  1.3582 -0.4365
13061TIP3    H260599   5.799   0.699  13.932 -0.5699 -1.1625 -0.9437
13062TIP3   OH260600   2.567   0.053   0.856 -0.6387 -0.8867 -0.1661
13062TIP3    H160601   2.579   0.096   0.941 -1.1766 -0.4128 -0.3229
13062TIP3    H260602   2.490  -0.003   0.869  0.5124 -2.4645  0.2800
13063TIP3   OH260603   4.412   1.666  12.358  0.0111 -0.2372  0.2076
13063TIP3    H160604   4.345   1.606  12.325  0.0760 -0.6534  0.8141
13063TIP3    H260605   4.398   1.747  12.309 -1.0519 -0.2642  0.4522
13064TIP3   OH260606   3.819   0.097   3.135  0.2479 -0.2699 -0.0055
13064TIP3    H160607   3.780   0.048   3.063 -1.2168 -0.0074  0.5869
13064TIP3    H260608   3.826   0.033   3.206  3.8666 -1.1973 -0.9899
13065TIP3   OH260609   4.333   2.637  15.792  0.6578 -0.5280 -0.6293
13065TIP3    H160610   4.279   2.584  15.851  2.4117  0.6293  2.2267
13065TIP3    H260611   4.287   2.721  15.786  0.8996 -0.3594 -0.1774
13066TIP3   OH260612   4.235   3.229   3.015 -0.1885  0.3467 -0.1097
13066TIP3    H160613   4.232   3.193   3.104  1.7768  0.4838  0.0662
13066TIP3    H260614   4.146   3.257   2.997 -0.8991 -0.8528  1.3304
13067TIP3   OH260615   5.296   6.012   3.443  0.4045 -0.2132  0.1159
13067TIP3    H160616   5.225   6.011   3.379  1.6206  0.2771 -1.2906
13067TIP3    H260617   5.365   6.064   3.402  0.7613  1.2444  2.3585
13068TIP3   OH260618   5.347   0.564  13.014  0.0879  0.4693  0.4729
13068TIP3    H160619   5.256   0.572  12.987  0.6664  1.7488 -1.2933
13068TIP3    H260620   5.358   0.630  13.082 -0.2482  0.4446  0.5541
13069TIP3   OH260621   5.316   5.098   0.245 -0.3388  0.5990  0.1230
13069TIP3    H160622   5.334   5.129   0.333 -1.4148  2.2296 -0.1819
13069TIP3    H260623   5.247   5.156   0.213  1.3451  1.3672 -2.4901
13070TIP3   OH260624   2.101   0.974  12.102 -0.7392 -0.0304 -0.2129
13070TIP3    H160625   2.030   0.964  12.166  0.6673 -0.9326  1.2743
13070TIP3    H260626   2.168   0.912  12.131  0.5467  0.5896 -1.7439
13071TIP3   OH260627   1.275   1.588   4.156 -0.0701 -0.4053  0.2205
13071TIP3    H160628   1.194   1.624   4.120 -1.0293 -2.7037 -0.0570
13071TIP3    H260629   1.283   1.627   4.243 -2.7379 -1.8453  1.2052
13072TIP3   OH260630   1.317   5.494  16.207  0.3322 -0.3829 -0.1160
13072TIP3    H160631   1.310   5.576  16.256 -0.5881  0.9582 -2.3436
13072TIP3    H260632   1.226   5.470  16.188  0.6586 -0.2676 -2.0024
13073TIP3   OH260633   0.382   4.254   0.981  0.0599 -0.2480 -0.0879
13073TIP3    H160634   0.374   4.244   0.886  1.1586  0.2004 -0.2357
13073TIP3    H260635   0.462   4.206   1.004 -0.0930 -0.1895  0.5906
13074TIP3   OH260636   0.234   5.901   5.504 -1.0119  0.0196 -0.4628
13074TIP3    H160637   0.208   5.813   5.478 -2.8372 -0.1312  1.5943
13074TIP3    H260638   0.294   5.888   5.577 -1.1664  0.4568 -0.2496
13075TIP3   OH260639   5.444   4.155   1.618  0.3106 -0.0308 -1.0313
13075TIP3    H160640   5.380   4.162   1.690  0.3321 -1.3499 -0.8745
13075TIP3    H260641   5.528   4.173   1.660  0.2924 -0.5185 -0.7875
13076TIP3   OH260642   4.398   5.100  13.062  0.3028  0.5490 -0.3622
13076TIP3    H160643   4.307   5.104  13.090  1.0331  1.2803  2.1963
13076TIP3    H260644   4.444   5.056  13.134  2.1986  1.5895 -0.8579
13077TIP3   OH260645   6.095   2.809   1.527 -0.3026  0.0016 -0.1724
13077TIP3    H160646   6.134   2.734   1.572  2.4699  1.7827  0.6378
13077TIP3    H260647   6.001   2.802   1.545  0.1183 -2.1259  1.5878
13078TIP3   OH260648   2.891   3.121  13.008  0.4984  0.2662  0.2742
13078TIP3    H160649   2.943   3.059  12.957  0.6250 -0.3876  1.1681
13078TIP3    H260650   2.895   3.202  12.959  2.2065  0.1813  0.2130
13079TIP3   OH260651   5.794   3.812  14.323 -0.2103  0.1519 -0.6726
13079TIP3    H160652   5.811   3.765  14.241  0.0577  1.0913 -1.1725
13079TIP3    H260653   5.881   3.837  14.354 -0.2535 -0.8392  0.3062
13080TIP3   OH260654   4.329   4.480   3.588  0.7044  0.5820 -0.3741
13080TIP3    H160655   4.306   4.518   3.673 -1.6539 -1.2834 -0.0516
13080TIP3    H260656   4.403   4.423   3.606 -0.5756 -0.8047  0.8088
13081TIP3   OH260657   4.732   0.666  13.256 -0.4007  0.2868  0.0433
13081TIP3    H160658   4.661   0.694  13.198  1.1116 -0.2237 -2.2074
13081TIP3    H260659   4.794   0.738  13.254 -0.6479  0.5840  1.7200
13082TIP3   OH260660   6.618   0.390   2.864 -0.0220 -0.1365  0.0036
13082TIP3    H160661   6.626   0.346   2.779 -0.0672  0.0107 -0.0767
13082TIP3    H260662   6.669   0.470   2.855 -1.2093  0.6017 -0.3770
13083TIP3   OH260663   2.866   4.442   0.753  0.3230  0.1093  0.1967
13083TIP3    H160664   2.959   4.421   0.761  0.2325 -0.8690 -0.9803
13083TIP3    H260665   2.863   4.531   0.718  0.7851  0.6062  1.3874
13084TIP3   OH260666   2.092   2.269  16.236 -0.1865  0.3065 -0.1764
13084TIP3    H160667   2.183   2.264  16.267  0.2808  0.4295 -1.4602
13084TIP3    H260668   2.053   2.339  16.288  1.0735  1.6895 -1.0018
13085TIP3   OH260669   5.139   5.410  16.763 -0.0452  0.4673 -0.0818
13085TIP3    H160670   5.155   5.499  16.793  0.4937  0.7241 -1.0957
13085TIP3    H260671   5.050   5.412  16.728 -0.2942  0.4207  0.5309
13086TIP3   OH260672   4.765   4.379  13.327 -0.4692 -0.0654 -0.7401
13086TIP3    H160673   4.715   4.303  13.358  1.4008 -0.4746  1.5567
13086TIP3    H260674   4.808   4.347  13.247  0.5593 -1.6275  0.3671
13087TIP3   OH260675   5.759   6.211   3.851  0.0779  0.0984 -0.2190
13087TIP3    H160676   5.783   6.274   3.783 -1.5021  0.3532 -0.5819
13087TIP3    H260677   5.688   6.160   3.812 -0.7155  0.1066  1.1677
13088TIP3   OH260678   0.375   0.022  17.129 -0.1302 -0.3724 -0.0902
13088TIP3    H160679   0.287   0.059  17.121 -0.4052 -1.0434 -0.1951
13088TIP3    H260680   0.372  -0.030  17.209  0.1099 -0.5666 -0.2059
13089TIP3   OH260681   2.645   2.426   4.654  0.3615  0.0192  0.1424
13089TIP3    H160682   2.578   2.385   4.709 -1.1261  1.2241 -0.6884
13089TIP3    H260683   2.702   2.472   4.715  0.3485 -0.8867  0.8532
13090TIP3   OH260684   1.625   3.248   2.103  0.0857  0.0123 -0.4115
13090TIP3    H160685   1.601   3.161   2.136 -1.6296  0.6269  0.0715
13090TIP3    H260686   1.670   3.289   2.176  0.2011 -0.1841 -0.3701
13091TIP3   OH260687   6.713   0.925   4.588  0.1255  0.3793  0.3555
13091TIP3    H160688   6.793   0.884   4.622  1.4443  1.7711 -0.8896
13091TIP3    H260689   6.664   0.854   4.548  1.3828 -0.3221  0.0017
13092TIP3   OH260690   0.183   1.923   1.279  0.6965 -0.0337 -0.0334
13092TIP3    H160691   0.216   1.998   1.329  1.1023  0.1894 -0.6208
13092TIP3    H260692   0.149   1.962   1.199  1.4560 -0.5336 -0.6061
13093TIP3   OH260693   1.006   5.312   0.673  0.8241 -0.5810  0.4712
13093TIP3    H160694   1.077   5.247   0.678  4.5320  2.4395 -4.2184
13093TIP3    H260695   0.952   5.282   0.600  0.6263 -0.1015  0.4210
13094TIP3   OH260696   1.670   2.248   2.064  0.0013  0.6081 -0.0615
13094TIP3    H160697   1.668   2.246   2.160  1.5207  1.7659  0.0339
13094TIP3    H260698   1.675   2.156   2.038  0.4593  0.3129  1.0140
13095TIP3   OH260699   5.408   3.418  17.478  0.3044  0.4919  0.1648
13095TIP3    H160700   5.497   3.447  17.460  0.0898  0.6723 -0.6463
13095TIP3    H260701   5.375   3.481  17.543  0.6474  0.6245  0.2136
13096TIP3   OH260702   2.702   4.416  13.186  0.0529 -0.0589  0.4425
13096TIP3    H160703   2.771   4.453  13.241 -0.4318  1.0980  0.2995
13096TIP3    H260704   2.737   4.420  13.097  0.0836 -0.1481  0.4509
13097TIP3   OH260705   1.352   5.468   5.279  0.2593  0.0144  0.3025
13097TIP3    H160706   1.309   5.431   5.356  0.8529  0.2014  0.7322
13097TIP3    H260707   1.388   5.552   5.310 -0.6490  0.7351 -0.5257
13098TIP3   OH260708   1.625   0.626   6.246  0.2738 -0.7225 -0.1517
13098TIP3    H160709   1.630   0.680   6.325  2.1753 -0.7576 -0.2079
13098TIP3    H260710   1.704   0.573   6.249 -1.3349 -3.3097 -0.2716
13099TIP3   OH260711   1.941   1.191   3.194 -0.2104 -0.3309 -0.3207
13099TIP3    H160712   1.919   1.221   3.106  0.3598 -1.0174 -0.7139
13099TIP3    H260713   1.944   1.270   3.247  1.2318  0.3264 -1.3198
13100TIP3   OH260714   5.439   5.500   0.484 -0.0208 -0.1558  0.7701
13100TIP3    H160715   5.398   5.455   0.411 -0.2412  0.4391  0.5191
13100TIP3    H260716   5.387   5.580   0.495  1.3560  0.8884  0.1004
13101TIP3   OH260717   1.484   1.671   5.794  0.3865 -0.0070 -0.3082
13101TIP3    H160718   1.525   1.588   5.819 -0.5155 -0.1409  0.7886
13101TIP3    H260719   1.390   1.656   5.806  0.3052  1.6657  1.4853
13102TIP3   OH260720   0.312   0.730  13.135 -0.3659 -0.3011 -0.3128
13102TIP3    H160721   0.296   0.751  13.227 -0.1437 -0.0775 -0.3237
13102TIP3    H260722   0.369   0.653  13.137  0.4837  0.3169 -0.2502
13103TIP3   OH260723   1.029   4.680   3.036  0.2576 -0.0683  0.1972
13103TIP3    H160724   1.017   4.588   3.058  0.2198 -0.1735 -0.2424
13103TIP3    H260725   0.943   4.709   3.006 -0.1794  0.5937  2.0074
13104TIP3   OH260726   2.004   6.249   0.078  0.2523 -0.3153 -0.3408
13104TIP3    H160727   2.043   6.175   0.124 -0.0188 -0.9147 -1.0544
13104TIP3    H260728   2.077   6.294   0.036  0.3828 -0.3684 -0.1669
13105TIP3   OH260729   6.698   5.379   3.749  0.1175  1.1186 -0.1416
13105TIP3    H160730   6.628   5.435   3.716 -0.5993 -0.4081 -1.3824
13105TIP3    H260731   6.777   5.432   3.739 -0.7552  2.7006  0.8415
13106TIP3   OH260732   3.349   1.703  16.594  0.6009 -0.0985  0.2170
13106TIP3    H160733   3.411   1.657  16.651 -0.1628 -0.3468  0.8690
13106TIP3    H260734   3.306   1.766  16.652  0.7860  0.6075 -0.4022
13107TIP3   OH260735   1.081   1.521  15.125  0.2892 -0.5855  0.0648
13107TIP3    H160736   1.094   1.487  15.214  1.1814  1.1191  0.6273
13107TIP3    H260737   0.988   1.544  15.122  0.0426 -1.4967  0.2107
13108TIP3   OH260738   0.473   0.422  16.663 -0.0116 -0.4489  0.2190
13108TIP3    H160739   0.505   0.364  16.595 -0.6558  0.1037 -0.5715
13108TIP3    H260740   0.385   0.391  16.683  0.2820 -0.7993  1.0403
13109TIP3   OH260741   4.431   4.137   3.102  0.1630 -0.1404  0.1089
13109TIP3    H160742   4.441   4.088   3.020 -1.7333  0.0558 -0.2914
13109TIP3    H260743   4.403   4.072   3.166 -0.2712  0.0352  0.1035
13110TIP3   OH260744   6.634   4.666  12.502 -0.4232  0.1786  0.2377
13110TIP3    H160745   6.722   4.638  12.474  0.0391  1.7119  0.0316
13110TIP3    H260746   6.592   4.694  12.421 -2.0521 -2.7733 -0.0633
13111TIP3   OH260747   2.179   0.820  17.094 -0.3155  0.0904 -0.0600
13111TIP3    H160748   2.194   0.741  17.042  0.4599 -1.0036  1.7178
13111TIP3    H260749   2.097   0.803  17.141  0.1272  0.0818  0.7331
13112TIP3   OH260750   4.404   5.380  13.352 -0.3837  0.1207  0.1858
13112TIP3    H160751   4.474   5.330  13.308 -0.0973  0.2282  0.5181
13112TIP3    H260752   4.403   5.345  13.441 -0.4080  0.4799  0.3241
13113TIP3   OH260753   3.864   3.925  13.351 -0.2834  0.0698 -0.1779
13113TIP3    H160754   3.806   3.906  13.277  0.4435  1.6143 -1.1728
13113TIP3    H260755   3.893   4.015  13.338  1.3169 -0.2183  1.0151
13114TIP3   OH260756   3.993   4.486  11.878 -0.0601 -0.0529 -0.0472
13114TIP3    H160757   4.089   4.483  11.870 -0.1083 -0.5964 -0.4570
13114TIP3    H260758   3.977   4.561  11.936  0.8233 -2.1258  3.1552
13115TIP3   OH260759   3.228   1.787   1.904  0.0422  0.4065  0.7525
13115TIP3    H160760   3.262   1.818   1.820  0.7202 -0.8427  0.5458
13115TIP3    H260761   3.294   1.814   1.968 -0.0870  0.6643  0.7786
13116TIP3   OH260762   3.619   2.215  10.831 -0.3225 -0.4524 -0.2671
13116TIP3    H160763   3.594   2.205  10.922 -0.7969  0.3431 -0.2961
13116TIP3    H260764   3.599   2.131  10.790 -2.8808  0.0810 -0.2530
13117TIP3   OH260765   4.343   1.963  16.007 -0.4330  0.7057 -0.7510
13117TIP3    H160766   4.388   1.927  15.931 -0.2878  0.9993 -0.8071
13117TIP3    H260767   4.404   1.951  16.079 -0.4585  0.6746 -0.7358
13118TIP3   OH260768   6.073   4.137  15.669  0.2577 -0.4101 -0.1922
13118TIP3    H160769   6.147   4.077  15.657  0.5404 -0.2731  0.7652
13118TIP3    H260770   6.082   4.168  15.759 -0.7375 -0.0752 -0.1938
13119TIP3   OH260771   3.622   4.632  11.304 -0.0226 -0.4807  0.7004
13119TIP3    H160772   3.566   4.612  11.379 -1.5699 -1.8458 -0.7425
13119TIP3    H260773   3.610   4.725  11.289  0.2011 -0.2175  2.0425
13120TIP3   OH260774   3.643   1.066  14.369 -0.3140  0.0133 -0.3023
13120TIP3    H160775   3.583   1.015  14.423 -0.2111 -0.5975 -0.7605
13120TIP3    H260776   3.587   1.105  14.301 -0.2749 -0.1300 -0.4176
13121TIP3   OH260777   2.024   1.416  12.018  0.0067 -0.2204  0.0228
13121TIP3    H160778   2.091   1.484  12.008  0.1100 -0.0787  1.4203
13121TIP3    H260779   2.068   1.347  12.068 -0.8399 -0.2001  0.8150
13122TIP3   OH260780   3.812   1.529   0.714  0.2667  0.3739  0.0878
13122TIP3    H160781   3.889   1.586   0.707 -0.2074  0.9109 -1.0952
13122TIP3    H260782   3.805   1.487   0.629 -0.2364 -0.3629  0.4786
13123TIP3   OH260783   1.760   1.885   1.124  0.3466 -0.2149  0.2210
13123TIP3    H160784   1.726   1.969   1.092  0.4836 -0.3244 -0.2204
13123TIP3    H260785   1.720   1.874   1.210  1.0479  0.7400  0.6876
13124TIP3   OH260786   3.825   2.349  13.544  0.6583  0.2211 -0.6063
13124TIP3    H160787   3.815   2.397  13.462 -0.7807  1.8808  0.4619
13124TIP3    H260788   3.771   2.271  13.533  1.1344 -0.0003 -1.5122
13125TIP3   OH260789   5.803   3.062   2.546 -0.0905 -0.2038 -0.4368
13125TIP3    H160790   5.803   3.055   2.450 -0.5617  2.3406 -0.7108
13125TIP3    H260791   5.872   3.126   2.565 -0.2412 -0.4079  0.9096
13126TIP3   OH260792   5.031   5.879   2.595  0.2407 -0.8465  0.5261
13126TIP3    H160793   4.953   5.888   2.540 -0.6233 -2.9856  1.3052
13126TIP3    H260794   5.101   5.920   2.544 -0.6013 -2.3400 -2.0114
13127TIP3   OH260795   4.068   1.659  15.832 -0.5122 -0.1334  0.2231
13127TIP3    H160796   4.044   1.622  15.747 -0.6248  0.2857  0.0658
13127TIP3    H260797   4.137   1.602  15.865 -0.3150 -0.1729 -0.2518
13128TIP3   OH260798   5.332   4.614  12.616  0.0816 -0.2852  0.3590
13128TIP3    H160799   5.288   4.585  12.695  0.5750 -1.0646  0.3567
13128TIP3    H260800   5.261   4.638  12.556 -0.3156 -0.6486  0.6768
13129TIP3   OH260801   0.404   2.942  14.956 -0.5430  0.2247  0.0698
13129TIP3    H160802   0.361   2.937  14.871 -1.2860 -1.6168  0.5217
13129TIP3    H260803   0.338   2.913  15.019  1.0385 -1.8715  0.8802
13130TIP3   OH260804   5.218   4.337  15.622  0.3256  0.0866 -0.4591
13130TIP3    H160805   5.236   4.259  15.674 -0.4320  0.5279  0.5034
13130TIP3    H260806   5.176   4.397  15.683 -0.2840  0.7524 -1.5006
13131TIP3   OH260807   2.578   0.724  14.381 -0.8381  0.4652 -0.2105
13131TIP3    H160808   2.553   0.646  14.429  0.3201 -0.9701 -1.8152
13131TIP3    H260809   2.579   0.696  14.289 -0.9326  2.5239 -0.8935
13132TIP3   OH260810   2.713   3.319  11.588  0.7742 -0.1940  0.5874
13132TIP3    H160811   2.774   3.375  11.637  0.7752 -0.9579  1.5037
13132TIP3    H260812   2.721   3.348  11.497  1.1793  0.9083  0.9597
13133TIP3   OH260813   6.182   1.078  17.024 -0.0825 -0.2530 -0.5033
13133TIP3    H160814   6.159   1.165  17.056 -1.2236 -0.7801  0.2032
13133TIP3    H260815   6.112   1.057  16.961 -2.0860 -2.1185  2.0895
13134TIP3   OH260816   1.088   4.588   4.445  0.2406 -0.2740 -0.4592
13134TIP3    H160817   1.045   4.504   4.458  0.8816 -1.0154 -2.6781
13134TIP3    H260818   1.029   4.637   4.388  0.2867  0.4436  0.0936
13135TIP3   OH260819   2.747   2.272  13.621 -0.1501 -0.0570  0.2114
13135TIP3    H160820   2.814   2.335  13.647 -0.8415  1.2270 -0.9832
13135TIP3    H260821   2.674   2.325  13.590 -0.8211 -1.4311 -0.7072
13136TIP3   OH260822   0.634   1.499   2.838  0.1072  0.7094 -0.3388
13136TIP3    H160823   0.701   1.504   2.769 -0.0750  3.2338 -0.4490
13136TIP3    H260824   0.571   1.568   2.814 -0.3216  1.1974  1.9943
13137TIP3   OH260825   1.909   1.264   6.350 -0.2077 -0.8669 -0.6193
13137TIP3    H160826   1.966   1.327   6.394 -0.4535 -0.9360 -0.1920
13137TIP3    H260827   1.954   1.180   6.360 -0.3227 -0.9020 -0.3903
13138TIP3   OH260828   1.067   4.947  15.251  0.7141  0.2362 -0.0200
13138TIP3    H160829   1.060   5.042  15.244 -2.3093  0.0904 -0.0605
13138TIP3    H260830   1.000   4.922  15.314  2.3246 -1.8177  1.0218
13139TIP3   OH260831   0.662   1.609  14.750 -0.4807  0.2889 -0.1896
13139TIP3    H160832   0.625   1.524  14.724 -2.8122  0.3935  2.2925
13139TIP3    H260833   0.588   1.656  14.788  0.8811  3.2590 -0.9589
13140TIP3   OH260834   1.636   2.044  14.007  0.6789 -0.8982  0.2209
13140TIP3    H160835   1.597   2.081  14.086 -2.5851 -1.1873 -1.1146
13140TIP3    H260836   1.713   1.996  14.038  0.5121  0.4139  2.9387
13141TIP3   OH260837   0.359   2.151  11.006  0.3412  0.2908 -0.1676
13141TIP3    H160838   0.450   2.179  11.013  0.5939 -0.2436 -1.1434
13141TIP3    H260839   0.346   2.135  10.912 -0.8173  0.5694 -0.0742
13142TIP3   OH260840   1.982   5.127   5.646  0.4644  0.1957 -0.0273
13142TIP3    H160841   1.996   5.175   5.564  1.0679 -2.3730 -1.5674
13142TIP3    H260842   2.066   5.133   5.692  0.4522  0.8066 -0.0761
13143TIP3   OH260843   1.052   6.029   3.360 -0.1605 -0.3405 -0.7054
13143TIP3    H160844   0.998   6.015   3.437  1.0553  1.0357  0.4646
13143TIP3    H260845   1.142   6.028   3.393  0.3325  1.9686 -1.7484
13144TIP3   OH260846   5.529   3.345   3.703  0.2316  0.7980  0.7546
13144TIP3    H160847   5.560   3.428   3.666 -0.5500 -0.0896 -2.1863
13144TIP3    H260848   5.434   3.352   3.701  0.1027 -0.6897 -1.0792
13145TIP3   OH260849   3.571   4.110  11.871  0.6284  0.0670  0.2124
13145TIP3    H160850   3.525   4.057  11.937  0.1665  0.2053  0.0097
13145TIP3    H260851   3.601   4.047  11.806  1.0172 -0.0617  0.5159
13146TIP3   OH260852   2.722   5.629  16.087 -0.0922 -0.1702 -0.4152
13146TIP3    H160853   2.658   5.696  16.064 -0.7496 -0.6127  0.0782
13146TIP3    H260854   2.777   5.619  16.009 -0.5832  0.2642 -0.8189
13147TIP3   OH260855   5.115   2.716   3.526  0.4348 -0.4559 -0.0797
13147TIP3    H160856   5.083   2.682   3.610 -1.9453  1.0923 -0.2663
13147TIP3    H260857   5.058   2.675   3.461 -0.2739  1.2396 -0.5754
13148TIP3   OH260858   3.893   6.498  14.381  0.1274 -0.2116 -0.3970
13148TIP3    H160859   3.810   6.482  14.427  0.2729  0.0368 -0.0401
13148TIP3    H260860   3.948   6.543  14.446  2.0190 -3.8689  0.8767
13149TIP3   OH260861   5.353   5.701   6.199 -0.7000 -0.0627 -0.2336
13149TIP3    H160862   5.436   5.732   6.238 -1.8971  1.9569  0.9379
13149TIP3    H260863   5.305   5.782   6.181 -2.9360 -1.1979  0.3479
13150TIP3   OH260864   6.139   6.015   5.507 -0.1339 -0.2387  0.3255
13150TIP3    H160865   6.081   5.939   5.501 -0.9816  0.4563 -0.7797
13150TIP3    H260866   6.212   5.986   5.561 -1.7271 -1.0194  2.1974
13151TIP3   OH260867   5.176   5.904  12.435 -0.2080  0.0370 -0.5540
13151TIP3    H160868   5.266   5.925  12.413 -0.3819 -0.9474 -2.3944
13151TIP3    H260869   5.161   5.817  12.396 -1.7019 -0.1795  0.3996
13152TIP3   OH260870   4.187   1.252   4.170  0.2686  0.1901 -0.2995
13152TIP3    H160871   4.124   1.323   4.176 -0.7870 -0.7877  0.5453
13152TIP3    H260872   4.261   1.280   4.224 -0.1744  0.6002  0.0953
13153TIP3   OH260873   6.384   2.773  12.278  0.5242  0.0924 -0.3254
13153TIP3    H160874   6.314   2.837  12.267 -0.4485 -0.7590  0.7245
13153TIP3    H260875   6.453   2.803  12.218 -1.0203  0.5214 -1.9604
13154TIP3   OH260876   3.456   3.476  15.420 -0.1279  0.1337 -0.0713
13154TIP3    H160877   3.402   3.504  15.346 -0.1087 -0.3211 -0.2613
13154TIP3    H260878   3.480   3.557  15.464 -0.7263  0.3592 -0.1540
13155TIP3   OH260879   4.625   6.142  16.017  0.1989  0.2439 -0.1649
13155TIP3    H160880   4.667   6.060  15.992 -0.4073 -0.0378 -0.2771
13155TIP3    H260881   4.656   6.206  15.952 -0.6444 -0.2776 -1.1107
13156TIP3   OH260882   1.422   5.380   2.398  0.9903  0.3899 -0.3902
13156TIP3    H160883   1.506   5.422   2.379 -0.2817  1.9531 -3.0552
13156TIP3    H260884   1.364   5.451   2.424 -0.0718 -0.3691 -0.6249
13157TIP3   OH260885   1.677   6.599  10.960 -0.5133 -0.6314  0.9270
13157TIP3    H160886   1.628   6.517  10.970 -1.5541 -0.3691 -1.3840
13157TIP3    H260887   1.758   6.573  10.916 -1.1178 -0.3882 -0.3747
13158TIP3   OH260888   4.439   0.429  12.246  0.1133 -0.7903 -0.6975
13158TIP3    H160889   4.367   0.479  12.207 -0.1169 -0.7286 -0.1925
13158TIP3    H260890   4.511   0.439  12.184  0.5131  1.3063  0.0304
13159TIP3   OH260891   3.213   2.903   5.036  0.0892 -0.6694  0.1756
13159TIP3    H160892   3.226   2.965   4.963  0.6256 -0.8696  0.0916
13159TIP3    H260893   3.224   2.956   5.115 -0.6493 -0.4191  0.1174
13160TIP3   OH260894   5.772   0.162   1.637 -0.2169  0.4248  0.0804
13160TIP3    H160895   5.694   0.142   1.691 -0.0492 -0.3280  0.0591
13160TIP3    H260896   5.795   0.078   1.597  0.6838  0.6113  0.1853
13161TIP3   OH260897   4.421   4.094  14.079 -0.0868 -0.0039 -0.3041
13161TIP3    H160898   4.415   4.104  13.984 -1.8648  0.3074 -0.1980
13161TIP3    H260899   4.428   3.999  14.092 -0.4712 -0.0961 -0.7322
13162TIP3   OH260900   2.371   3.377   1.078  0.4727 -0.3543  0.9002
13162TIP3    H160901   2.394   3.464   1.111 -0.0864 -0.6718  2.1561
13162TIP3    H260902   2.286   3.389   1.035  2.3480  0.6492 -3.0456
13163TIP3   OH260903   3.107   2.717   3.960 -0.2582  0.2859 -0.3903
13163TIP3    H160904   3.033   2.656   3.958  1.0957 -1.5087  1.0763
13163TIP3    H260905   3.126   2.735   3.868 -2.0045  0.1845 -0.8059
13164TIP3   OH260906   6.341   5.217  15.404 -0.8421 -0.2035 -0.2055
13164TIP3    H160907   6.351   5.186  15.314  1.0633 -0.2182 -0.0264
13164TIP3    H260908   6.360   5.311  15.399  0.4322 -0.4187  0.3370
13165TIP3   OH260909   1.464   6.711   3.462 -0.2850 -0.0383  0.5782
13165TIP3    H160910   1.522   6.690   3.535 -0.4670  0.9404  1.0234
13165TIP3    H260911   1.396   6.644   3.464  0.0286 -0.3460  0.9537
13166TIP3   OH260912   1.629   5.059  12.738 -0.4753  0.4071  0.3048
13166TIP3    H160913   1.601   5.014  12.818 -1.2625 -0.8592 -0.6315
13166TIP3    H260914   1.549   5.102  12.706 -0.4545 -0.0666 -0.3990
13167TIP3   OH260915   2.693   2.148  12.554  0.1675  0.2862 -0.6357
13167TIP3    H160916   2.627   2.168  12.488 -0.7761 -1.6671 -0.3486
13167TIP3    H260917   2.706   2.053  12.548  2.0835  0.4489  0.1266
13168TIP3   OH260918   6.221   0.780  14.056  0.2588  0.1412 -0.4189
13168TIP3    H160919   6.315   0.801  14.053  0.0975  0.8279 -1.1021
13168TIP3    H260920   6.203   0.741  13.970 -0.1993  0.5642 -0.5165
13169TIP3   OH260921   4.045   3.992   1.862  0.1455 -0.0736 -0.3363
13169TIP3    H160922   4.064   3.991   1.768  1.6920 -1.9728 -0.0815
13169TIP3    H260923   4.035   4.084   1.884 -3.4936  0.3495 -2.9035
13170TIP3   OH260924   4.101   4.577  15.741  0.5173 -0.0686  0.0419
13170TIP3    H160925   4.192   4.601  15.759  0.0394  1.3375  0.7455
13170TIP3    H260926   4.063   4.562  15.828 -0.3940  1.2508 -0.1025
13171TIP3   OH260927   2.512   4.560   5.551  0.5626  0.2002  0.2313
13171TIP3    H160928   2.509   4.579   5.645  1.7641 -0.1172  0.3483
13171TIP3    H260929   2.449   4.490   5.539  0.2755  0.3537  0.7692
13172TIP3   OH260930   5.611   5.733   1.056  0.4490  0.3933  0.3879
13172TIP3    H160931   5.609   5.741   1.151 -1.5631  2.3764  0.2522
13172TIP3    H260932   5.537   5.676   1.035 -0.3416  1.5272 -0.0368
13173TIP3   OH260933   6.414   6.024   5.122 -0.0234 -0.0688  0.6908
13173TIP3    H160934   6.359   5.954   5.157  0.0952 -0.2306  0.5570
13173TIP3    H260935   6.406   6.095   5.186  0.9522 -0.7039  1.5500
13174TIP3   OH260936   1.885   1.856  13.425  0.2482 -0.2858 -0.1056
13174TIP3    H160937   1.967   1.821  13.390  0.0151 -1.2661  0.2707
13174TIP3    H260938   1.908   1.939  13.465  0.4863  1.0273 -2.7518
13175TIP3   OH260939   5.390   5.194   3.833 -0.2923  0.1611 -0.0029
13175TIP3    H160940   5.464   5.139   3.810 -2.1323 -2.4939  0.0360
13175TIP3    H260941   5.390   5.197   3.928 -1.2162 -1.3521  0.0679
13176TIP3   OH260942   4.376   3.021   2.061  0.2721 -0.6843  0.0196
13176TIP3    H160943   4.358   2.935   2.023 -0.2361 -0.1709 -0.9207
13176TIP3    H260944   4.309   3.078   2.025  1.1976  0.3269 -0.1593
13177TIP3   OH260945   5.994   0.863  16.456 -0.2620 -0.0120 -0.6391
13177TIP3    H160946   6.026   0.924  16.389 -1.1770 -0.3145 -1.3799
13177TIP3    H260947   6.039   0.781  16.437 -1.7188 -0.5520 -1.9379
13178TIP3   OH260948   2.072   2.880  14.513  0.1116  0.1868  0.0522
13178TIP3    H160949   2.085   2.846  14.601 -1.2747 -0.5743 -0.0053
13178TIP3    H260950   2.049   2.803  14.461  1.3210  0.5547 -1.0854
13179TIP3   OH260951   3.797   1.346  15.629 -0.3594 -0.3500  0.1979
13179TIP3    H160952   3.806   1.403  15.705  1.1304 -1.2147  0.7109
13179TIP3    H260953   3.880   1.299  15.624 -1.4832 -2.4350 -0.2224
13180TIP3   OH260954   0.830   5.034   3.841 -0.0103 -0.2966  0.2997
13180TIP3    H160955   0.820   5.027   3.936  1.6735  1.0272  0.6063
13180TIP3    H260956   0.900   4.972   3.819 -0.7623 -1.0036 -0.1832
13181TIP3   OH260957   3.185   5.840   6.138 -0.4270 -0.2678  0.1226
13181TIP3    H160958   3.194   5.774   6.206 -2.8202 -0.3653  0.4158
13181TIP3    H260959   3.124   5.801   6.075 -0.1579  0.7941 -0.8166
13182TIP3   OH260960   6.402   2.302  11.082  0.0264  0.1422  0.5941
13182TIP3    H160961   6.330   2.240  11.078 -0.1977  0.3965  0.6518
13182TIP3    H260962   6.473   2.260  11.033  0.2521 -0.6337  1.5591
13183TIP3   OH260963   5.438   5.549  16.508  0.3305 -0.3268 -0.2823
13183TIP3    H160964   5.366   5.521  16.452 -0.6898 -1.1168  1.3493
13183TIP3    H260965   5.443   5.643  16.497 -0.0221 -0.4316 -1.4676
13184TIP3   OH260966   4.613   2.021  12.274 -0.4607 -0.0013  0.5951
13184TIP3    H160967   4.597   2.059  12.361 -1.1439  0.1069  0.4263
13184TIP3    H260968   4.551   2.066  12.217 -0.8432 -0.9152  0.2710
13185TIP3   OH260969   6.462   0.767   1.235  0.3702  0.1274 -0.4435
13185TIP3    H160970   6.425   0.710   1.301  1.3686  0.8463  0.7791
13185TIP3    H260971   6.390   0.786   1.175 -0.5418 -0.5349  0.4329
13186TIP3   OH260972   0.650   1.176  15.286 -0.2703  0.3382 -0.1861
13186TIP3    H160973   0.609   1.243  15.232 -1.6575 -0.3335  0.0031
13186TIP3    H260974   0.631   1.202  15.376  1.7910  1.2962  0.0334
13187TIP3   OH260975   3.955   1.174  11.500 -0.2485 -0.0257 -0.2974
13187TIP3    H160976   3.900   1.235  11.548  0.5604 -0.6199  1.4488
13187TIP3    H260977   3.894   1.111  11.462 -0.8802  0.2405  0.2599
13188TIP3   OH260978   3.921   3.380   4.701  0.3232  0.0271 -0.0902
13188TIP3    H160979   3.862   3.421   4.765  1.2153  1.4102 -0.1244
13188TIP3    H260980   3.871   3.381   4.620 -0.8356 -1.7733  0.5426
13189TIP3   OH260981   2.000   6.388   3.271  0.6742  0.3471  0.2483
13189TIP3    H160982   1.973   6.479   3.256  0.7063  0.3286  0.0734
13189TIP3    H260983   2.014   6.382   3.365  1.0044  0.6164  0.2180
13190TIP3   OH260984   1.736   1.032   2.295  0.7008 -0.2507 -0.0787
13190TIP3    H160985   1.678   1.036   2.219  1.1586  1.2123 -0.3677
13190TIP3    H260986   1.711   1.107   2.349 -0.1065 -1.6664  1.6134
13191TIP3   OH260987   0.194   1.446   4.523 -0.3136  0.5691  0.1388
13191TIP3    H160988   0.194   1.451   4.428  0.3251  2.0697  0.1902
13191TIP3    H260989   0.196   1.537   4.552 -1.5625  0.1810  1.6063
13192TIP3   OH260990   0.931   5.857   2.594 -0.0455  0.2363 -0.2420
13192TIP3    H160991   0.961   5.936   2.639  0.7714 -0.5992  0.7443
13192TIP3    H260992   0.917   5.884   2.503 -0.6504  1.7021  0.2755
13193TIP3   OH260993   1.719   4.358  15.295 -0.0234 -0.1422 -0.1734
13193TIP3    H160994   1.635   4.326  15.261  0.1788 -0.8038 -0.0743
13193TIP3    H260995   1.774   4.279  15.300  1.0085  0.4543 -1.3992
13194TIP3   OH260996   3.819   2.783  16.759 -0.5791  0.1007  0.3715
13194TIP3    H160997   3.841   2.831  16.839  0.4190 -0.9573  0.7698
13194TIP3    H260998   3.834   2.846  16.689 -0.7428  0.8206  0.9746
13195TIP3   OH260999   1.097   5.561  14.097 -0.1864  0.0307  0.7461
13195TIP3    H161000   1.119   5.469  14.084 -0.5269 -0.3786  2.7431
13195TIP3    H261001   1.174   5.598  14.142 -0.6326  0.3613  1.2504
13196TIP3   OH261002   6.419   6.336  11.987  0.4248 -0.4241 -0.0831
13196TIP3    H161003   6.503   6.349  12.031  0.4953 -1.5023  0.1391
13196TIP3    H261004   6.386   6.254  12.023 -0.8841  0.1506  0.0631
13197TIP3   OH261005   2.630   4.410  11.459 -0.1126 -0.3317 -0.2948
13197TIP3    H161006   2.547   4.362  11.460  0.1668 -0.8163 -0.1442
13197TIP3    H261007   2.652   4.418  11.366 -0.3273 -0.2018 -0.3356
13198TIP3   OH261008   5.881   1.739   0.430 -0.1845  0.5354 -0.6022
13198TIP3    H161009   5.854   1.676   0.364 -1.0905 -0.4536  0.6610
13198TIP3    H261010   5.888   1.688   0.511  0.5897  1.7623  0.1371
13199TIP3   OH261011   5.869   2.009  12.825  0.5242  0.2238  0.6094
13199TIP3    H161012   5.857   1.954  12.901  1.2433  0.7156  1.0916
13199TIP3    H261013   5.960   1.996  12.800  0.0470 -0.6815 -0.7725
13200TIP3   OH261014   6.205   5.264  16.894  0.2368 -0.1335 -0.4712
13200TIP3    H161015   6.229   5.329  16.960 -1.5356 -2.4511  2.7719
13200TIP3    H261016   6.119   5.293  16.862 -0.3631 -0.5978  0.6651
13201TIP3   OH261017   1.314   3.872   4.756 -0.4130 -0.4216  0.2872
13201TIP3    H161018   1.327   3.950   4.812 -3.0435  0.8311 -0.7177
13201TIP3    H261019   1.307   3.907   4.668 -0.7347 -1.9341 -0.3113
13202TIP3   OH261020   4.926   2.356   0.534  0.0068 -0.1427 -0.2123
13202TIP3    H161021   4.946   2.334   0.625  1.0066  0.6295 -0.2340
13202TIP3    H261022   5.004   2.328   0.485 -1.4471 -2.7831 -1.2124
13203TIP3   OH261023   1.837   0.744  13.765  0.0344  0.1923  0.1027
13203TIP3    H161024   1.765   0.801  13.739 -0.0677 -0.2211 -0.5448
13203TIP3    H261025   1.794   0.665  13.799  0.1737 -0.0009 -0.1634
13204TIP3   OH261026   2.831   4.226   0.093 -0.0501  0.2385 -0.1241
13204TIP3    H161027   2.828   4.133   0.114  0.7525 -0.1140 -1.4456
13204TIP3    H261028   2.925   4.246   0.087  0.0301  2.0814  3.8660
13205TIP3   OH261029   6.579   0.563   0.121 -0.5111 -0.3960  0.1206
13205TIP3    H161030   6.566   0.484   0.173  0.4146  0.9772  2.6124
13205TIP3    H261031   6.614   0.627   0.183  0.0027  1.5989 -2.0796
13206TIP3   OH261032   6.259   0.443   5.069  0.0431  0.2394  0.4015
13206TIP3    H161033   6.347   0.473   5.092  0.6274  0.4556 -1.8251
13206TIP3    H261034   6.273   0.357   5.029 -0.8783 -0.1566  0.9198
13207TIP3   OH261035   4.558   4.690  16.941 -0.1308 -0.3522  0.0909
13207TIP3    H161036   4.502   4.754  16.897 -0.1720 -0.0800  0.5356
13207TIP3    H261037   4.632   4.741  16.974  0.4595 -0.7301 -0.6142
13208TIP3   OH261038   2.724   4.609  17.323 -0.0077 -0.7364  0.3336
13208TIP3    H161039   2.706   4.555  17.399  0.7642  1.0822  1.8945
13208TIP3    H261040   2.766   4.688  17.358  2.0560 -0.5838 -2.1426
13209TIP3   OH261041   2.919   1.576  15.212 -0.0196  0.0292  0.2854
13209TIP3    H161042   2.958   1.515  15.275 -0.4258  1.3475  1.8787
13209TIP3    H261043   2.992   1.633  15.188  0.6754 -1.7037 -2.1455
13210TIP3   OH261044   5.135   0.916   2.853 -0.0208 -0.5773  0.2737
13210TIP3    H161045   5.139   0.822   2.870  0.7483 -0.4200  1.0649
13210TIP3    H261046   5.191   0.954   2.921  0.0939  0.4103 -0.3645
13211TIP3   OH261047   4.772   0.199   4.434 -0.1017 -0.3641 -0.0746
13211TIP3    H161048   4.796   0.286   4.402 -0.3960  0.2110  1.1885
13211TIP3    H261049   4.855   0.160   4.460 -0.1620  0.4614  1.4955
13212TIP3   OH261050   1.160   2.641   2.089 -0.6119 -0.7818  0.2051
13212TIP3    H161051   1.090   2.579   2.069  0.0745 -1.4142 -0.3529
13212TIP3    H261052   1.236   2.605   2.043  0.2192 -0.4367  1.2645
13213TIP3   OH261053   4.022   4.687  16.673  0.6353 -1.2350  0.5249
13213TIP3    H161054   4.109   4.669  16.707  0.9420  0.0649  0.4583
13213TIP3    H261055   4.035   4.704  16.580  0.5649  0.6515  0.8360
13214TIP3   OH261056   3.297   0.979  12.141 -0.0957 -0.4472 -0.0939
13214TIP3    H161057   3.243   1.029  12.079  0.9247 -0.2282 -0.8171
13214TIP3    H261058   3.233   0.935  12.197 -1.0338  0.9865  0.0211
13215TIP3   OH261059   1.834   6.351  11.212  0.1646 -0.1246 -0.2821
13215TIP3    H161060   1.867   6.279  11.159  0.1388  0.7187 -1.4778
13215TIP3    H261061   1.741   6.355  11.193 -0.1910 -0.8810  1.1503
13216TIP3   OH261062   1.920   0.366  12.228 -0.4483 -0.1207 -0.0372
13216TIP3    H161063   1.875   0.281  12.231  0.4739 -0.5978  0.4737
13216TIP3    H261064   1.988   0.360  12.295  1.1731  0.1284 -1.5822
13217TIP3   OH261065   5.577   6.600   1.900  0.2167  0.7390  0.4243
13217TIP3    H161066   5.483   6.604   1.883  0.4448  0.4245 -1.0477
13217TIP3    H261067   5.601   6.510   1.879  1.2023  1.3767 -1.3808
13218TIP3   OH261068   0.786   4.356  15.804 -0.5346  0.5432  0.1449
13218TIP3    H161069   0.760   4.267  15.829 -0.2414  1.1375  2.9249
13218TIP3    H261070   0.703   4.402  15.792 -0.7565  0.5821  1.6102
13219TIP3   OH261071   1.646   2.099   0.964  0.3557 -0.2938  0.5596
13219TIP3    H161072   1.674   2.129   0.878  0.9449 -3.2976 -0.3990
13219TIP3    H261073   1.628   2.180   1.013 -0.4622  1.5034 -2.4774
13220TIP3   OH261074   4.690   3.936   0.296 -0.3058 -0.2754  0.1657
13220TIP3    H161075   4.758   3.987   0.252  0.4273 -0.3908  1.1354
13220TIP3    H261076   4.725   3.847   0.299 -0.2290 -0.2288  1.1667
13221TIP3   OH261077   5.927   2.150  11.382 -0.0832 -0.4034 -0.0070
13221TIP3    H161078   5.846   2.201  11.379 -0.0820 -0.4159 -0.2442
13221TIP3    H261079   5.944   2.126  11.291  0.9298  0.7616 -0.1636
13222TIP3   OH261080   6.702   6.711   2.552 -0.1230  0.9525  0.7895
13222TIP3    H161081   6.694   6.639   2.615  0.1062  1.1450  1.0432
13222TIP3    H261082   6.650   6.683   2.477  3.0394 -1.2353 -0.7590
13223TIP3   OH261083   2.311   2.051  17.254  0.4647  0.0810  0.0550
13223TIP3    H161084   2.256   2.072  17.179  0.4346 -1.1334 -0.2939
13223TIP3    H261085   2.389   2.010  17.216  1.0315  0.6283  0.6162
13224TIP3   OH261086   1.941   2.676   2.612  0.0896  0.4869  0.0878
13224TIP3    H161087   1.866   2.657   2.555 -0.4987  0.8274  0.7382
13224TIP3    H261088   1.992   2.740   2.562 -0.4686  0.8552 -0.0281
13225TIP3   OH261089   3.823   3.580  12.821 -0.0302  0.4895 -0.2941
13225TIP3    H161090   3.785   3.666  12.802 -1.2622  0.5346  1.9718
13225TIP3    H261091   3.897   3.572  12.761  0.0596  3.0929 -0.6393
13226TIP3   OH261092   0.689   5.081  15.246 -0.6246  0.2708  0.2218
13226TIP3    H161093   0.736   5.091  15.163  0.1537 -1.2307  0.4366
13226TIP3    H261094   0.597   5.072  15.221 -0.2451 -1.7975 -0.6752
13227TIP3   OH261095   0.549   1.638  15.178  0.0086  0.3201  0.2720
13227TIP3    H161096   0.562   1.691  15.256 -0.1631  0.4342  0.2237
13227TIP3    H261097   0.455   1.620  15.176 -0.0426  0.6253 -0.1073
13228TIP3   OH261098   6.501   3.129  12.593  0.8419 -0.2989 -0.3511
13228TIP3    H161099   6.512   3.222  12.615 -3.5880  0.1721  0.9541
13228TIP3    H261100   6.452   3.130  12.511  0.3921 -1.4189 -0.1195
13229TIP3   OH261101   0.410   6.238  17.352 -0.7916 -0.1930  0.2860
13229TIP3    H161102   0.388   6.326  17.323 -0.1451  0.1410  0.7715
13229TIP3    H261103   0.383   6.181  17.280  0.8898  0.6190 -1.0723
13230TIP3   OH261104   5.774   5.384  14.196 -0.0862 -0.3792  0.6002
13230TIP3    H161105   5.715   5.404  14.124  2.2360 -0.8589 -1.6023
13230TIP3    H261106   5.723   5.399  14.275 -2.7430  0.2686 -1.1324
13231TIP3   OH261107   2.925   1.171   4.902  0.0190 -0.0756  0.6065
13231TIP3    H161108   2.861   1.206   4.840  0.0458  0.8476  1.0774
13231TIP3    H261109   2.886   1.091   4.935 -0.0671 -0.5026 -0.4825
13232TIP3   OH261110   3.285   6.218  15.581 -0.5792  0.5835  0.0941
13232TIP3    H161111   3.283   6.291  15.519  0.3998 -1.1822 -2.1762
13232TIP3    H261112   3.218   6.157  15.548  1.5840 -1.4742 -0.7817
13233TIP3   OH261113   4.506   3.485  15.507 -0.1125  0.2173  0.1946
13233TIP3    H161114   4.477   3.555  15.449  0.3305  0.7293  0.5735
13233TIP3    H261115   4.433   3.424  15.511  0.2977 -0.4689 -1.8858
13234TIP3   OH261116   5.348   0.307   0.269 -0.2120  0.7373  0.2359
13234TIP3    H161117   5.279   0.358   0.226 -1.6715  0.1353  1.7413
13234TIP3    H261118   5.310   0.283   0.354  0.6754 -2.1821 -0.0732
13235TIP3   OH261119   0.826   5.734  14.791 -0.2931 -0.7293  0.1366
13235TIP3    H161120   0.912   5.763  14.761  0.1975  0.4453  2.4564
13235TIP3    H261121   0.809   5.652  14.743  0.3617  0.9321 -3.1910
13236TIP3   OH261122   4.083   3.350   2.385  0.2391 -0.4501  0.0673
13236TIP3    H161123   4.088   3.267   2.337 -0.6494 -1.0430  0.9323
13236TIP3    H261124   4.050   3.413   2.322  3.7169  0.0394 -1.4803
13237TIP3   OH261125   2.619   1.765   0.562 -0.3995 -0.7410 -0.6193
13237TIP3    H161126   2.555   1.714   0.612 -0.1652  0.0102  0.4760
13237TIP3    H261127   2.681   1.797   0.627 -0.7606  1.2654 -1.1854
13238TIP3   OH261128   3.600   3.538   5.141 -0.1502 -0.0910 -0.2382
13238TIP3    H161129   3.564   3.605   5.200  1.3293 -1.2803  2.1694
13238TIP3    H261130   3.691   3.565   5.127  0.0017 -0.7629 -0.5653
13239TIP3   OH261131   1.586   1.912   3.060 -0.4406  0.4593 -0.6305
13239TIP3    H161132   1.574   1.983   2.998 -0.0621  0.3375 -0.8442
13239TIP3    H261133   1.661   1.938   3.113 -0.8656  0.6422 -0.1078
13240TIP3   OH261134   0.856   0.164   2.375  0.1111 -0.5434  0.6761
13240TIP3    H161135   0.847   0.179   2.281 -0.6006 -1.3418  0.6017
13240TIP3    H261136   0.902   0.241   2.407  2.9549 -1.5190 -0.7548
13241TIP3   OH261137   0.385   2.195   4.638 -0.3646  0.3189 -0.6212
13241TIP3    H161138   0.336   2.223   4.715  0.2179  0.5164 -0.3178
13241TIP3    H261139   0.341   2.114   4.611 -0.1454 -0.1393  0.3413
13242TIP3   OH261140   4.133   1.249  13.834  0.8019  0.4023 -0.0843
13242TIP3    H161141   4.140   1.161  13.870 -1.5787  0.0388 -0.3171
13242TIP3    H261142   4.218   1.290  13.851  2.3534 -2.2559 -0.9087
13243TIP3   OH261143   1.546   2.594  15.268 -0.2020  0.0538 -1.1721
13243TIP3    H161144   1.550   2.675  15.218 -0.0505  1.7493  1.3563
13243TIP3    H261145   1.455   2.564  15.261 -0.6832  1.3914 -0.8194
13244TIP3   OH261146   3.197   2.401   0.342 -0.3064  0.3435  0.1608
13244TIP3    H161147   3.245   2.323   0.315  0.1973  0.8702 -0.4906
13244TIP3    H261148   3.106   2.382   0.319 -0.3809 -0.5208  1.0969
13245TIP3   OH261149   1.935   2.780  15.540 -0.2478  0.2588  0.0461
13245TIP3    H161150   1.986   2.861  15.550  1.1799 -0.6491  0.4125
13245TIP3    H261151   1.994   2.711  15.569 -0.4476 -1.2360 -2.7454
13246TIP3   OH261152   1.940   3.443   2.469  0.1654 -0.2571 -0.4393
13246TIP3    H161153   1.921   3.454   2.562  0.5672  2.3457 -0.6078
13246TIP3    H261154   2.034   3.423   2.466  0.4628  1.0489 -0.3260
13247TIP3   OH261155   0.470   1.687  11.942 -0.1684 -0.2890  0.0889
13247TIP3    H161156   0.558   1.648  11.943  0.8714  1.4349 -3.8605
13247TIP3    H261157   0.483   1.776  11.977 -0.3825 -0.0937 -0.3289
13248TIP3   OH261158   0.034   5.136  17.245  0.6037  0.6617 -0.3345
13248TIP3    H161159  -0.055   5.167  17.232  0.2848 -0.2480 -0.3554
13248TIP3    H261160   0.088   5.215  17.238 -0.1547  1.1516 -0.7551
13249TIP3   OH261161   5.880   0.439   2.547  0.5896  0.3901 -0.2067
13249TIP3    H161162   5.911   0.470   2.462  0.9170 -0.8591 -0.5774
13249TIP3    H261163   5.822   0.366   2.526  1.0642 -0.2531  0.6437
13250TIP3   OH261164   0.599   5.773  13.347 -0.1632  0.0628 -0.5044
13250TIP3    H161165   0.520   5.721  13.360 -0.0904  0.2026  0.5601
13250TIP3    H261166   0.644   5.771  13.431  0.7049  0.4287 -0.9439
13251TIP3   OH261167   1.648   6.294  16.613 -0.3650  0.1274 -0.0711
13251TIP3    H161168   1.711   6.234  16.654 -2.1637 -0.4373  2.0499
13251TIP3    H261169   1.631   6.360  16.680 -0.9485  1.1055 -1.1507
13252TIP3   OH261170   3.284   5.844  16.035 -0.1285  0.4969 -0.5722
13252TIP3    H161171   3.206   5.897  16.021 -1.0104 -0.9613 -1.4298
13252TIP3    H261172   3.282   5.823  16.128 -1.2753 -0.2590 -0.7436
13253TIP3   OH261173   6.317   3.056   2.453 -0.0106 -0.0642  0.2521
13253TIP3    H161174   6.314   2.961   2.441  0.7329 -0.1195  0.4139
13253TIP3    H261175   6.271   3.091   2.377 -1.7097 -0.5878  1.0076
13254TIP3   OH261176   2.178   2.135   1.453 -0.0888 -0.1883 -0.1934
13254TIP3    H161177   2.161   2.101   1.365  3.1475 -0.9110 -0.6478
13254TIP3    H261178   2.221   2.219   1.438 -0.4760  0.1863  0.7538
13255TIP3   OH261179   5.518   3.783  15.535 -0.4512 -0.1847 -0.0332
13255TIP3    H161180   5.496   3.788  15.628  2.1838  0.7948  0.6340
13255TIP3    H261181   5.503   3.872  15.502  1.6336  0.3512  0.3021
13256TIP3   OH261182   6.156   4.788   5.418 -0.2338  0.0411  0.2830
13256TIP3    H161183   6.241   4.811   5.381  0.0321 -1.4880 -0.1382
13256TIP3    H261184   6.128   4.712   5.367 -2.1359  0.8712  0.0267
13257TIP3   OH261185   0.508   2.295  15.140 -0.3472  0.2014  0.1855
13257TIP3    H161186   0.570   2.364  15.163 -0.8215  0.5759  0.3513
13257TIP3    H261187   0.511   2.234  15.213 -0.8154  0.6713  0.6087
13258TIP3   OH261188   0.894   2.025   2.862  0.3690 -0.5080 -0.0431
13258TIP3    H161189   0.892   1.941   2.907  0.0505 -0.5898 -0.2082
13258TIP3    H261190   0.920   2.003   2.772  0.2420 -0.4359 -0.0976
13259TIP3   OH261191   1.283   6.298   2.647  0.0570  0.5802 -0.0384
13259TIP3    H161192   1.224   6.374   2.649  0.1621  0.6575  0.2496
13259TIP3    H261193   1.316   6.295   2.558  1.8260  2.2535  0.4920
13260TIP3   OH261194   6.417   5.221  14.856 -0.1236  0.3227  0.3196
13260TIP3    H161195   6.380   5.136  14.881  1.0976 -0.3514 -0.1199
13260TIP3    H261196   6.473   5.202  14.781 -0.3748  1.6392 -0.2197
13261TIP3   OH261197   0.471   2.776   6.192  0.2392  0.0938  0.3045
13261TIP3    H161198   0.478   2.723   6.271  1.5617  1.0169  0.8452
13261TIP3    H261199   0.377   2.791   6.181 -0.1542 -2.0172  0.3154
13262TIP3   OH261200   6.103   3.281  15.463  0.1247 -0.3142  0.1348
13262TIP3    H161201   6.145   3.207  15.507  1.7933 -0.1546 -1.0865
13262TIP3    H261202   6.174   3.344  15.449 -0.7188  0.4000 -1.1192
13263TIP3   OH261203   2.168   4.759  12.011  0.2422 -0.5810 -0.1589
13263TIP3    H161204   2.260   4.757  11.985  0.0796 -1.3024 -0.7026
13263TIP3    H261205   2.126   4.696  11.954 -0.4213 -1.0115  0.7826
13264TIP3   OH261206   4.658   1.189   0.666 -0.1901 -0.2975 -0.3366
13264TIP3    H161207   4.724   1.135   0.708 -0.5552  0.7537  1.7218
13264TIP3    H261208   4.704   1.271   0.646 -0.6058  0.0896  0.2508
13265TIP3   OH261209   5.510   5.524  16.190  0.1099  0.2848  0.3368
13265TIP3    H161210   5.588   5.476  16.161 -0.1219  1.3234 -2.2794
13265TIP3    H261211   5.529   5.616  16.169 -1.9955  0.4968 -0.9498
13266TIP3   OH261212   5.356   6.639  16.559  0.0748 -0.4346 -0.0597
13266TIP3    H161213   5.310   6.555  16.561 -3.0211  1.0625 -1.3637
13266TIP3    H261214   5.362   6.660  16.465 -0.3540  1.3141  0.2698
13267TIP3   OH261215   0.520   6.058   6.024 -0.5447  0.6075 -0.5761
13267TIP3    H161216   0.496   5.981   5.973  1.4318  0.7643 -1.8583
13267TIP3    H261217   0.582   6.106   5.968  0.3343  1.7295  1.2451
13268TIP3   OH261218   5.699   0.228   2.511  0.1284  0.6658  0.0852
13268TIP3    H161219   5.655   0.185   2.438 -0.1721  0.7216  0.2314
13268TIP3    H261220   5.729   0.156   2.567  0.9990  0.5917 -0.4498
13269TIP3   OH261221   0.345   2.492  16.012  0.2946 -0.1476  0.3845
13269TIP3    H161222   0.416   2.547  15.980  0.0072 -1.1844 -2.3590
13269TIP3    H261223   0.323   2.435  15.938 -2.8200 -0.4777  1.3792
13270TIP3   OH261224   5.589   6.729   5.407 -0.4969 -0.2356  0.0153
13270TIP3    H161225   5.589   6.659   5.341 -0.1237 -0.0805 -0.1545
13270TIP3    H261226   5.634   6.802   5.364 -0.9138  0.1207  0.1816
13271TIP3   OH261227   2.104   3.047  16.245 -0.3820  0.0647 -0.2227
13271TIP3    H161228   2.169   2.994  16.199 -0.0659  0.9698 -0.8600
13271TIP3    H261229   2.156   3.112  16.293 -0.6578 -1.2702  2.0092
13272TIP3   OH261230   5.603   5.504   6.158 -0.4271  0.1896 -0.4658
13272TIP3    H161231   5.585   5.590   6.198 -0.0428  0.4082 -0.7638
13272TIP3    H261232   5.621   5.447   6.233  2.6586  1.1320 -0.3538
13273TIP3   OH261233   3.026   1.221  13.678  0.1400 -0.0263  0.1606
13273TIP3    H161234   3.086   1.253  13.611 -0.6168 -0.4475 -0.7449
13273TIP3    H261235   3.056   1.262  13.759  0.6353  1.0692 -0.5554
13274TIP3   OH261236   6.110   2.796  16.010  0.0224  0.1900  0.2280
13274TIP3    H161237   6.156   2.857  15.953  3.6138 -0.9340  1.6763
13274TIP3    H261238   6.116   2.711  15.966 -0.6351 -0.0044  0.4905
13275TIP3   OH261239   0.152   2.248   2.990  0.1629 -0.2809 -0.0036
13275TIP3    H161240   0.210   2.176   3.016  0.2346  0.4276  1.9849
13275TIP3    H261241   0.199   2.327   3.015 -1.3757  0.3284  1.0933
13276TIP3   OH261242   5.494   0.365   6.493 -0.5622  0.1437  0.7317
13276TIP3    H161243   5.538   0.360   6.578 -0.7255  1.0009  0.8682
13276TIP3    H261244   5.496   0.457   6.470 -1.0694  0.0001  0.0910
13277TIP3   OH261245   4.652   0.289  11.721  0.0857 -0.0526 -0.0019
13277TIP3    H161246   4.732   0.337  11.699 -0.4598  0.5876 -0.6083
13277TIP3    H261247   4.679   0.197  11.720  0.7747  0.1450 -0.3653
13278TIP3   OH261248   3.823   6.363  13.895  0.3572 -0.0391  0.2116
13278TIP3    H161249   3.862   6.389  13.978 -0.6298 -0.4252  0.8130
13278TIP3    H261250   3.738   6.326  13.919  0.2784 -0.6317 -0.9258
13279TIP3   OH261251   3.657   0.266  15.431 -0.0208 -0.1923 -0.2457
13279TIP3    H161252   3.681   0.247  15.522  1.5175 -0.1240 -0.6122
13279TIP3    H261253   3.719   0.216  15.379 -0.8254 -0.1584 -1.2809
13280TIP3   OH261254   3.512   3.651  13.207 -0.2914  0.3587 -0.2280
13280TIP3    H161255   3.512   3.616  13.296  0.0242  0.5686 -0.1456
13280TIP3    H261256   3.470   3.582  13.155  2.4390 -1.2296 -0.5045
13281TIP3   OH261257   6.412   0.497   1.331 -0.3941  0.0535  0.0154
13281TIP3    H161258   6.467   0.424   1.305 -0.5340  0.0756 -0.3517
13281TIP3    H261259   6.322   0.464   1.320 -0.4563  0.2134  0.0399
13282TIP3   OH261260   2.946   6.187  11.770 -0.1988 -0.3754 -0.8985
13282TIP3    H161261   3.003   6.261  11.791  0.5037 -0.7777 -1.3459
13282TIP3    H261262   3.000   6.109  11.787 -0.3104 -0.7479 -2.1576
13283TIP3   OH261263   6.649   3.115  10.911  0.1658  0.4729 -0.1507
13283TIP3    H161264   6.581   3.167  10.953  1.2711  0.7462  1.3601
13283TIP3    H261265   6.732   3.152  10.942  1.0047 -0.9170 -0.6025
13284TIP3   OH261266   0.212   5.634  14.909  0.1807 -0.1159  0.4191
13284TIP3    H161267   0.149   5.701  14.885  0.1669  0.0786  0.9789
13284TIP3    H261268   0.179   5.598  14.992  0.5937 -0.2814  0.5176
13285TIP3   OH261269   6.265   3.077   2.968  0.7617 -0.5284  0.3179
13285TIP3    H161270   6.233   3.115   3.050  2.3171 -1.1017  1.2493
13285TIP3    H261271   6.252   3.146   2.903 -2.0790 -0.6761  0.6359
13286TIP3   OH261272   5.078   5.624   0.706  0.2487  0.6158  0.0194
13286TIP3    H161273   5.081   5.705   0.756  0.0172  0.7699 -0.2103
13286TIP3    H261274   5.101   5.650   0.617 -0.1051  0.4810 -0.1142
13287TIP3   OH261275   2.494   4.486   0.751 -0.1768  0.4620  0.3619
13287TIP3    H161276   2.512   4.392   0.751  0.5597  0.5881  1.0352
13287TIP3    H261277   2.548   4.520   0.822  0.8384  1.6370 -0.9320
13288TIP3   OH261278   6.383   6.476   4.778  0.6552  0.0850  0.1172
13288TIP3    H161279   6.325   6.465   4.702 -0.8756  0.0228  1.2524
13288TIP3    H261280   6.349   6.552   4.824  2.1730  0.7188  0.2616
13289TIP3   OH261281   5.856   5.627   1.822 -0.1493 -0.1949 -0.3016
13289TIP3    H161282   5.854   5.570   1.745 -1.1477  0.7331 -0.9892
13289TIP3    H261283   5.785   5.688   1.808  0.9054  1.2499  0.4014
13290TIP3   OH261284   5.961   4.546  15.548  0.1126  0.0300 -0.1220
13290TIP3    H161285   5.991   4.585  15.630 -0.0336 -0.8702  0.3788
13290TIP3    H261286   5.889   4.603  15.520 -0.0956  0.1325  0.5862
13291TIP3   OH261287   0.218   3.990   2.508 -0.3930 -0.1741  1.1539
13291TIP3    H161288   0.171   4.052   2.563  1.3532  1.2638  1.1472
13291TIP3    H261289   0.304   3.981   2.550 -0.3503 -2.0827  0.7562
13292TIP3   OH261290   0.757   6.547  17.409 -0.4628  0.4574 -0.0676
13292TIP3    H161291   0.766   6.492  17.487 -1.5896  1.1823  0.6123
13292TIP3    H261292   0.754   6.486  17.336 -1.0188 -0.3466  0.6119
13293TIP3   OH261293   4.145   1.043  16.100 -0.4405 -0.6653 -0.1781
13293TIP3    H161294   4.104   0.959  16.122 -0.7480 -0.2090  1.0754
13293TIP3    H261295   4.085   1.083  16.037 -0.6730 -1.0607 -0.2082
13294TIP3   OH261296   1.893   2.867   2.298  0.0636  0.2794 -0.4133
13294TIP3    H161297   1.842   2.946   2.317 -1.5261 -0.0942 -2.7374
13294TIP3    H261298   1.971   2.875   2.353 -2.4041  0.8913  3.3873
13295TIP3   OH261299   6.180   0.646   3.846 -0.0457 -0.0306 -0.8513
13295TIP3    H161300   6.102   0.603   3.811 -0.5812 -0.0899  0.3585
13295TIP3    H261301   6.230   0.672   3.769 -0.5125 -1.3521 -1.6404
13296TIP3   OH261302   3.539   1.588   2.554  0.1616  0.3029 -0.4034
13296TIP3    H161303   3.523   1.667   2.503  0.7856  0.4820 -0.3299
13296TIP3    H261304   3.468   1.528   2.529  1.0249 -0.0042 -2.2729
13297TIP3   OH261305   3.502   5.961  15.420 -0.2526 -0.0489  0.6884
13297TIP3    H161306   3.430   5.925  15.472  0.0004 -1.0120  0.3852
13297TIP3    H261307   3.491   5.923  15.333  0.2069  0.3667  0.4405
13298TIP3   OH261308   2.417   2.279  14.904  0.3059 -0.1848  0.1574
13298TIP3    H161309   2.382   2.205  14.854  1.7437 -0.1602 -0.9568
13298TIP3    H261310   2.446   2.341  14.837 -1.6357  1.8224  1.0528
13299TIP3   OH261311   2.818   1.938   6.308  0.1554 -0.4320  0.1147
13299TIP3    H161312   2.827   1.983   6.392 -0.5592 -1.0315  0.5153
13299TIP3    H261313   2.819   1.845   6.329  3.6048 -0.7791 -0.8798
13300TIP3   OH261314   2.684   4.576   0.338  0.5505 -0.1658  0.2922
13300TIP3    H161315   2.595   4.551   0.365  0.4969 -1.0114 -0.6527
13300TIP3    H261316   2.735   4.571   0.419  0.1251 -1.4458  0.5069
13301TIP3   OH261317   2.311   0.871   0.084 -0.2316 -0.2856 -0.1658
13301TIP3    H161318   2.306   0.856  -0.011  0.0407  0.7478 -0.3572
13301TIP3    H261319   2.366   0.949   0.093 -2.6119  1.4386  0.6428
13302TIP3   OH261320   4.492   5.242   5.942 -0.2634 -0.4516 -0.8519
13302TIP3    H161321   4.446   5.171   5.986 -0.6942  0.1352 -0.3477
13302TIP3    H261322   4.515   5.206   5.856 -0.6289 -1.1367 -0.6686
13303TIP3   OH261323   5.433   4.019  15.950 -0.5412  0.2208  0.5198
13303TIP3    H161324   5.388   3.998  16.031  0.7992 -1.5228  0.8674
13303TIP3    H261325   5.510   4.070  15.977  0.1941 -0.8136  0.4236
13304TIP3   OH261326   4.984   6.217   2.122 -0.1256  0.2726 -0.2077
13304TIP3    H161327   4.993   6.140   2.065  0.8090 -1.6415  2.3375
13304TIP3    H261328   5.063   6.268   2.105  0.8265 -0.9746  0.2736
13305TIP3   OH261329   3.723   3.862   5.114 -0.3255  0.6572 -0.8281
13305TIP3    H161330   3.678   3.845   5.031 -0.8650  0.5637 -0.5143
13305TIP3    H261331   3.655   3.893   5.173 -0.1766 -0.4693 -0.0438
13306TIP3   OH261332   0.031   6.469  16.302  0.4502 -0.1280 -1.6840
13306TIP3    H161333   0.061   6.397  16.246 -0.6807 -0.8046 -1.4530
13306TIP3    H261334   0.017   6.541  16.241 -1.0536 -0.9474 -2.3792
13307TIP3   OH261335   4.413   2.516  17.093 -0.1643 -0.0164  0.7526
13307TIP3    H161336   4.329   2.562  17.083 -0.1173 -0.2833 -1.2178
13307TIP3    H261337   4.391   2.436  17.142 -1.6461 -1.4201 -1.9817
13308TIP3   OH261338   3.906   3.553  14.809 -0.0446  0.1882  0.2143
13308TIP3    H161339   3.849   3.574  14.883 -0.8496 -1.5847  0.1439
13308TIP3    H261340   3.993   3.545  14.847 -0.0746  1.4132  0.5857
13309TIP3   OH261341   1.091   5.507   1.053  0.4304 -0.9133  0.3086
13309TIP3    H161342   1.056   5.462   1.130 -0.5390  0.4939  0.7137
13309TIP3    H261343   1.171   5.459   1.033  0.7400 -1.2976  2.2224
13310TIP3   OH261344   5.916   4.967   5.445 -0.0969 -0.1267  0.4856
13310TIP3    H161345   5.980   4.952   5.515  0.6982 -0.2098 -0.2462
13310TIP3    H261346   5.870   4.883   5.436 -1.6455  0.4333  2.2736
13311TIP3   OH261347   1.165   5.159   0.262 -0.1325 -0.3219  0.0365
13311TIP3    H161348   1.073   5.154   0.289 -0.3065  4.3971  1.2444
13311TIP3    H261349   1.215   5.137   0.341 -0.3633  0.8841  0.5369
13312TIP3   OH261350   2.785   0.349   0.296  0.6666  0.0915  0.0103
13312TIP3    H161351   2.776   0.345   0.391 -0.8490 -0.8884 -0.1358
13312TIP3    H261352   2.701   0.384   0.266  0.7270 -0.6043 -1.0133
13313TIP3   OH261353   1.490   0.048   5.311  0.6165  0.0755 -0.1109
13313TIP3    H161354   1.570   0.090   5.342 -0.3282  1.2870  0.7894
13313TIP3    H261355   1.481  -0.030   5.366  1.1896 -0.0911 -0.2479
13314TIP3   OH261356   4.304   2.561  16.545  0.0641 -0.4537 -0.5110
13314TIP3    H161357   4.215   2.596  16.534  0.2548  0.0335 -0.5067
13314TIP3    H261358   4.291   2.480  16.595 -0.5721 -1.4304 -2.1654
13315TIP3   OH261359   0.134   2.581  12.794 -1.0606  0.2565  0.7746
13315TIP3    H161360   0.092   2.525  12.859 -1.5528 -0.7792 -0.3887
13315TIP3    H261361   0.205   2.527  12.758 -2.8794 -0.5691 -1.8989
13316TIP3   OH261362   2.158   2.483   5.329  0.2894  0.0743 -0.0059
13316TIP3    H161363   2.243   2.442   5.314  0.8774  1.7017 -1.3537
13316TIP3    H261364   2.104   2.453   5.256  0.9414  2.1692 -1.4239
13317TIP3   OH261365   0.533   3.515   1.308  0.0393 -0.0313  0.4602
13317TIP3    H161366   0.542   3.546   1.218  1.1788 -0.4286  0.4164
13317TIP3    H261367   0.448   3.471   1.310 -1.1818  2.1935  0.2790
13318TIP3   OH261368   4.026   3.390  10.840 -0.2099  0.2046  0.1925
13318TIP3    H161369   4.031   3.352  10.927 -1.3700  1.0647  0.6646
13318TIP3    H261370   4.030   3.485  10.855 -1.3662  0.4000 -0.5851
13319TIP3   OH261371   2.679   2.849   6.303 -0.3641  0.6929  0.2503
13319TIP3    H161372   2.708   2.780   6.244 -2.3493 -0.3507  0.3979
13319TIP3    H261373   2.747   2.853   6.371 -0.6159 -1.7974  0.7417
13320TIP3   OH261374   6.054   4.764  14.353  0.4539 -0.4274  0.3762
13320TIP3    H161375   6.136   4.795  14.314 -0.1671 -0.3021 -0.8648
13320TIP3    H261376   6.037   4.680  14.310 -0.7547  0.1734 -0.3638
13321TIP3   OH261377   0.972   0.628  12.130 -0.9939 -0.4925  0.3728
13321TIP3    H161378   1.051   0.574  12.131 -1.1222 -0.7097 -0.4143
13321TIP3    H261379   0.991   0.700  12.190 -0.9189 -1.5319  1.6427
13322TIP3   OH261380   2.896   4.947   6.096 -0.5428  0.5087  0.3683
13322TIP3    H161381   2.871   4.985   6.181 -2.1111  0.2040  0.0644
13322TIP3    H261382   2.818   4.957   6.041 -0.5709 -1.9659 -0.1243
13323TIP3   OH261383   4.717   5.709  10.753 -0.3073 -0.2862 -0.5004
13323TIP3    H161384   4.753   5.660  10.679 -1.6633 -1.8122 -0.2110
13323TIP3    H261385   4.667   5.780  10.713  0.9585  0.3602 -0.9603
13324TIP3   OH261386   4.679   2.421  16.561  0.3012  0.2129 -0.5533
13324TIP3    H161387   4.740   2.389  16.628 -0.4960  1.4682  0.8379
13324TIP3    H261388   4.673   2.515  16.577 -2.1142  0.1142 -0.5288
13325TIP3   OH261389   2.834   3.520  11.807  0.0948  0.0831  0.5134
13325TIP3    H161390   2.869   3.480  11.886  0.4220  1.9982  1.4099
13325TIP3    H261391   2.899   3.586  11.783 -1.2069  1.3032  0.1755
13326TIP3   OH261392   1.394   3.218   1.148  0.3425 -0.3869 -0.4594
13326TIP3    H161393   1.453   3.195   1.220  0.8535 -0.0928 -0.7795
13326TIP3    H261394   1.450   3.263   1.085 -0.5532  1.3687 -0.0359
13327TIP3   OH261395   4.260   0.426   3.955  0.3989 -0.5188 -0.0990
13327TIP3    H161396   4.328   0.493   3.951 -0.5501  0.4498 -0.2719
13327TIP3    H261397   4.195   0.452   3.891 -0.4266 -1.1147  0.4674
13328TIP3   OH261398   4.668   0.459  14.923  0.7351 -0.1030  0.0312
13328TIP3    H161399   4.686   0.416  15.007 -0.5377 -1.9581 -0.5743
13328TIP3    H261400   4.583   0.500  14.935  0.2392 -0.9435 -0.5344
13329TIP3   OH261401   5.634   2.271  11.094  0.0627  0.1000 -0.1722
13329TIP3    H161402   5.559   2.321  11.064  0.3615 -0.2463 -1.5524
13329TIP3    H261403   5.604   2.180  11.097  0.1173  0.0940  0.3405
13330TIP3   OH261404   5.461   0.751  15.157  0.3301 -0.3427 -0.7557
13330TIP3    H161405   5.473   0.846  15.151 -0.1590 -0.1179  1.1531
13330TIP3    H261406   5.383   0.740  15.213  1.4861 -1.8469  0.6748
13331TIP3   OH261407   3.240   0.743   0.255  0.6725 -0.2398 -0.1720
13331TIP3    H161408   3.170   0.691   0.296  0.3532  0.1634 -0.1984
13331TIP3    H261409   3.215   0.746   0.162  0.7879 -0.1951 -0.2014
13332TIP3   OH261410   2.343   0.589  12.468  0.1107  0.4493  0.0884
13332TIP3    H161411   2.387   0.638  12.537  3.0098  0.2024 -1.4471
13332TIP3    H261412   2.263   0.555  12.510  1.9630 -0.1594  3.4646
13333TIP3   OH261413   5.145   5.257  13.457 -0.2486  0.0043 -0.2690
13333TIP3    H161414   5.203   5.296  13.391 -1.0139  0.7341 -0.5240
13333TIP3    H261415   5.160   5.309  13.536  0.1613 -0.4364 -0.0482
13334TIP3   OH261416   6.126   4.036   0.995 -0.8205 -0.3356  0.1184
13334TIP3    H161417   6.041   4.062   1.032 -0.9522  1.4775 -1.2722
13334TIP3    H261418   6.105   4.008   0.906 -0.1507 -1.5816  0.3436
13335TIP3   OH261419   5.053   1.050  14.353  0.0386 -0.0409 -0.3357
13335TIP3    H161420   4.993   1.041  14.427 -1.1888 -2.7030 -1.5287
13335TIP3    H261421   5.004   1.104  14.290 -0.0755 -0.0983 -0.2976
13336TIP3   OH261422   2.232   2.157  11.072  0.0065 -0.3526 -0.4843
13336TIP3    H161423   2.213   2.212  10.996  1.1270 -0.2151 -0.6833
13336TIP3    H261424   2.282   2.084  11.036 -1.5894 -1.6176 -0.2545
13337TIP3   OH261425   3.096   2.912   4.331 -0.0477 -0.6299  0.0267
13337TIP3    H161426   3.076   2.950   4.246  0.6735  0.0481  0.1461
13337TIP3    H261427   3.157   2.840   4.312  0.7485  0.0318  0.0287
13338TIP3   OH261428   3.969   3.612   3.299 -0.3773 -0.6400 -0.1763
13338TIP3    H161429   3.993   3.522   3.273 -0.2952 -0.4394 -0.8317
13338TIP3    H261430   3.890   3.602   3.352  0.3388 -1.2033  0.8175
13339TIP3   OH261431   1.223   1.624   1.719  0.7572 -0.1188  0.6607
13339TIP3    H161432   1.260   1.580   1.795 -1.3626 -0.9253  1.3050
13339TIP3    H261433   1.192   1.553   1.663  0.9173  0.5010 -0.2398
13340TIP3   OH261434   0.390   0.100   4.369  0.3633  0.1837 -0.4321
13340TIP3    H161435   0.441   0.043   4.311  0.9679  2.0489 -1.8506
13340TIP3    H261436   0.449   0.117   4.442  1.6874  1.9073 -1.8102
13341TIP3   OH261437   2.289   4.000  13.718 -0.4366  0.0666 -0.4328
13341TIP3    H161438   2.253   4.031  13.802  0.1490 -0.6889  0.1098
13341TIP3    H261439   2.384   4.009  13.729 -0.4001  1.1786 -1.5076
13342TIP3   OH261440   2.858   0.867  16.190  0.3735  0.1391 -0.7545
13342TIP3    H161441   2.854   0.961  16.172  1.2366  0.0814 -1.3170
13342TIP3    H261442   2.951   0.845  16.183  0.5021 -0.3179  1.7646
13343TIP3   OH261443   2.366   3.041   4.958  0.2069 -0.7230 -0.4060
13343TIP3    H161444   2.277   3.007   4.946 -0.5597  1.2956 -0.8686
13343TIP3    H261445   2.353   3.129   4.994  1.9513  0.0982 -1.6510
13344TIP3   OH261446   5.936   6.024  16.092 -0.7101  0.0079 -0.3483
13344TIP3    H161447   6.015   5.971  16.082 -0.9299 -0.1533 -1.3059
13344TIP3    H261448   5.897   6.026  16.005 -2.1834 -0.5715  0.2562
13345TIP3   OH261449   4.100   0.590  14.512  0.3861 -0.0961  0.2284
13345TIP3    H161450   4.181   0.587  14.460  0.4250 -0.5629  0.3124
13345TIP3    H261451   4.030   0.592  14.447  0.4024 -1.5065  0.1331
13346TIP3   OH261452   5.090   0.771   1.791  0.5273  0.3196 -0.4576
13346TIP3    H161453   5.024   0.794   1.857 -0.2421 -0.9222 -0.7589
13346TIP3    H261454   5.154   0.720   1.840  1.1169  1.2503 -0.2339
13347TIP3   OH261455   1.064   5.965  15.241 -0.2315  0.1537  0.1264
13347TIP3    H161456   1.020   6.020  15.176 -0.5078  1.2991  1.2310
13347TIP3    H261457   1.144   6.013  15.263  0.0957 -0.4567  0.2889
13348TIP3   OH261458   5.110   0.531   1.569  0.2397  0.0236  0.4829
13348TIP3    H161459   5.156   0.479   1.635  1.1158  1.0250  0.6885
13348TIP3    H261460   5.044   0.472   1.534  2.2502 -1.7685 -0.4453
13349TIP3   OH261461   0.560   3.960   5.051  0.3828 -0.0448  0.1139
13349TIP3    H161462   0.637   3.912   5.081  0.2934 -0.4150 -0.2395
13349TIP3    H261463   0.573   3.968   4.956 -0.2942 -0.6215 -0.0383
13350TIP3   OH261464   1.331   3.916   2.495  0.2250 -0.0788 -0.1088
13350TIP3    H161465   1.417   3.956   2.509  0.8244 -0.5324 -2.1556
13350TIP3    H261466   1.285   3.976   2.437 -0.9845  0.2928  1.1875
13351TIP3   OH261467   6.620   2.709   2.166  0.1664  0.3178  0.4839
13351TIP3    H161468   6.641   2.696   2.073 -0.9097  0.4868  0.2102
13351TIP3    H261469   6.622   2.621   2.203 -0.1734  0.1613  0.1360
13352TIP3   OH261470   0.755   0.310   2.816 -0.8079 -0.4775 -0.1098
13352TIP3    H161471   0.775   0.220   2.841  0.1352 -0.6328 -1.3266
13352TIP3    H261472   0.718   0.302   2.728  2.0163  0.4942 -1.5065
13353TIP3   OH261473   2.667   0.438   2.935 -0.1721  0.6514 -0.0327
13353TIP3    H161474   2.638   0.436   3.026 -0.5381 -2.0495 -0.1361
13353TIP3    H261475   2.588   0.461   2.885  0.0235  2.1058  0.2735
13354TIP3   OH261476   6.566   1.043   1.240 -0.5589  0.1380 -0.3344
13354TIP3    H161477   6.509   1.091   1.300 -0.9424  0.0945 -0.6586
13354TIP3    H261478   6.543   0.951   1.253 -0.3750  0.1016 -0.2724
13355TIP3   OH261479   1.416   1.561  12.578 -0.2458  0.2984  0.4907
13355TIP3    H161480   1.370   1.502  12.519 -0.8071  1.1466  0.0643
13355TIP3    H261481   1.432   1.640  12.527 -2.3897  1.7973  1.9272
13356TIP3   OH261482   6.112   1.904   0.896  0.2567 -0.1691 -0.2303
13356TIP3    H161483   6.034   1.915   0.950 -0.0235 -0.0450 -0.6513
13356TIP3    H261484   6.081   1.922   0.806  0.0806 -2.9773 -0.8069
13357TIP3   OH261485   1.719   5.319   4.032 -0.0302  0.0060  0.0978
13357TIP3    H161486   1.731   5.412   4.016  0.0694 -0.0821 -0.3577
13357TIP3    H261487   1.673   5.287   3.955  0.8053 -0.5041 -0.2063
13358TIP3   OH261488   6.230   2.537  14.117 -0.1575 -0.0253 -0.0702
13358TIP3    H161489   6.210   2.625  14.150 -1.1671 -0.2400 -0.0742
13358TIP3    H261490   6.249   2.486  14.196 -1.7093 -0.3236  0.1390
13359TIP3   OH261491   4.009   2.325   3.674 -0.1574 -0.2420  0.0680
13359TIP3    H161492   4.081   2.268   3.701 -0.8319 -1.4594 -0.6084
13359TIP3    H261493   3.951   2.268   3.624  0.2946  1.5561 -2.7534
13360TIP3   OH261494   0.019   5.656   1.771  0.0675 -0.1384  0.5620
13360TIP3    H161495   0.021   5.562   1.788  0.8040 -0.5649 -1.5971
13360TIP3    H261496   0.014   5.663   1.676 -0.7670  2.0222  0.7088
13361TIP3   OH261497   2.752   2.029   1.061 -0.4143  0.4724  0.0242
13361TIP3    H161498   2.736   1.934   1.060 -0.3157  0.4461  0.5768
13361TIP3    H261499   2.687   2.064   1.000 -0.4684  0.0497 -0.1671
13362TIP3   OH261500   4.210   2.709  13.034  0.0610  0.1409 -0.0186
13362TIP3    H161501   4.197   2.643  13.102 -3.3506 -0.6104 -1.1653
13362TIP3    H261502   4.182   2.791  13.075  0.7418  0.2039  0.3191
13363TIP3   OH261503   3.246   0.389  11.568 -0.1019  0.5642  0.2352
13363TIP3    H161504   3.289   0.363  11.487 -0.1158 -2.5738  1.1183
13363TIP3    H261505   3.165   0.431  11.541  1.2345  2.3291 -1.3503
13364TIP3   OH261506   3.768   6.688  14.073  0.0440 -0.2327 -0.2877
13364TIP3    H161507   3.803   6.769  14.037  0.3677 -0.0315  0.4502
13364TIP3    H261508   3.842   6.626  14.069 -0.0016 -0.2905 -0.2408
13365TIP3   OH261509   2.661   0.395  11.835  0.2102  0.0201 -0.4244
13365TIP3    H161510   2.576   0.356  11.813  0.3770  0.3215 -1.6885
13365TIP3    H261511   2.639   0.477  11.879 -0.1606  0.1075 -0.7675
13366TIP3   OH261512   0.575   5.906  12.138  0.1789 -0.0056 -0.0463
13366TIP3    H161513   0.483   5.890  12.117  0.3570 -0.0339 -0.8536
13366TIP3    H261514   0.609   5.820  12.160  0.1067 -0.0627 -0.1529
13367TIP3   OH261515   5.360   6.170   1.851 -0.9197 -0.4529  0.0302
13367TIP3    H161516   5.291   6.189   1.788 -0.9975  0.9596  0.5104
13367TIP3    H261517   5.328   6.206   1.933 -0.6327 -1.8888  0.8042
13368TIP3   OH261518   5.196   0.948  14.674 -0.1665  0.2035  0.0302
13368TIP3    H161519   5.111   0.956  14.631  0.2528 -0.6700 -1.0121
13368TIP3    H261520   5.235   1.035  14.667 -0.0750  0.0707 -1.4787
13369TIP3   OH261521   5.505   1.340  14.482 -0.0541 -0.3915  0.1115
13369TIP3    H161522   5.600   1.353  14.485 -0.2159  0.7490  1.2843
13369TIP3    H261523   5.491   1.283  14.406  1.5013 -0.0491 -0.4801
13370TIP3   OH261524   0.982   1.161   0.064 -0.4789  0.2860  0.3426
13370TIP3    H161525   1.012   1.106   0.137 -0.7189  0.6628  0.7320
13370TIP3    H261526   0.922   1.105   0.015  0.7377 -0.4293 -0.3661
13371TIP3   OH261527   6.415   0.253  12.918 -0.4262  0.4003  0.4378
13371TIP3    H161528   6.427   0.194  12.843  1.3409  0.4893  0.6158
13371TIP3    H261529   6.376   0.332  12.881 -1.8395 -0.4450  0.0264
13372TIP3   OH261530   2.752   4.489   0.085 -0.4840 -0.2631  0.1247
13372TIP3    H161531   2.758   4.508   0.179  1.3047 -1.2450  0.2419
13372TIP3    H261532   2.770   4.395   0.078  0.1131 -0.0702 -1.2556
13373TIP3   OH261533   2.224   5.224  14.903 -0.2042 -0.4040 -0.6605
13373TIP3    H161534   2.255   5.293  14.961 -0.0572 -0.3282 -0.8283
13373TIP3    H261535   2.296   5.160  14.902 -0.0924 -0.2729 -0.9764
13374TIP3   OH261536   3.527   1.765   5.270  0.0035 -0.4653 -0.0173
13374TIP3    H161537   3.502   1.849   5.232  0.6363  0.7872  2.1138
13374TIP3    H261538   3.506   1.700   5.203 -3.9224  0.9744 -0.4046
13375TIP3   OH261539   1.270   4.573   4.919  0.7119  0.0067  0.4682
13375TIP3    H161540   1.357   4.543   4.891 -0.6188 -3.4221 -0.4236
13375TIP3    H261541   1.278   4.583   5.014  2.2936  0.7382  0.2995
13376TIP3   OH261542   5.416   1.501   4.756  0.0830  0.0474  0.2717
13376TIP3    H161543   5.449   1.412   4.770  0.6178  0.1968 -0.0068
13376TIP3    H261544   5.322   1.489   4.740 -0.0426 -0.3690  1.2394
13377TIP3   OH261545   2.053   6.282  14.718  0.3296  0.4498  0.6614
13377TIP3    H161546   1.965   6.247  14.729  0.2211  0.9463  1.4136
13377TIP3    H261547   2.091   6.284  14.806  1.1153  0.1895  0.3402
13378TIP3   OH261548   4.832   5.915  16.011 -0.0602 -0.5991 -0.3411
13378TIP3    H161549   4.898   5.985  16.015 -0.0920 -0.4135 -2.2038
13378TIP3    H261550   4.853   5.867  15.931 -1.1543 -1.6108 -0.0416
13379TIP3   OH261551   6.012   0.680  13.211 -0.2765  0.1300 -0.0897
13379TIP3    H161552   6.048   0.763  13.181 -1.0171  0.3261 -0.4593
13379TIP3    H261553   5.987   0.634  13.131 -0.5132 -0.1543  0.1460
13380TIP3   OH261554   3.287   1.976   4.684 -0.2847 -0.0558 -0.1096
13380TIP3    H161555   3.215   1.957   4.623  0.3701  0.9004 -1.2165
13380TIP3    H261556   3.340   1.896   4.684 -0.8399 -0.4336  0.0141
13381TIP3   OH261557   0.143   5.111   0.903  0.3020 -0.0209 -0.2503
13381TIP3    H161558   0.148   5.026   0.858  2.0625 -0.0002 -0.1581
13381TIP3    H261559   0.049   5.126   0.916 -0.1211 -1.1705 -1.7388
13382TIP3   OH261560   3.890   4.536   3.609  0.3755  0.1367 -0.4048
13382TIP3    H161561   3.800   4.512   3.586  1.0477 -1.0511 -1.9678
13382TIP3    H261562   3.884   4.628   3.636 -1.1396  0.4144 -1.5419
13383TIP3   OH261563   4.117   4.418  13.008 -0.3979  0.0248 -0.1611
13383TIP3    H161564   4.157   4.372  13.082  0.8026  0.6109 -0.4015
13383TIP3    H261565   4.029   4.383  13.001  0.4881 -2.2987 -0.4027
13384TIP3   OH261566   0.933   3.069   1.062  0.0319 -0.1052  0.2610
13384TIP3    H161567   1.011   3.021   1.035 -0.0486 -0.5489  0.8017
13384TIP3    H261568   0.965   3.129   1.130  0.0216  0.1872  0.0107
13385TIP3   OH261569   5.547   3.495   4.445  0.6198 -0.2343 -0.1319
13385TIP3    H161570   5.485   3.560   4.476  0.4765 -0.9860  1.2426
13385TIP3    H261571   5.601   3.475   4.521  1.1636 -1.1515 -0.7366
13386TIP3   OH261572   4.815   6.004  11.442  0.1187 -0.1711 -0.0615
13386TIP3    H161573   4.843   6.072  11.381 -0.2291 -1.3627 -1.6242
13386TIP3    H261574   4.741   6.042  11.489 -0.5540  0.2957 -1.4404
13387TIP3   OH261575   0.246   6.107  11.208 -0.8110 -0.1497  0.2704
13387TIP3    H161576   0.202   6.157  11.140 -1.7048 -1.7048 -0.3470
13387TIP3    H261577   0.185   6.106  11.282 -1.1362 -0.9380  0.0037
13388TIP3   OH261578   3.790   1.667   2.656  0.5354  0.4209  0.0804
13388TIP3    H161579   3.707   1.650   2.610 -0.0572 -0.3827  1.3648
13388TIP3    H261580   3.766   1.664   2.749  2.1128 -0.4646  0.4962
13389TIP3   OH261581   4.292   5.528   4.932 -0.1905  0.0975  0.7321
13389TIP3    H161582   4.214   5.566   4.973 -0.6306  1.1197 -0.9660
13389TIP3    H261583   4.355   5.520   5.004 -0.9818  1.6227  1.6602
13390TIP3   OH261584   5.214   1.017   3.525  0.3911  0.0673 -0.2839
13390TIP3    H161585   5.273   1.057   3.461 -1.1926 -0.3370 -2.0810
13390TIP3    H261586   5.143   1.081   3.536  0.3206 -0.1469  0.6079
13391TIP3   OH261587   4.506   4.816   3.018 -0.0704  0.2577 -0.2319
13391TIP3    H161588   4.578   4.763   2.982  1.3353  1.8031  0.1897
13391TIP3    H261589   4.467   4.859   2.942  0.3473  0.4640 -0.3335
13392TIP3   OH261590   2.788   6.589  13.430  0.6447 -0.4405 -0.1919
13392TIP3    H161591   2.706   6.561  13.471 -0.6551  1.6812 -1.2185
13392TIP3    H261592   2.819   6.661  13.484  0.2596  0.6974 -1.4481
13393TIP3   OH261593   4.182   5.458   4.539 -0.2143 -0.3861 -0.0222
13393TIP3    H161594   4.174   5.406   4.619 -0.4064  0.7829  0.7483
13393TIP3    H261595   4.249   5.523   4.559 -1.2711  0.8259 -0.2825
13394TIP3   OH261596   4.835   0.806  11.559  0.0709 -0.3589 -0.3259
13394TIP3    H161597   4.792   0.838  11.480  0.7141  1.7333  0.1298
13394TIP3    H261598   4.925   0.787  11.532 -0.3359 -2.1042 -0.6302
13395TIP3   OH261599   3.900   0.130  11.759  0.0424 -0.0499  0.1317
13395TIP3    H161600   3.868   0.199  11.817  1.2277 -0.1986  0.9988
13395TIP3    H261601   3.979   0.167  11.719  0.1719 -0.5699 -0.1011
13396TIP3   OH261602   3.022   0.818   6.045 -0.2182  0.3279 -0.3952
13396TIP3    H161603   2.983   0.833   6.131 -0.6839  2.5836 -0.9068
13396TIP3    H261604   2.947   0.812   5.986  0.1176  1.5441 -0.9753
13397TIP3   OH261605   5.496   4.009  17.205  0.8384  0.0136 -0.2783
13397TIP3    H161606   5.460   4.090  17.242  1.9432  1.2887 -1.8571
13397TIP3    H261607   5.573   3.990  17.259  1.0737  0.5095 -0.4367
13398TIP3   OH261608   2.317   5.659   1.617 -0.1715 -0.2928  0.0929
13398TIP3    H161609   2.394   5.714   1.632  1.1407 -1.6721 -1.2767
13398TIP3    H261610   2.245   5.721   1.608  1.4455  1.3703 -2.7358
13399TIP3   OH261611   4.879   6.322   0.637 -0.5850 -0.2570  0.5895
13399TIP3    H161612   4.821   6.269   0.582 -0.8217 -0.9548  1.4968
13399TIP3    H261613   4.903   6.265   0.710 -1.1499  0.9877  1.8012
13400TIP3   OH261614   1.648   5.981   6.840 -0.4825 -0.0108 -0.5219
13400TIP3    H161615   1.585   6.053   6.836  1.8784  2.1689 -1.0648
13400TIP3    H261616   1.641   5.937   6.756  1.2512  2.6461 -2.2231
13401TIP3   OH261617   4.926   4.206   3.745  0.0150 -0.0677 -0.0834
13401TIP3    H161618   4.845   4.256   3.752  0.7296  1.2429 -0.6554
13401TIP3    H261619   4.978   4.235   3.820  0.9430  1.0757 -1.1226
13402TIP3   OH261620   0.522   5.552   1.326  0.0498  0.0930  0.2238
13402TIP3    H161621   0.567   5.558   1.242 -2.5823  0.3073 -1.2762
13402TIP3    H261622   0.514   5.459   1.343  0.2252  0.0420  0.0261
13403TIP3   OH261623   4.923   0.371  11.684  0.1063 -0.1476  0.1053
13403TIP3    H161624   5.015   0.344  11.690 -0.2330 -1.6531 -0.7933
13403TIP3    H261625   4.926   0.466  11.673  1.5347 -0.1453  0.3295
13404TIP3   OH261626   2.358   2.436  15.765 -0.1865 -0.2255 -0.0482
13404TIP3    H161627   2.381   2.358  15.715 -1.3914 -0.3765 -0.3922
13404TIP3    H261628   2.355   2.405  15.856 -1.8705 -0.9059 -0.2999
13405TIP3   OH261629   0.463   3.959  12.001  0.0756 -0.0176  0.0600
13405TIP3    H161630   0.383   3.945  11.950 -0.5596  2.3011  0.3126
13405TIP3    H261631   0.514   3.880  11.986 -1.8949 -1.2299 -0.7695
13406TIP3   OH261632   3.210   5.183  10.872  0.4843  0.1559 -0.8486
13406TIP3    H161633   3.173   5.097  10.851 -0.9037  0.4863  0.1217
13406TIP3    H261634   3.304   5.173  10.855  0.4092 -1.6373 -0.4697
13407TIP3   OH261635   6.597   3.251   6.143  0.0098 -0.2474 -0.2570
13407TIP3    H161636   6.649   3.172   6.157  2.4379  0.9057 -2.0627
13407TIP3    H261637   6.626   3.311   6.212  0.7887  0.2548 -1.0121
13408TIP3   OH261638   1.431   4.866   1.209 -0.3065  0.5705 -0.0870
13408TIP3    H161639   1.340   4.896   1.206  0.0264  1.7790  1.0330
13408TIP3    H261640   1.458   4.865   1.117 -1.4127  0.2775 -0.4310
13409TIP3   OH261641   6.671   4.827  11.237  0.3268  0.3061 -0.0786
13409TIP3    H161642   6.740   4.851  11.299 -0.0249 -0.7109  0.7258
13409TIP3    H261643   6.715   4.771  11.173  0.4108  0.2928 -0.0097
13410TIP3   OH261644   4.750   3.420   6.287  0.1114  0.5645  0.3248
13410TIP3    H161645   4.793   3.494   6.329  0.6258 -0.6105  1.9728
13410TIP3    H261646   4.754   3.439   6.194  1.0744  2.1396  0.6601
13411TIP3   OH261647   1.807   6.355   1.493 -1.1323 -0.3313  0.0070
13411TIP3    H161648   1.785   6.302   1.415  1.5251 -0.2186 -0.9146
13411TIP3    H261649   1.812   6.444   1.460  0.7275 -0.3697  0.0858
13412TIP3   OH261650   0.307   5.828  14.117  0.0888  0.2621  0.3429
13412TIP3    H161651   0.321   5.827  14.212  1.0776 -0.9213  0.2049
13412TIP3    H261652   0.390   5.858  14.081 -0.0888  0.1425 -0.1668
13413TIP3   OH261653   2.888   1.895   4.209 -0.0341 -0.1125  0.5302
13413TIP3    H161654   2.894   1.961   4.140  0.4811 -0.1505  0.5325
13413TIP3    H261655   2.821   1.928   4.268  1.0258  1.0140  1.1588
13414TIP3   OH261656   2.930   2.352  15.819 -0.2097 -0.1751 -0.5358
13414TIP3    H161657   2.945   2.310  15.904 -0.1038 -0.0629 -0.4995
13414TIP3    H261658   2.847   2.399  15.830 -0.2580 -0.2607 -0.5325
13415TIP3   OH261659   6.702   1.788  12.517 -0.1526 -0.0069 -0.2025
13415TIP3    H161660   6.684   1.708  12.565  2.3086 -0.2585  0.4294
13415TIP3    H261661   6.623   1.841  12.528 -1.6630 -2.1167 -0.2704
13416TIP3   OH261662   3.478   3.448   1.174 -0.1103  0.3062  0.6412
13416TIP3    H161663   3.439   3.530   1.142 -0.5663  0.0531  0.5390
13416TIP3    H261664   3.446   3.381   1.114 -0.0757 -0.0101  0.9747
13417TIP3   OH261665   3.171   5.130   5.567 -0.2996 -0.3760  0.3231
13417TIP3    H161666   3.189   5.163   5.479  0.3270  0.7198  0.8420
13417TIP3    H261667   3.103   5.063   5.554  1.4020 -1.9156 -1.2637
13418TIP3   OH261668   1.393   5.498  15.773  0.2144 -0.2103  0.1752
13418TIP3    H161669   1.477   5.529  15.739 -0.0023  1.3599  0.9524
13418TIP3    H261670   1.355   5.575  15.815 -2.1313 -0.5872 -1.1139
13419TIP3   OH261671   5.443   0.945  14.228 -0.2181  0.0054  0.0261
13419TIP3    H161672   5.389   0.865  14.232 -0.3686  0.1524  0.9805
13419TIP3    H261673   5.394   1.009  14.279 -0.6698  1.0660 -1.6661
13420TIP3   OH261674   6.469   0.087  11.887  0.1255  0.0402  0.3184
13420TIP3    H161675   6.554   0.101  11.930 -0.2030  1.1413  0.6271
13420TIP3    H261676   6.466   0.153  11.818  0.2182 -1.0767 -0.8019
13421TIP3   OH261677   1.000   4.508   1.788 -0.1405 -0.2552 -0.1388
13421TIP3    H161678   0.944   4.457   1.847 -0.1637 -2.7031 -2.1454
13421TIP3    H261679   1.089   4.496   1.823 -0.3669  0.1626  0.6206
13422TIP3   OH261680   3.043   2.445  17.176 -0.0129  0.4822  0.2709
13422TIP3    H161681   3.066   2.379  17.111  0.1873 -1.3722  2.1224
13422TIP3    H261682   2.949   2.460  17.164 -0.5511 -1.7933  1.1640
13423TIP3   OH261683   5.699   2.019  13.881 -0.1025 -0.9885 -0.1611
13423TIP3    H161684   5.644   1.957  13.931  1.6723 -1.6804  1.0273
13423TIP3    H261685   5.787   2.007  13.917  0.3929  1.9896 -0.1475
13424TIP3   OH261686   0.710   6.083  15.575 -0.0497  0.0405  0.7012
13424TIP3    H161687   0.682   6.012  15.517 -2.3223 -1.6937  3.5974
13424TIP3    H261688   0.628   6.117  15.611  1.1383  2.5635  1.2112
13425TIP3   OH261689   6.424   0.701  12.702 -0.0079  0.2080 -0.2401
13425TIP3    H161690   6.441   0.610  12.729  0.3308 -0.0388 -1.2575
13425TIP3    H261691   6.424   0.750  12.785  3.5545 -0.1074  0.1228
13426TIP3   OH261692   4.115   5.279   2.988 -0.1023  0.0150  0.1330
13426TIP3    H161693   4.081   5.207   3.041  1.6859 -1.0286 -0.0513
13426TIP3    H261694   4.211   5.270   2.994  0.1538  1.5305 -1.0436
13427TIP3   OH261695   2.777   2.597  16.652 -0.0624  0.4940 -0.0675
13427TIP3    H161696   2.783   2.522  16.592  1.3611  0.4192  0.1315
13427TIP3    H261697   2.815   2.566  16.734  2.4297  1.9724 -0.5665
13428TIP3   OH261698   5.821   2.085   1.244 -1.2580  0.1221 -0.4774
13428TIP3    H161699   5.814   2.180   1.232 -0.3356  0.1017 -1.4119
13428TIP3    H261700   5.762   2.048   1.178 -0.1587  0.0546 -1.4669
13429TIP3   OH261701   5.387   3.613   4.938 -0.4338  0.5112  0.6463
13429TIP3    H161702   5.441   3.684   4.903 -0.3793  0.2319  0.1620
13429TIP3    H261703   5.301   3.627   4.899  0.5355 -2.0684 -2.8655
13430TIP3   OH261704   0.098   5.797  16.500  0.1151  0.0230 -0.2229
13430TIP3    H161705   0.147   5.719  16.474 -0.3655 -0.5598  0.5717
13430TIP3    H261706   0.015   5.790  16.453 -0.3602 -0.5195  0.6743
13431TIP3   OH261707   2.744   4.153   2.246 -0.0954  0.0236  0.1862
13431TIP3    H161708   2.825   4.102   2.256  0.2792  0.6953  0.6618
13431TIP3    H261709   2.700   4.113   2.170  0.9925  0.0639 -0.4865
13432TIP3   OH261710   4.678   1.270   5.677 -0.2598 -0.0443 -0.0517
13432TIP3    H161711   4.701   1.226   5.758  0.6312 -0.1814 -0.3674
13432TIP3    H261712   4.694   1.205   5.609 -1.7513 -0.2033 -0.2911
13433TIP3   OH261713   0.840   4.696   4.980  0.0680 -0.2888  0.1584
13433TIP3    H161714   0.752   4.659   4.968 -0.1636  0.0684  0.7115
13433TIP3    H261715   0.888   4.629   5.028 -0.3220  0.0789  1.0757
13434TIP3   OH261716   6.590   5.042   4.271  0.4650  0.2631 -0.2823
13434TIP3    H161717   6.636   5.028   4.354  0.1361 -1.3863 -0.3337
13434TIP3    H261718   6.635   4.985   4.209 -2.3038 -2.4454 -0.0480
13435TIP3   OH261719   4.296   1.445   4.423  0.2937  0.4385 -0.3236
13435TIP3    H161720   4.370   1.420   4.369  2.2822  2.0361  1.4966
13435TIP3    H261721   4.292   1.541   4.417  1.1176  0.7926  2.8362
13436TIP3   OH261722   2.971   0.035  14.078  0.0593  0.1213  0.0064
13436TIP3    H161723   2.964  -0.057  14.104 -0.8461  0.7722  2.3048
13436TIP3    H261724   2.881   0.068  14.079  0.3315  0.9781 -1.1011
13437TIP3   OH261725   1.578   5.148   0.217 -0.3522  0.0975  0.1304
13437TIP3    H161726   1.629   5.159   0.136 -0.6741 -1.9538 -0.4054
13437TIP3    H261727   1.644   5.133   0.285 -0.1475 -2.4585 -0.5465
13438TIP3   OH261728   5.293   5.803   0.924 -0.1115  0.3754 -0.3086
13438TIP3    H161729   5.203   5.830   0.903  0.2029  1.6734 -0.0767
13438TIP3    H261730   5.348   5.869   0.881  0.7309 -0.2654 -0.2382
13439TIP3   OH261731   0.084   4.418   0.983 -0.2578 -0.5380  0.5542
13439TIP3    H161732   0.130   4.396   0.902  0.6293  4.4808 -0.6379
13439TIP3    H261733  -0.006   4.435   0.955  0.0901  1.3779  0.4794
13440TIP3   OH261734   1.620   2.305   5.048 -0.0206  0.0060  0.5081
13440TIP3    H161735   1.575   2.314   5.132 -1.6484  1.3312 -0.4408
13440TIP3    H261736   1.709   2.280   5.072 -0.8223 -1.1723  2.5391
13441TIP3   OH261737   5.824   5.617  15.549  0.0731 -0.5345  0.0434
13441TIP3    H161738   5.919   5.602  15.549  0.0875 -0.4491  0.0082
13441TIP3    H261739   5.815   5.708  15.578 -0.0794 -1.0015  1.5187
13442TIP3   OH261740   0.368   2.630   3.498  0.0887 -0.0851 -0.0598
13442TIP3    H161741   0.379   2.717   3.460 -0.6750 -0.8552 -2.1432
13442TIP3    H261742   0.276   2.626   3.522  0.0208 -0.4886 -0.3916
13443TIP3   OH261743   6.360   6.268  17.279 -0.8970 -0.1284  0.3181
13443TIP3    H161744   6.448   6.247  17.310  0.4288 -0.3667 -3.1269
13443TIP3    H261745   6.324   6.184  17.252 -0.2988  0.3881 -2.4190
13444TIP3   OH261746   0.674   4.751   1.966  0.3888 -0.8216  0.3104
13444TIP3    H161747   0.767   4.751   1.943 -0.1868 -2.8894 -2.6130
13444TIP3    H261748   0.644   4.839   1.945  1.4996 -0.3651  0.5393
13445TIP3   OH261749   3.069   4.214  17.369  0.7045  0.5468  0.5426
13445TIP3    H161750   3.046   4.294  17.321  1.7391  1.3579  1.3514
13445TIP3    H261751   3.112   4.245  17.449  3.5457 -0.7919 -0.3070
13446TIP3   OH261752   3.154   5.744  14.776  0.1900 -0.1668  0.1957
13446TIP3    H161753   3.240   5.784  14.763  0.0733 -0.0570 -0.2406
13446TIP3    H261754   3.150   5.673  14.712  0.1059 -0.4096  0.4706
13447TIP3   OH261755   1.064   1.760  15.542 -0.7860  0.2229  0.1196
13447TIP3    H161756   1.142   1.809  15.568 -0.4326  0.5090 -1.3859
13447TIP3    H261757   1.059   1.689  15.606 -0.3404  1.2235  1.3227
13448TIP3   OH261758   6.698   5.666   3.276  0.3720 -0.0594 -0.7004
13448TIP3    H161759   6.611   5.645   3.240 -0.2869  2.6838 -0.9109
13448TIP3    H261760   6.690   5.648   3.370  0.3139 -1.8567 -1.0078
13449TIP3   OH261761   0.678   2.556  13.675  0.8628 -0.1372  0.0243
13449TIP3    H161762   0.678   2.637  13.727  0.7777 -0.1690  0.0749
13449TIP3    H261763   0.662   2.585  13.585 -0.1451 -0.1741  0.1713
13450TIP3   OH261764   1.523   3.919  11.793 -0.3427  0.3170  0.2009
13450TIP3    H161765   1.546   3.984  11.860 -0.1114 -0.5512  0.9830
13450TIP3    H261766   1.493   3.843  11.843  0.0505 -0.4295 -0.6726
13451TIP3   OH261767   3.177   0.520  16.517 -0.0008  0.4578 -0.4943
13451TIP3    H161768   3.173   0.475  16.433 -0.5201 -0.1149 -0.1760
13451TIP3    H261769   3.228   0.460  16.573 -1.1886 -0.0299  0.0949
13452TIP3   OH261770   0.791   3.127   2.842  0.1874 -0.4539  0.2736
13452TIP3    H161771   0.701   3.112   2.870 -0.0992 -0.5195 -0.6780
13452TIP3    H261772   0.831   3.040   2.843 -0.1429 -0.6255 -0.6056
13453TIP3   OH261773   3.436   1.262  11.647  0.0374 -0.4820 -0.4792
13453TIP3    H161774   3.454   1.308  11.729 -0.5533 -2.1568  0.6396
13453TIP3    H261775   3.458   1.171  11.665 -0.4670 -0.9485 -2.0703
13454TIP3   OH261776   1.795   0.822   4.498  0.2096 -0.0380  0.7529
13454TIP3    H161777   1.881   0.819   4.457  0.3366  0.9732  0.9231
13454TIP3    H261778   1.809   0.864   4.582 -0.5215  0.6600  0.5469
13455TIP3   OH261779   3.063   0.705  15.740 -0.4510 -0.4352 -0.0659
13455TIP3    H161780   3.078   0.763  15.666 -0.1646 -0.5472 -0.0958
13455TIP3    H261781   2.977   0.732  15.774 -0.7984 -0.7021 -0.7226
13456TIP3   OH261782   6.574   5.550  13.530 -0.0855  0.1729 -0.2849
13456TIP3    H161783   6.618   5.505  13.602 -1.7108 -0.5716  0.2832
13456TIP3    H261784   6.640   5.553  13.460  1.3954  0.5722  1.0660
13457TIP3   OH261785   4.678   6.428   0.790 -0.0256  0.7995  0.2970
13457TIP3    H161786   4.764   6.422   0.750  0.4797  1.6927  1.1952
13457TIP3    H261787   4.621   6.462   0.721 -0.1250 -1.5017 -0.8788
13458TIP3   OH261788   1.777   3.537  11.512 -0.3500  0.7666 -0.2896
13458TIP3    H161789   1.791   3.526  11.418  1.8906  0.3394  0.0234
13458TIP3    H261790   1.750   3.450  11.543  0.7980  0.3953 -0.2844
13459TIP3   OH261791   4.156   0.870   5.006  0.0381  0.0771  0.3112
13459TIP3    H161792   4.130   0.905   4.921  0.0286  0.1987  0.3650
13459TIP3    H261793   4.189   0.782   4.986  0.8324  0.4219  0.0700
13460TIP3   OH261794   3.669   0.614  17.351  0.2126 -0.1061  0.0560
13460TIP3    H161795   3.608   0.679  17.388  0.2008  0.2023 -0.4888
13460TIP3    H261796   3.745   0.665  17.325  0.2799 -0.3396 -0.2092
13461TIP3   OH261797   3.593   3.133  15.552 -0.2695 -0.3703 -0.5136
13461TIP3    H161798   3.608   3.060  15.491 -0.4213 -1.5091  0.7585
13461TIP3    H261799   3.501   3.156  15.539  0.1452  0.6387 -1.9769
13462TIP3   OH261800   2.188   0.011  16.318  0.4546 -0.0907  0.3832
13462TIP3    H161801   2.114  -0.031  16.361 -3.8363  5.4990 -0.3113
13462TIP3    H261802   2.238   0.050  16.390 -0.1714  0.0914  0.7293
13463TIP3   OH261803   1.472   1.351   2.348 -0.4950 -0.5561 -0.7375
13463TIP3    H161804   1.558   1.330   2.385 -1.0678  0.0070  0.9777
13463TIP3    H261805   1.427   1.400   2.417 -1.8490 -0.0071 -1.9669
13464TIP3   OH261806   5.627   2.606   5.762  0.0959 -0.1104 -0.0636
13464TIP3    H161807   5.598   2.660   5.835 -1.7375  0.8557 -1.4110
13464TIP3    H261808   5.571   2.529   5.765 -0.0142 -0.0483 -0.4629
13465TIP3   OH261809   3.998   4.718  12.929 -0.1851 -0.7922 -0.0157
13465TIP3    H161810   4.090   4.702  12.908  0.1292  1.8375 -1.0132
13465TIP3    H261811   3.992   4.703  13.024  1.1580 -1.4092 -0.0150
13466TIP3   OH261812   5.026   2.208   6.064  0.0611 -0.2881  0.1034
13466TIP3    H161813   5.040   2.273   6.133  0.0266 -1.4236  1.2183
13466TIP3    H261814   4.940   2.171   6.083  0.5684 -1.4675  0.1978
13467TIP3   OH261815   2.336   5.800   2.852 -0.4393  0.1265 -0.1588
13467TIP3    H161816   2.358   5.865   2.919  0.9847 -1.8035  1.4063
13467TIP3    H261817   2.403   5.811   2.785 -1.9176  2.1237 -1.4274
13468TIP3   OH261818   3.197   4.781  16.120  0.6919 -0.4615 -0.2448
13468TIP3    H161819   3.190   4.782  16.215 -0.7274  0.8895 -0.3323
13468TIP3    H261820   3.118   4.734  16.091  0.4766  0.2179 -0.7817
13469TIP3   OH261821   2.397   4.724  14.655  0.7295  0.2130 -0.2200
13469TIP3    H161822   2.378   4.762  14.740  0.6358  0.5917 -0.4091
13469TIP3    H261823   2.417   4.632  14.674 -1.1295 -0.1959  0.0355
13470TIP3   OH261824   1.911   0.820   5.699 -0.5746 -0.6533 -0.2227
13470TIP3    H161825   1.872   0.744   5.742 -0.5010 -1.2990 -1.2668
13470TIP3    H261826   1.929   0.881   5.770 -1.9691 -1.0103  0.4741
13471TIP3   OH261827   1.601   4.660   0.039 -0.6982  0.0944 -0.4591
13471TIP3    H161828   1.515   4.651  -0.003 -0.3308  1.5943 -1.6358
13471TIP3    H261829   1.649   4.722  -0.017  2.4423 -3.2292 -1.8334
13472TIP3   OH261830   4.161   3.301   0.572  0.5105  0.5694 -0.3220
13472TIP3    H161831   4.090   3.309   0.508  1.2210  1.5921 -1.0238
13472TIP3    H261832   4.155   3.381   0.624  0.7872  0.3904 -0.0138
13473TIP3   OH261833   3.327   4.307  17.257 -0.4061  0.0674 -0.1356
13473TIP3    H161834   3.323   4.394  17.217 -2.3964  0.4114  0.6818
13473TIP3    H261835   3.367   4.322  17.343 -0.8121  0.1994  0.0329
13474TIP3   OH261836   4.784   2.782  11.713  0.3344 -0.4017 -0.4949
13474TIP3    H161837   4.763   2.752  11.801 -0.3621 -0.9950 -0.8487
13474TIP3    H261838   4.854   2.845  11.725 -1.3543  1.3666  0.7288
13475TIP3   OH261839   4.933   1.461   0.439  0.3305 -0.0516  0.9332
13475TIP3    H161840   4.931   1.365   0.431 -0.4354 -0.2397  2.9501
13475TIP3    H261841   4.849   1.490   0.404  1.0739  0.0485 -0.9016
13476TIP3   OH261842   0.818   3.767   1.960 -0.2718  0.0269  0.1868
13476TIP3    H161843   0.882   3.837   1.953 -0.8002  0.3572 -2.1343
13476TIP3    H261844   0.747   3.804   2.013  0.0754  0.7488  0.1582
13477TIP3   OH261845   0.401   1.012   1.544 -0.5098 -0.2787 -0.7377
13477TIP3    H161846   0.473   1.052   1.594 -0.5082 -1.7159  0.4973
13477TIP3    H261847   0.439   0.932   1.508 -1.8021 -1.8229  1.1430
13478TIP3   OH261848   4.750   4.837   1.746  0.0379 -0.0015  0.3167
13478TIP3    H161849   4.683   4.896   1.780 -0.2635  0.0556 -0.3694
13478TIP3    H261850   4.711   4.750   1.750 -1.3172  0.3252 -2.9341
13479TIP3   OH261851   1.712   5.606  15.374  0.0333 -0.9641 -0.3153
13479TIP3    H161852   1.683   5.698  15.377  0.4624 -0.8406  0.1022
13479TIP3    H261853   1.751   5.597  15.287  0.3940 -0.6233 -0.1942
13480TIP3   OH261854   0.509   4.421  13.015 -0.3299 -0.5646 -0.1686
13480TIP3    H161855   0.522   4.511  13.045 -3.0136  0.0664 -0.6253
13480TIP3    H261856   0.476   4.374  13.091 -2.0801 -0.2846 -0.7064
13481TIP3   OH261857   0.581   5.518  13.597  1.0715  0.1056 -0.2198
13481TIP3    H161858   0.520   5.447  13.576  1.2356  0.0359 -0.4780
13481TIP3    H261859   0.525   5.590  13.625  0.8629  0.0776 -0.5531
13482TIP3   OH261860   1.544   0.180   2.561  0.3589  0.4200  0.2484
13482TIP3    H161861   1.528   0.223   2.477  1.0665 -2.9074 -1.7463
13482TIP3    H261862   1.462   0.136   2.582  1.4074 -2.4361 -1.1413
13483TIP3   OH261863   3.193   2.161  16.581  0.0447  0.6173 -0.3283
13483TIP3    H161864   3.192   2.207  16.497  0.5688  0.8686 -0.2015
13483TIP3    H261865   3.112   2.110  16.582 -1.6716  3.1231  0.3750
13484TIP3   OH261866   1.457   0.818   5.755  0.4988 -0.6688 -0.9761
13484TIP3    H161867   1.434   0.731   5.723 -0.1039 -1.9419  2.5415
13484TIP3    H261868   1.524   0.803   5.821  2.3571  1.8754 -2.0951
13485TIP3   OH261869   5.071   0.641  14.556  0.0764  0.0638 -0.5283
13485TIP3    H161870   4.988   0.678  14.525 -0.4735 -1.3370 -0.7792
13485TIP3    H261871   5.064   0.547  14.539  2.5057  0.1128 -2.3483
13486TIP3   OH261872   3.913   5.633   2.778 -0.2787  0.0366 -0.1629
13486TIP3    H161873   3.893   5.539   2.776  1.7533 -0.4624  0.7351
13486TIP3    H261874   3.878   5.664   2.861  1.1647 -0.4874  0.6694
13487TIP3   OH261875   2.837   1.569  13.212 -0.1113 -0.3465  0.1982
13487TIP3    H161876   2.760   1.514  13.233 -2.3295  2.0710 -1.0389
13487TIP3    H261877   2.836   1.637  13.279 -0.6245  1.1054 -1.2039
13488TIP3   OH261878   0.331   4.561   1.848  0.5801  0.6767 -0.0187
13488TIP3    H161879   0.369   4.475   1.866 -0.7891  0.1878  0.7239
13488TIP3    H261880   0.253   4.542   1.795 -1.7148  1.0490  2.9796
13489TIP3   OH261881   1.384   5.734  15.107  0.2580  0.0741 -0.1429
13489TIP3    H161882   1.310   5.771  15.059  0.3262 -2.1440 -2.1385
13489TIP3    H261883   1.372   5.639  15.101  1.4598 -0.3365  2.4716
13490TIP3   OH261884   6.279   4.442  14.294  0.5319 -0.3518 -0.4007
13490TIP3    H161885   6.208   4.473  14.238  0.8957  0.5327 -0.3998
13490TIP3    H261886   6.262   4.484  14.378  1.2845  0.2208 -0.5239
13491TIP3   OH261887   0.288   6.453  12.373 -0.0244 -0.5333  0.0114
13491TIP3    H161888   0.326   6.525  12.323 -0.0806 -1.2642 -1.0951
13491TIP3    H261889   0.288   6.379  12.313  1.5264 -1.9230  1.6216
13492TIP3   OH261890   5.683   5.931  15.223  0.9394  1.0151  0.4755
13492TIP3    H161891   5.750   5.990  15.189  1.5674 -0.4251 -0.9012
13492TIP3    H261892   5.730   5.849  15.241 -0.4550 -0.0755 -0.6299
13493TIP3   OH261893   5.943   6.524   2.354  0.5209  0.1985 -0.0121
13493TIP3    H161894   5.856   6.485   2.341  0.3061  0.6026  0.2109
13493TIP3    H261895   5.971   6.491   2.440  0.7742 -0.2747 -0.2716
13494TIP3   OH261896   6.587   2.058   2.021  0.2358  0.0332  0.5385
13494TIP3    H161897   6.614   2.013   2.101  1.2118  0.1458  0.2899
13494TIP3    H261898   6.550   1.989   1.966  0.4238 -0.2175  0.7227
13495TIP3   OH261899   4.052   2.783   4.200  0.0269  0.3797  0.0817
13495TIP3    H161900   3.966   2.823   4.213  0.4311  0.9890  1.0102
13495TIP3    H261901   4.039   2.720   4.128 -0.6027  2.2625 -1.5471
13496TIP3   OH261902   0.353   5.526   5.982 -0.0316 -0.2425 -0.0610
13496TIP3    H161903   0.321   5.446   6.023  0.0932 -0.3012 -0.0786
13496TIP3    H261904   0.428   5.498   5.928  0.9488  0.1023  1.0809
13497TIP3   OH261905   5.271   0.208   0.530 -0.1507 -0.8442 -0.0689
13497TIP3    H161906   5.179   0.227   0.509 -0.5027 -0.9034  1.3201
13497TIP3    H261907   5.276   0.112   0.530 -0.7762 -0.9298  2.4664
13498TIP3   OH261908   1.590   5.398  11.986  0.0344  1.1194  0.9461
13498TIP3    H161909   1.575   5.365  12.075  2.0966 -2.5155  0.1491
13498TIP3    H261910   1.685   5.409  11.980 -0.1377  2.0590 -0.5811
13499TIP3   OH261911   3.419   6.291  13.604  0.9323 -0.5807 -0.1278
13499TIP3    H161912   3.382   6.213  13.645 -2.3434  0.0954 -1.4648
13499TIP3    H261913   3.501   6.262  13.566 -0.1078 -3.3662 -0.4574
13500TIP3   OH261914   2.016   4.178  12.921 -0.0025  0.4833  0.2000
13500TIP3    H161915   2.023   4.272  12.939 -1.2612  0.7533 -0.6325
13500TIP3    H261916   2.107   4.148  12.919  0.3787  1.2502  2.5127
13501TIP3   OH261917   6.501   6.246   5.846  0.2813 -0.4725  0.1070
13501TIP3    H161918   6.468   6.252   5.756 -0.8016  1.0439  0.5673
13501TIP3    H261919   6.490   6.334   5.881  2.3113 -0.6056  1.1990
13502TIP3   OH261920   6.628   6.063  15.720  0.2973 -0.2687 -0.3551
13502TIP3    H161921   6.710   6.104  15.747  0.3515 -1.5453  1.6482
13502TIP3    H261922   6.559   6.120  15.754  0.3761 -0.6002  0.3816
13503TIP3   OH261923   3.157   6.021   6.767 -0.0111 -0.5575  0.0160
13503TIP3    H161924   3.240   5.989   6.731  1.4670 -0.4281  2.9864
13503TIP3    H261925   3.140   6.103   6.720  3.2003  0.9965  1.2950
13504TIP3   OH261926   2.456   6.101  12.424 -0.0885 -0.2944 -0.0272
13504TIP3    H161927   2.380   6.056  12.387  0.4258 -1.0219 -0.2170
13504TIP3    H261928   2.419   6.177  12.468 -0.7753  0.2737 -1.5204
13505TIP3   OH261929   4.597   4.270   3.874  0.1087 -0.5499 -0.2448
13505TIP3    H161930   4.555   4.286   3.790 -2.4698  1.1938  1.2447
13505TIP3    H261931   4.538   4.208   3.919  1.8200 -2.0422  0.0809
13506TIP3   OH261932   0.005   2.021  16.833  0.2512  0.1798 -0.4938
13506TIP3    H161933   0.053   2.045  16.912 -0.3837  0.0188 -0.0531
13506TIP3    H261934   0.008   2.099  16.779 -0.4249  0.7418  0.2509
13507TIP3   OH261935   4.414   2.363   0.201  0.4469 -0.3164 -0.4280
13507TIP3    H161936   4.509   2.364   0.208  0.5173 -0.8092 -1.2140
13507TIP3    H261937   4.386   2.290   0.256  0.4253  0.5200  0.7092
13508TIP3   OH261938   1.416   2.970  11.420  0.1436 -0.0364 -0.0629
13508TIP3    H161939   1.428   3.010  11.333  1.4525  0.6870  0.4101
13508TIP3    H261940   1.429   3.043  11.481 -0.6659 -0.5587  0.7498
13509TIP3   OH261941   5.332   2.323  15.094  0.1274  0.8079  0.1851
13509TIP3    H161942   5.345   2.234  15.128 -0.0801  0.7014 -0.0103
13509TIP3    H261943   5.420   2.361  15.093  0.1509  0.7715  0.7266
13510TIP3   OH261944   5.332   1.828  16.602 -0.4373 -0.1262 -0.2357
13510TIP3    H161945   5.395   1.756  16.602 -0.6563 -0.3265  0.8186
13510TIP3    H261946   5.251   1.790  16.636 -0.7327  0.4650 -0.2532
13511TIP3   OH261947   4.533   2.374   2.252 -0.0788  0.2335 -0.3333
13511TIP3    H161948   4.541   2.462   2.215 -1.0702  0.1273 -0.8218
13511TIP3    H261949   4.497   2.321   2.182 -1.5699 -0.0760  0.6150
13512TIP3   OH261950   2.277   0.762   2.633  0.4444  0.1300  0.1130
13512TIP3    H161951   2.344   0.791   2.694  0.2028  1.9415 -0.4088
13512TIP3    H261952   2.230   0.693   2.679  1.8773 -0.2978  0.9552
13513TIP3   OH261953   2.148   3.744  13.983  0.4674  0.2641  0.1482
13513TIP3    H161954   2.106   3.803  13.919 -1.7693 -0.8487  0.4873
13513TIP3    H261955   2.076   3.716  14.040  1.7140 -1.7040  0.8402
13514TIP3   OH261956   2.592   6.017  15.201  0.2032 -0.0008 -0.1344
13514TIP3    H161957   2.666   6.058  15.156  0.2979  0.4651  0.4299
13514TIP3    H261958   2.516   6.064  15.168  0.1542 -0.4724 -0.7071
13515TIP3   OH261959   5.929   2.653  16.264 -0.0482 -0.1539 -0.2905
13515TIP3    H161960   5.921   2.739  16.305  1.0084  0.3310 -1.0525
13515TIP3    H261961   5.914   2.669  16.171  0.1440 -0.7884 -0.4380
13516TIP3   OH261962   5.240   4.727  15.382 -0.0248 -0.5809  0.1014
13516TIP3    H161963   5.158   4.689  15.351 -0.9173  0.6419  0.8806
13516TIP3    H261964   5.291   4.652  15.414 -1.4718 -1.2112  1.0401
13517TIP3   OH261965   1.636   6.329   4.111  0.6629  0.5176  0.3790
13517TIP3    H161966   1.544   6.315   4.085  1.1387  0.0053 -1.1619
13517TIP3    H261967   1.681   6.347   4.028  1.7137  2.2337  1.2732
13518TIP3   OH261968   2.065   3.974  12.648  0.1096 -0.1616 -0.5665
13518TIP3    H161969   2.059   3.903  12.712 -0.2842 -1.1720 -1.6782
13518TIP3    H261970   2.155   4.005  12.654 -0.4480  1.2729  1.9920
13519TIP3   OH261971   3.470   3.559  13.487  0.3923 -0.2317  0.1748
13519TIP3    H161972   3.437   3.470  13.497 -0.7744  0.2466  0.7791
13519TIP3    H261973   3.552   3.560  13.537 -0.6168 -0.4258  1.8893
13520TIP3   OH261974   0.402   4.377  17.447  0.4472  0.3199 -0.3245
13520TIP3    H161975   0.462   4.361  17.519  0.3698  1.3620 -0.0066
13520TIP3    H261976   0.399   4.473  17.440 -1.7041  0.3445  0.1603
13521TIP3   OH261977   3.831   3.236  15.085 -0.4018  0.7566 -0.5222
13521TIP3    H161978   3.925   3.246  15.101  0.0985  0.0040 -2.6388
13521TIP3    H261979   3.790   3.296  15.147  1.4103  0.4132  1.1132
13522TIP3   OH261980   5.737   0.217  11.101 -0.3552  0.0551  0.0087
13522TIP3    H161981   5.782   0.229  11.017 -1.4960 -2.0279 -0.9847
13522TIP3    H261982   5.744   0.302  11.144  2.2992  0.5296 -1.1581
13523TIP3   OH261983   1.052   5.936   2.333 -0.0159  0.3286 -0.3678
13523TIP3    H161984   1.100   5.902   2.408  0.3309 -0.2337 -0.8335
13523TIP3    H261985   1.054   6.031   2.344  1.8557  0.3735 -0.7570
13524TIP3   OH261986   1.333   5.437  17.397  0.2513  0.5113  0.1325
13524TIP3    H161987   1.324   5.494  17.473 -1.3892 -0.8489  1.0408
13524TIP3    H261988   1.307   5.350  17.429  1.4185 -0.5003 -1.4963
13525TIP3   OH261989   1.971   3.295   3.498  0.2657  0.4273  0.0250
13525TIP3    H161990   2.015   3.367   3.543  0.4817 -0.3750  1.1261
13525TIP3    H261991   1.934   3.335   3.420  1.8912  1.3834 -0.3044
13526TIP3   OH261992   5.612   5.859   1.834  0.8696  0.0931  0.4050
13526TIP3    H161993   5.529   5.836   1.876  1.3659  0.6905  1.7694
13526TIP3    H261994   5.638   5.941   1.876  0.3976  1.9149 -2.5017
13527TIP3   OH261995   6.645   2.660  11.064  0.1588  0.2057  0.4694
13527TIP3    H161996   6.701   2.681  10.989 -0.1540  0.8249  0.3985
13527TIP3    H261997   6.697   2.601  11.118  0.6166  0.2390  0.0668
13528TIP3   OH261998   1.214   2.414  15.601 -0.3953  0.7334 -0.1411
13528TIP3    H161999   1.281   2.365  15.553  0.6314  0.5677  1.3942
13528TIP3    H262000   1.254   2.499  15.619 -1.4528  1.4726 -1.1081
13529TIP3   OH262001   2.952   6.676  12.545  0.1841  0.0654  0.0328
13529TIP3    H162002   2.975   6.736  12.474 -0.5769  0.1978 -0.1070
13529TIP3    H262003   2.928   6.733  12.618  1.2889 -0.0674  0.5220
13530TIP3   OH262004   6.400   1.797  16.119  0.5694  0.1177 -0.1179
13530TIP3    H162005   6.382   1.714  16.074 -1.5911 -0.4008  1.5447
13530TIP3    H262006   6.316   1.823  16.156  1.2012  3.0820 -0.5290
13531TIP3   OH262007   6.648   1.909   2.243  0.2655  0.5628  0.1798
13531TIP3    H162008   6.706   1.893   2.317  0.4645  3.7145  0.8502
13531TIP3    H262009   6.562   1.881   2.274  0.6440  0.1561  0.8984
13532TIP3   OH262010   0.378   0.958   3.063  0.2395  0.1585 -0.1378
13532TIP3    H162011   0.371   0.926   3.153  0.1402 -2.0095 -0.8748
13532TIP3    H262012   0.462   0.925   3.031  1.1611  2.4642 -0.3146
13533TIP3   OH262013   6.158   1.724   5.407  0.3647 -0.1033 -0.2853
13533TIP3    H162014   6.077   1.734   5.457  0.4728  0.8983 -0.2894
13533TIP3    H262015   6.174   1.629   5.405 -1.1824 -0.3722 -0.8964
13534TIP3   OH262016   0.909   0.018  15.105  0.3568  0.4729 -0.5199
13534TIP3    H162017   0.998   0.011  15.139  0.0912 -1.1067 -0.0869
13534TIP3    H262018   0.872   0.093  15.153  0.5134 -0.7051  1.5893
13535TIP3   OH262019   5.634   0.010  13.300  0.1063 -0.3895 -0.0674
13535TIP3    H162020   5.583  -0.006  13.220 -0.0647 -0.7590  0.1116
13535TIP3    H262021   5.725   0.004  13.272  0.0814  1.1588 -0.5740
13536TIP3   OH262022   4.229   4.328  16.413  0.4710 -0.3584  0.2345
13536TIP3    H162023   4.170   4.397  16.384  0.1849 -0.9831 -0.7185
13536TIP3    H262024   4.226   4.331  16.509 -1.1863 -0.4390  0.2043
13537TIP3   OH262025   5.396   0.706   3.529 -0.0934 -0.6234 -0.1208
13537TIP3    H162026   5.425   0.766   3.459  0.4381 -2.1167 -1.2315
13537TIP3    H262027   5.300   0.705   3.521 -0.0081 -1.4290 -1.4463
13538TIP3   OH262028   2.318   1.376   4.017 -0.4524 -0.2020 -0.2641
13538TIP3    H162029   2.335   1.351   3.927  1.6789 -0.1702  0.0666
13538TIP3    H262030   2.237   1.331   4.040  0.6344 -2.8845 -1.2175
13539TIP3   OH262031   0.856   4.867  15.419 -0.1427  0.4339  0.3392
13539TIP3    H162032   0.794   4.852  15.348 -1.2301 -0.1130  1.3852
13539TIP3    H262033   0.820   4.820  15.494  0.0386  2.4718  1.7709
13540TIP3   OH262034   3.871   5.680  13.516 -0.2261 -0.1893  0.1962
13540TIP3    H162035   3.959   5.716  13.523  0.0217 -0.7822  0.2290
13540TIP3    H262036   3.851   5.649  13.604 -2.1536  3.6830  1.2939
13541TIP3   OH262037   6.707   4.039   4.468  0.2663 -0.5401 -0.1143
13541TIP3    H162038   6.760   4.101   4.417 -1.8703  1.2840 -0.2833
13541TIP3    H262039   6.681   4.088   4.546  1.4014 -2.4649  1.5690
13542TIP3   OH262040   2.230   2.845   4.650  0.2156 -0.4328 -0.2479
13542TIP3    H162041   2.258   2.894   4.572  2.0361  1.4395  1.4876
13542TIP3    H262042   2.299   2.780   4.664  0.5249  0.0442  0.4753
13543TIP3   OH262043   4.595   2.281   6.064 -0.1377  0.0283  0.3223
13543TIP3    H162044   4.549   2.268   5.982  1.5178 -1.6791 -0.4187
13543TIP3    H262045   4.532   2.256   6.132 -0.9912 -0.1313 -0.5128
13544TIP3   OH262046   2.629   3.150   1.785 -0.0957 -0.7091  0.1485
13544TIP3    H162047   2.711   3.113   1.751  0.3488  0.7798 -0.5062
13544TIP3    H262048   2.657   3.217   1.846 -0.5888  2.4606 -2.7896
13545TIP3   OH262049   1.739   3.618  11.002 -0.0594 -0.0211  0.3429
13545TIP3    H162050   1.767   3.701  11.041 -1.1435 -0.6486  2.6188
13545TIP3    H262051   1.805   3.555  11.028  0.0323 -0.1624 -0.2094
13546TIP3   OH262052   6.202   3.645   2.125  0.3205  0.3828 -0.3399
13546TIP3    H162053   6.121   3.646   2.177  0.6416 -0.2231  0.1829
13546TIP3    H262054   6.194   3.721   2.068 -1.5311 -0.7196 -1.6882
13547TIP3   OH262055   1.802   5.207  15.509 -0.2998 -0.1172 -0.3413
13547TIP3    H162056   1.811   5.115  15.487  1.5600 -0.0220 -0.0926
13547TIP3    H262057   1.890   5.243  15.501 -0.4708  1.0629  2.0037
13548TIP3   OH262058   2.723   2.474   3.934 -0.0806  0.1515  0.2469
13548TIP3    H162059   2.803   2.477   3.986 -0.2840 -1.6149  0.7143
13548TIP3    H262060   2.732   2.547   3.873  1.2505  0.8142  1.1758
13549TIP3   OH262061   4.209   6.220  13.463  0.1169 -0.7892  0.1057
13549TIP3    H162062   4.284   6.168  13.434 -0.1325 -1.9498  1.4382
13549TIP3    H262063   4.148   6.156  13.499  0.4226  0.4501  3.2089
13550TIP3   OH262064   3.848   6.135  11.378 -0.2133  0.0977 -0.1205
13550TIP3    H162065   3.930   6.169  11.412  0.3929 -0.4228 -1.0184
13550TIP3    H262066   3.852   6.041  11.396  0.0364 -0.1572 -1.4098
13551TIP3   OH262067   1.457   5.290   4.202 -0.5256 -0.1301 -0.1936
13551TIP3    H162068   1.473   5.351   4.274  1.0695  0.6096 -1.1221
13551TIP3    H262069   1.495   5.333   4.126  0.4248 -2.1898 -0.9410
13552TIP3   OH262070   2.482   0.831   5.372 -0.1218  0.2966  0.4841
13552TIP3    H162071   2.490   0.736   5.360 -0.3053  0.5794 -2.7875
13552TIP3    H262072   2.396   0.852   5.337 -0.3606  1.6348  1.7987
13553TIP3   OH262073   5.529   0.132   1.765 -0.0875 -0.1735 -0.1242
13553TIP3    H162074   5.555   0.187   1.839  0.0781 -1.3645  0.7320
13553TIP3    H262075   5.461   0.075   1.800 -0.6194 -0.1914 -1.1307
13554TIP3   OH262076   1.487   4.025  17.055 -0.2993  0.3144  0.0474
13554TIP3    H162077   1.478   4.115  17.024 -0.3957  0.5658  0.7750
13554TIP3    H262078   1.565   4.026  17.111 -1.7331  0.5693  2.1448
13555TIP3   OH262079   5.273   4.861   2.873  0.1342  0.5024  0.6338
13555TIP3    H162080   5.289   4.941   2.922  1.1346 -0.9309  2.8106
13555TIP3    H262081   5.206   4.885   2.808  1.1184  3.2849  0.5229
13556TIP3   OH262082   4.261   5.803   1.855 -0.1316  0.1250 -0.2008
13556TIP3    H162083   4.213   5.866   1.909  1.5691  0.7244  0.6939
13556TIP3    H262084   4.215   5.805   1.770  0.4034  3.3550 -0.5695
13557TIP3   OH262085   2.963   5.897  13.213 -0.8005  0.2866  0.2053
13557TIP3    H162086   2.962   5.981  13.258 -0.6441  0.6670 -0.4897
13557TIP3    H262087   2.900   5.907  13.141  1.1460  0.7443 -1.5230
13558TIP3   OH262088   6.087   6.651   1.024  0.3616  0.4468  0.3938
13558TIP3    H162089   6.041   6.697   1.094 -1.3037  0.6273 -0.7756
13558TIP3    H262090   6.083   6.710   0.949 -1.5208 -1.3779 -1.0568
13559TIP3   OH262091   0.117   1.042   1.254 -0.1978 -0.2268 -0.2719
13559TIP3    H162092   0.050   1.053   1.322  0.2483  0.6150  0.0339
13559TIP3    H262093   0.069   1.048   1.171 -0.6045 -0.3553 -0.0470
13560TIP3   OH262094   3.385   1.691  12.526  0.3487 -0.2874  0.3120
13560TIP3    H162095   3.443   1.745  12.581 -1.2408  0.5304  1.2609
13560TIP3    H262096   3.327   1.648  12.588 -0.6951 -0.3058 -0.6594
13561TIP3   OH262097   3.247   6.719   4.755  0.3118 -0.4813 -0.0637
13561TIP3    H162098   3.245   6.795   4.812 -0.8474 -0.6882  0.1934
13561TIP3    H262099   3.156   6.705   4.730  0.7358 -0.6361 -1.6593
13562TIP3   OH262100   5.580   3.412   1.858 -0.0019 -0.4884  0.4327
13562TIP3    H162101   5.512   3.464   1.817  1.7022  0.1922 -1.7226
13562TIP3    H262102   5.662   3.454   1.831  1.3235 -1.6689  2.3376
13563TIP3   OH262103   3.727   3.083  16.096 -0.6965  0.0485  0.1373
13563TIP3    H162104   3.787   3.152  16.067 -1.2256  0.0953 -0.8680
13563TIP3    H262105   3.642   3.126  16.102 -0.5409  0.2027  2.3828
13564TIP3   OH262106   5.820   2.368   1.202 -0.5639  0.3071  0.5516
13564TIP3    H162107   5.836   2.461   1.186 -3.0834  0.9219  1.2777
13564TIP3    H262108   5.758   2.342   1.135 -0.0748 -0.8196  0.5108
13565TIP3   OH262109   5.822   3.791   0.089 -0.2617 -0.3013 -0.0175
13565TIP3    H162110   5.781   3.821   0.170 -1.1188 -4.1762  1.1937
13565TIP3    H262111   5.905   3.753   0.117  0.6139  0.5737 -1.3585
13566TIP3   OH262112   6.413   6.068  14.888 -0.0694 -0.3450  0.2907
13566TIP3    H162113   6.435   6.046  14.978 -2.4508  1.0673  1.3083
13566TIP3    H262114   6.449   6.156  14.876  0.0651 -0.4496 -0.0707
13567TIP3   OH262115   5.936   0.287   1.396  0.2347  0.2853  0.4280
13567TIP3    H162116   5.878   0.274   1.470  0.2469  0.7520  0.5231
13567TIP3    H262117   6.000   0.352   1.426  1.8590 -1.4412  0.9209
13568TIP3   OH262118   3.496   5.582   6.061 -0.1122  0.4749  0.3068
13568TIP3    H162119   3.482   5.527   5.983  1.4556 -0.5927  0.7358
13568TIP3    H262120   3.437   5.546   6.127  0.4638 -0.3379  0.3958
13569TIP3   OH262121   3.716   1.205  13.268  0.1281 -0.4347  0.6436
13569TIP3    H162122   3.793   1.153  13.244  0.1176  0.4415 -1.5261
13569TIP3    H262123   3.646   1.141  13.280  0.7040 -1.0955  0.5256
13570TIP3   OH262124   5.797   1.136  11.448  0.1776  0.6769  0.1124
13570TIP3    H162125   5.834   1.187  11.376 -0.6599  0.1365 -0.7354
13570TIP3    H262126   5.710   1.174  11.461 -0.0328  0.1685  0.2053
13571TIP3   OH262127   4.788   1.264  16.509  0.2820 -0.3826  0.4246
13571TIP3    H162128   4.773   1.347  16.465  1.7139  0.1767  0.9451
13571TIP3    H262129   4.728   1.266  16.584  0.7147  0.4455  0.7612
13572TIP3   OH262130   2.753   4.459   1.880  0.1615  0.1507 -0.4568
13572TIP3    H162131   2.699   4.523   1.833  0.4410  0.0764 -0.8862
13572TIP3    H262132   2.742   4.378   1.830 -0.7827 -0.3382  0.5090
13573TIP3   OH262133   0.268   4.193  12.111  0.0868  0.1441  0.2212
13573TIP3    H162134   0.246   4.207  12.203 -0.3779  1.8724 -0.1152
13573TIP3    H262135   0.318   4.272  12.086 -0.9569  0.3603 -1.3409
13574TIP3   OH262136   3.147   5.071   0.991  0.3924 -1.0353  0.2806
13574TIP3    H162137   3.174   5.163   0.999  2.2933 -1.7208  3.2510
13574TIP3    H262138   3.212   5.032   0.933 -0.0426 -0.7033 -0.4582
13575TIP3   OH262139   4.921   1.026   5.695 -0.4401 -0.0281  0.3709
13575TIP3    H162140   4.847   1.023   5.635  0.7230 -1.2204 -1.0729
13575TIP3    H262141   4.989   1.074   5.647 -0.3567  1.4118  1.8344
13576TIP3   OH262142   3.367   1.005   0.226  0.6073  0.1464  0.4678
13576TIP3    H162143   3.314   0.925   0.221  0.6107  0.0703  1.4090
13576TIP3    H262144   3.310   1.069   0.268  1.4014 -0.0982  2.0151
13577TIP3   OH262145   4.390   5.245   2.462  0.4658 -0.2291  0.4301
13577TIP3    H162146   4.388   5.338   2.441  0.0049 -0.0533  1.2236
13577TIP3    H262147   4.421   5.241   2.552  1.0822 -0.8857  0.1919
13578TIP3   OH262148   5.091   3.115   1.471 -0.0927 -0.5456 -0.0400
13578TIP3    H162149   5.010   3.142   1.514  1.2928  0.4103  2.1052
13578TIP3    H262150   5.116   3.033   1.515 -0.4234 -1.4713 -1.4799
13579TIP3   OH262151   2.710   3.883   2.848 -0.0972  0.9884 -0.2834
13579TIP3    H162152   2.759   3.953   2.890  0.0453  0.0985  1.0905
13579TIP3    H262153   2.634   3.927   2.810  1.7039  2.4096 -2.5332
13580TIP3   OH262154   5.405   3.328  12.452  0.0749 -0.3807  0.1979
13580TIP3    H162155   5.371   3.402  12.502  0.3430 -0.3609  0.3530
13580TIP3    H262156   5.478   3.294  12.505  0.2048 -0.5108 -0.0599
13581TIP3   OH262157   3.765   2.675   5.268  0.3046 -0.6234  0.1162
13581TIP3    H162158   3.788   2.594   5.313  0.4121  0.0110  1.2547
13581TIP3    H262159   3.845   2.727   5.270  0.0387 -0.2054  0.0516
13582TIP3   OH262160   3.437   5.256  10.516  0.6753 -0.2846 -0.2215
13582TIP3    H162161   3.385   5.184  10.480  0.2713  0.5506 -1.3583
13582TIP3    H262162   3.480   5.218  10.593  0.8950 -1.8937 -1.0884
13583TIP3   OH262163   0.727   3.024  17.177  0.3557 -0.0092 -1.0180
13583TIP3    H162164   0.693   2.980  17.255  2.1185 -3.3647 -1.9751
13583TIP3    H262165   0.648   3.057  17.133 -0.8620 -0.0517  0.9803
13584TIP3   OH262166   0.230   5.432   2.110  0.0674 -0.6285  0.6278
13584TIP3    H162167   0.241   5.456   2.202  1.3377  0.9843  0.1054
13584TIP3    H262168   0.208   5.514   2.067  1.2288 -0.9984 -0.7492
13585TIP3   OH262169   1.931   6.114   1.585  0.1700  0.3395  0.1384
13585TIP3    H162170   1.878   6.187   1.552 -0.4775 -0.0016  0.4169
13585TIP3    H262171   1.926   6.122   1.680  0.5546  0.2533  0.1661
13586TIP3   OH262172   4.158   5.008  16.916 -0.3115  0.0992 -0.2482
13586TIP3    H162173   4.207   5.067  16.860  0.9547  0.9066  1.6287
13586TIP3    H262174   4.136   5.060  16.994  0.4177 -1.7056  1.2445
13587TIP3   OH262175   6.484   3.130  12.114  0.2618  0.2018 -0.1289
13587TIP3    H162176   6.419   3.190  12.151 -0.6821 -1.5073  1.1408
13587TIP3    H262177   6.532   3.096  12.190 -1.2433 -2.8677 -0.3644
13588TIP3   OH262178   1.376   3.457  11.380  0.2461 -0.2992  0.1200
13588TIP3    H162179   1.341   3.474  11.468 -0.5535 -1.9590  0.1684
13588TIP3    H262180   1.412   3.368  11.386  3.8498  0.9666 -0.1737
13589TIP3   OH262181   4.402   1.860  14.605 -0.2527 -0.8003 -0.1714
13589TIP3    H162182   4.338   1.851  14.676 -0.9165  1.7173 -0.3583
13589TIP3    H262183   4.361   1.815  14.531 -1.6931  0.4214 -0.1786
13590TIP3   OH262184   3.223   5.782  15.153 -0.6449 -0.2195 -0.1294
13590TIP3    H162185   3.210   5.782  15.248 -1.5437 -0.6303 -0.2451
13590TIP3    H262186   3.307   5.825  15.141  0.1824 -1.4612  0.9444
13591TIP3   OH262187   3.201   5.558  11.349  0.7101 -0.1138  0.7817
13591TIP3    H162188   3.170   5.594  11.432  2.2680 -1.2375  1.8919
13591TIP3    H262189   3.122   5.522  11.308 -0.3055  1.6163  1.1168
13592TIP3   OH262190   5.378   3.679   2.956 -0.3584  0.2297 -0.3841
13592TIP3    H162191   5.303   3.684   3.015 -0.4633  1.0705 -0.5668
13592TIP3    H262192   5.410   3.590   2.964 -2.2136 -0.5891 -1.3092
13593TIP3   OH262193   6.330   3.696   2.697  0.7504 -0.2792 -0.1535
13593TIP3    H162194   6.329   3.631   2.768  1.8641 -0.1027  0.0518
13593TIP3    H262195   6.257   3.755   2.717  1.2564 -0.0293  1.0615
13594TIP3   OH262196   0.941   4.420  15.345 -0.0925 -0.3809 -0.4887
13594TIP3    H162197   0.855   4.462  15.343 -0.3598 -0.9488 -1.3565
13594TIP3    H262198   0.947   4.383  15.433 -1.2398 -1.3163 -0.7611
13595TIP3   OH262199   3.085   3.949   3.343  0.2286  0.2368  0.3538
13595TIP3    H162200   3.012   3.917   3.290 -0.2989  2.5805 -0.4946
13595TIP3    H262201   3.148   3.983   3.280  1.9988 -1.5205  1.0892
13596TIP3   OH262202   1.412   6.205   0.289 -0.3833  0.3949  0.2234
13596TIP3    H162203   1.357   6.157   0.228  1.0334  0.4020 -1.1258
13596TIP3    H262204   1.392   6.168   0.375  0.5489 -2.5650 -0.7206
13597TIP3   OH262205   5.205   4.318   1.291  0.1254 -0.1140  0.4077
13597TIP3    H162206   5.138   4.249   1.293 -0.6312  0.5285 -1.0036
13597TIP3    H262207   5.205   4.348   1.200  2.3707 -0.0948  0.3614
13598TIP3   OH262208   3.222   3.199   6.377 -0.1699  0.3950 -0.0898
13598TIP3    H162209   3.198   3.110   6.405  0.9069  0.1186 -0.0105
13598TIP3    H262210   3.165   3.256   6.428 -1.7776 -0.2817 -1.0583
13599TIP3   OH262211   4.579   4.194  12.816  0.0845 -0.1135  0.2485
13599TIP3    H162212   4.528   4.129  12.768  1.6381 -1.5427  0.4556
13599TIP3    H262213   4.601   4.260  12.750 -0.8531 -0.1737 -0.1437
13600TIP3   OH262214   4.919   6.681   0.143 -0.5976 -0.0904 -0.1989
13600TIP3    H162215   4.944   6.773   0.150  1.4202 -0.5249 -0.7928
13600TIP3    H262216   4.863   6.677   0.065  0.9146  0.3895 -1.3678
13601TIP3   OH262217   5.773   0.653   6.069  0.0510  0.5626 -0.0764
13601TIP3    H162218   5.779   0.642   6.164 -0.1204  0.5760 -0.0647
13601TIP3    H262219   5.758   0.746   6.056  1.1668  0.7494 -0.1640
13602TIP3   OH262220   0.603   2.617   0.711 -0.4432 -0.4063 -0.2502
13602TIP3    H162221   0.620   2.634   0.804  1.4968  0.1559 -0.6517
13602TIP3    H262222   0.541   2.684   0.685  0.7060  0.8739  0.1650
13603TIP3   OH262223   2.877   2.408  16.821 -0.3396  0.5226  0.1019
13603TIP3    H162224   2.850   2.319  16.796  0.0135 -0.1952  2.1140
13603TIP3    H262225   2.963   2.419  16.779 -0.1444 -0.2891  0.2680
13604TIP3   OH262226   0.368   0.598  12.044  0.1162 -0.5808 -0.3099
13604TIP3    H162227   0.323   0.530  11.994  0.9615 -0.8241 -0.7495
13604TIP3    H262228   0.301   0.632  12.103 -0.2476 -2.0529  0.1825
13605TIP3   OH262229   5.241   1.638   0.005  0.4003  0.0549  0.2337
13605TIP3    H162230   5.191   1.565   0.043  1.1710 -0.0260  1.1290
13605TIP3    H262231   5.314   1.596  -0.040  0.9573  0.2718  0.9208
13606TIP3   OH262232   0.342   4.649   5.138  0.3226 -0.6860  0.3658
13606TIP3    H162233   0.260   4.605   5.112  1.3570 -3.1012  0.8829
13606TIP3    H262234   0.402   4.630   5.066  0.7166  0.2376  0.4482
13607TIP3   OH262235   3.831   4.484   4.467 -0.2563 -0.5576  0.2772
13607TIP3    H162236   3.915   4.443   4.486 -0.1065  0.2983  1.5342
13607TIP3    H262237   3.769   4.411   4.462  0.1604 -1.0254  1.5883
13608TIP3   OH262238   4.436   4.267  12.043  0.0254 -0.0553  0.3984
13608TIP3    H162239   4.443   4.268  12.139 -1.9389 -2.2206  0.6757
13608TIP3    H262240   4.482   4.187  12.017 -1.9159 -1.0896 -0.0823
13609TIP3   OH262241   2.070   2.124   1.050  0.1161 -0.9951  0.1965
13609TIP3    H162242   2.115   2.065   1.110 -2.4115 -1.9663  1.2943
13609TIP3    H262243   2.059   2.205   1.101 -0.0004 -1.0078  0.1915
13610TIP3   OH262244   4.770   1.117   0.049  0.5620 -0.1519  0.5880
13610TIP3    H162245   4.803   1.207   0.056  1.2548 -0.4773  1.7713
13610TIP3    H262246   4.693   1.115   0.105  0.0920 -0.1038 -0.0475
13611TIP3   OH262247   2.244   0.929   1.225 -0.0299 -0.3693  0.6072
13611TIP3    H162248   2.197   1.010   1.245 -1.4655 -1.6122  2.6315
13611TIP3    H262249   2.206   0.899   1.142  0.6399  1.0451 -0.2640
13612TIP3   OH262250   0.884   1.211   5.422 -0.4614  0.5827 -0.3760
13612TIP3    H162251   0.829   1.182   5.495  0.2322 -0.8122 -0.3756
13612TIP3    H262252   0.957   1.257   5.465  0.1851 -0.6339 -0.1342
13613TIP3   OH262253   1.100   4.801  16.197  0.3443 -0.3414  0.0763
13613TIP3    H162254   1.155   4.879  16.204  1.8737 -1.3036 -0.4816
13613TIP3    H262255   1.012   4.834  16.180  0.6400  1.2788  1.5265
13614TIP3   OH262256   3.987   2.187   0.375 -0.2154 -0.1896 -0.0458
13614TIP3    H162257   3.906   2.227   0.408 -1.1994 -1.4386 -0.8815
13614TIP3    H262258   3.961   2.100   0.346  1.7901 -1.3242  1.3244
13615TIP3   OH262259   4.064   4.096  13.053  0.5017  0.3355  0.1297
13615TIP3    H162260   4.095   4.008  13.031 -0.2169 -0.0759  0.6995
13615TIP3    H262261   4.047   4.137  12.968 -0.5080 -0.5912 -0.1436
13616TIP3   OH262262   2.708   2.909   0.940 -0.1647  0.5600 -0.0595
13616TIP3    H162263   2.623   2.867   0.931 -0.5835  0.9361  1.6943
13616TIP3    H262264   2.722   2.914   1.034  1.9098  0.3335 -0.3105
13617TIP3   OH262265   2.430   6.342   3.085 -0.4302  0.5886  0.0053
13617TIP3    H162266   2.416   6.249   3.067  0.4964  0.3366  0.4960
13617TIP3    H262267   2.361   6.366   3.146 -0.5000  0.1382  0.1075
13618TIP3   OH262268   3.889   2.938  12.451 -0.3489  0.1230  0.3369
13618TIP3    H162269   3.835   3.017  12.444 -2.9968 -1.3527  2.3891
13618TIP3    H262270   3.894   2.920  12.545 -1.8060 -3.3312 -0.1011
13619TIP3   OH262271   5.085   2.543  11.529 -0.4198 -0.8942  0.1238
13619TIP3    H162272   5.099   2.450  11.542  0.5663 -0.8203 -0.3699
13619TIP3    H262273   5.116   2.583  11.611 -2.1509 -1.0768  0.9259
13620TIP3   OH262274   2.761   0.323  13.553 -0.8425 -0.2958 -0.1262
13620TIP3    H162275   2.826   0.327  13.484 -0.8921 -0.8817 -0.2185
13620TIP3    H262276   2.678   0.343  13.509 -0.7853 -0.0025 -0.1002
13621TIP3   OH262277   5.088   5.677   4.769 -0.5795  0.0164  0.2165
13621TIP3    H162278   5.094   5.582   4.777 -1.6961  0.1027  2.8565
13621TIP3    H262279   4.998   5.698   4.793  0.2427  1.8955  1.8415
13622TIP3   OH262280   5.117   4.534   1.093  0.2908 -0.1227  0.2149
13622TIP3    H162281   5.129   4.615   1.143  0.6765  0.4862 -0.8072
13622TIP3    H262282   5.123   4.563   1.001 -0.3325 -1.2029 -0.1759
13623TIP3   OH262283   4.666   2.330  17.230  0.2945 -0.4093  0.3865
13623TIP3    H162284   4.706   2.404  17.275 -0.7196  0.4541 -0.1073
13623TIP3    H262285   4.600   2.369  17.173 -1.5986 -1.8195  1.5142
13624TIP3   OH262286   3.931   5.888   2.212 -0.3714 -0.1853  0.4830
13624TIP3    H162287   3.870   5.942   2.161 -0.9106  0.2837  1.5849
13624TIP3    H262288   4.004   5.872   2.153 -0.2333  1.6757  0.0625
13625TIP3   OH262289   2.341   4.221   1.168  0.0747  0.9997  0.1246
13625TIP3    H162290   2.353   4.145   1.111  1.3280  0.7731  0.6680
13625TIP3    H262291   2.303   4.185   1.248 -0.1749  1.0850  0.0461
13626TIP3   OH262292   4.331   4.675  16.338  0.3273 -0.7154 -0.2412
13626TIP3    H162293   4.344   4.729  16.260 -0.7274  0.9257  0.6498
13626TIP3    H262294   4.276   4.603  16.309 -0.3675  0.0863 -0.9536
13627TIP3   OH262295   6.216   0.580   4.840 -0.2929  0.0283 -0.0270
13627TIP3    H162296   6.200   0.674   4.845 -0.7854 -0.0982  1.1680
13627TIP3    H262297   6.245   0.556   4.928 -0.7183 -1.0319 -0.1584
13628TIP3   OH262298   3.134   3.139  13.264 -0.6353  0.0493  0.2836
13628TIP3    H162299   3.220   3.150  13.305 -0.5758  0.0604  0.1567
13628TIP3    H262300   3.105   3.228  13.244 -0.0926 -0.0166 -0.8695
13629TIP3   OH262301   6.288   4.254  14.657 -0.1825  0.1082  0.0466
13629TIP3    H162302   6.217   4.315  14.677 -1.4644 -0.9659 -0.9945
13629TIP3    H262303   6.293   4.197  14.733  0.2957  0.8147  0.5630
13630TIP3   OH262304   5.950   3.617   4.343  0.1013 -0.0665  0.2784
13630TIP3    H162305   5.978   3.702   4.310  0.2625 -0.3393 -0.2911
13630TIP3    H262306   5.940   3.631   4.438 -1.1337  0.9268  0.0324
13631TIP3   OH262307   2.634   6.011   1.862 -0.0624  0.8881  0.0094
13631TIP3    H162308   2.624   6.085   1.803 -1.0498  0.9885  0.2968
13631TIP3    H262309   2.729   5.995   1.865  0.1339  1.9774 -0.2342
13632TIP3   OH262310   5.555   1.828   6.486 -0.8638 -0.4062 -0.0789
13632TIP3    H162311   5.489   1.838   6.556 -1.3678 -0.3729 -0.5501
13632TIP3    H262312   5.539   1.902   6.428 -0.0532 -0.0976  0.0766
13633TIP3   OH262313   4.763   3.880  13.406 -0.0991  0.5478 -0.1713
13633TIP3    H162314   4.686   3.828  13.429 -1.9138  2.1173 -2.2914
13633TIP3    H262315   4.800   3.907  13.490 -1.4627 -0.7847  0.9107
13634TIP3   OH262316   2.762   6.319  17.438  0.4628  0.0317  0.3042
13634TIP3    H162317   2.786   6.412  17.440  0.8492  0.0413 -1.8555
13634TIP3    H262318   2.788   6.290  17.350  0.1885 -2.0866  0.8730
13635TIP3   OH262319   5.044   3.101   1.096 -0.4066  0.3395 -0.1702
13635TIP3    H162320   4.975   3.061   1.043 -1.3695  0.8697  0.6438
13635TIP3    H262321   5.070   3.033   1.158  0.1292 -0.0047 -0.7593
13636TIP3   OH262322   6.346   1.018   0.872 -0.0311 -0.1678 -0.0414
13636TIP3    H162323   6.258   1.048   0.851 -0.3978  0.0907  1.6742
13636TIP3    H262324   6.349   0.928   0.841 -2.1026 -1.3500  2.6888
13637TIP3   OH262325   5.410   6.172  16.567  0.6161 -0.0972  0.6743
13637TIP3    H162326   5.377   6.257  16.597  1.8792  0.1795  1.3546
13637TIP3    H262327   5.449   6.133  16.645  0.6024 -1.0317  0.2208
13638TIP3   OH262328   5.617   4.214  14.143  0.2410  0.1044  0.4639
13638TIP3    H162329   5.683   4.276  14.173  1.1490 -0.2627 -0.7171
13638TIP3    H262330   5.536   4.265  14.142  0.2642  0.3209  2.7897
13639TIP3   OH262331   1.414   1.915  17.462 -0.2725 -0.0141 -0.1505
13639TIP3    H162332   1.470   1.871  17.526 -0.1804  1.1246  0.5799
13639TIP3    H262333   1.330   1.871  17.470 -0.6028  0.8250  1.6087
13640TIP3   OH262334   5.400   2.548  12.820 -0.0886 -0.1368 -0.4499
13640TIP3    H162335   5.323   2.527  12.767  0.7491 -0.0941 -1.7189
13640TIP3    H262336   5.400   2.481  12.889  0.1176 -1.7167 -1.9020
13641TIP3   OH262337   5.273   6.620   1.474 -0.3279  0.0028 -0.4312
13641TIP3    H162338   5.265   6.686   1.543  0.3808 -0.5806  0.2354
13641TIP3    H262339   5.190   6.573   1.476  0.1775 -0.8904  0.9750
13642TIP3   OH262340   0.893   2.805  13.661 -0.0887  0.1220  0.7560
13642TIP3    H162341   0.885   2.799  13.756 -0.7379 -0.0743  0.6920
13642TIP3    H262342   0.942   2.727  13.636 -0.2382 -0.0175  0.8943
13643TIP3   OH262343   4.845   0.457   1.879  0.0497  0.3404  0.0682
13643TIP3    H162344   4.810   0.523   1.819  0.1905 -0.2449 -0.6696
13643TIP3    H262345   4.926   0.495   1.912  0.2089  0.4695 -0.4683
13644TIP3   OH262346   5.190   2.327   3.851  0.0014  0.2614  0.4689
13644TIP3    H162347   5.095   2.330   3.844 -0.2375 -2.2331  1.5112
13644TIP3    H262348   5.213   2.237   3.825  1.8679  0.2198  2.0330
13645TIP3   OH262349   1.978   5.150   2.551  0.0873  0.0825 -0.3465
13645TIP3    H162350   1.903   5.154   2.491 -1.9587  2.2293  2.0937
13645TIP3    H262351   1.958   5.077   2.610 -0.3842  0.9579  0.6055
13646TIP3   OH262352   6.249   5.559  12.413  0.0570 -0.4250 -0.5271
13646TIP3    H162353   6.259   5.654  12.417  0.0093 -0.4489  1.7675
13646TIP3    H262354   6.161   5.546  12.377 -0.8708  0.5173  1.2806
13647TIP3   OH262355   3.730   6.385  12.064 -0.2108 -0.2066  0.3443
13647TIP3    H162356   3.689   6.384  11.977  0.4018  3.3655 -0.1572
13647TIP3    H262357   3.820   6.413  12.047  0.4533 -1.1663  2.0283
13648TIP3   OH262358   1.164   0.426  12.181 -0.0427 -0.3059  0.1270
13648TIP3    H162359   1.144   0.341  12.143 -0.5135 -0.9791  1.8018
13648TIP3    H262360   1.210   0.406  12.262 -0.9538  0.9878  1.0106
13649TIP3   OH262361   0.899   2.374  16.760 -0.4322 -0.1484 -0.1001
13649TIP3    H162362   0.831   2.419  16.812 -1.9834 -1.0228 -1.3033
13649TIP3    H262363   0.981   2.414  16.789 -1.2996  0.0063  2.3956
13650TIP3   OH262364   2.851   5.569  15.849  0.0159 -0.8070 -0.4494
13650TIP3    H162365   2.773   5.564  15.794  0.4134  1.0246 -1.2507
13650TIP3    H262366   2.920   5.597  15.790  0.8151 -0.3747  0.6520
13651TIP3   OH262367   3.032   1.549   3.346  0.3400  0.3037  0.3101
13651TIP3    H162368   2.986   1.472   3.380 -0.9132  1.2221  0.7741
13651TIP3    H262369   3.069   1.520   3.263 -1.8079 -0.2714 -0.5158
13652TIP3   OH262370   1.752   3.174  12.152 -0.1292  0.4508 -0.2310
13652TIP3    H162371   1.821   3.218  12.103 -1.0642  1.2268 -0.8828
13652TIP3    H262372   1.778   3.082  12.152  0.5955  0.6461 -0.9822
13653TIP3   OH262373   2.703   3.212   4.460 -0.8274  0.0007 -0.4029
13653TIP3    H162374   2.648   3.133   4.461 -0.2601 -0.3958 -0.1529
13653TIP3    H262375   2.657   3.274   4.516 -0.7299 -0.5342  0.2918
13654TIP3   OH262376   2.011   4.952  13.420 -0.1845 -0.3029  0.2799
13654TIP3    H162377   2.000   5.041  13.386  0.6862 -0.1946  0.2604
13654TIP3    H262378   2.090   4.919  13.376  0.5198 -0.4422  1.5856
13655TIP3   OH262379   2.260   3.465  15.456  0.2912 -0.2328 -0.4661
13655TIP3    H162380   2.293   3.437  15.541  0.1983  2.2648  0.4819
13655TIP3    H262381   2.179   3.513  15.476  0.7440  1.1851 -1.8258
13656TIP3   OH262382   6.343   4.414   4.735 -0.3101  0.3337 -0.6336
13656TIP3    H162383   6.347   4.477   4.807 -0.5274  0.1739 -0.4757
13656TIP3    H262384   6.295   4.459   4.665 -1.3462  0.0158 -0.1608
13657TIP3   OH262385   1.071   5.226  14.355  0.6796  0.3791  0.0188
13657TIP3    H162386   1.125   5.170  14.411  0.2907  0.5078  0.5292
13657TIP3    H262387   1.026   5.165  14.297 -0.3928  0.0673  1.1305
13658TIP3   OH262388   3.883   5.312   2.436 -0.1702  0.1473 -0.3035
13658TIP3    H162389   3.913   5.279   2.352 -0.4618  0.3358 -0.4843
13658TIP3    H262390   3.904   5.405   2.434  0.4094  0.0325  0.0971
13659TIP3   OH262391   3.813   3.803  14.333 -0.1162  0.0339  0.0296
13659TIP3    H162392   3.857   3.735  14.282 -0.8599  0.2855 -0.9845
13659TIP3    H262393   3.843   3.790  14.423  1.1987 -0.4491 -0.4624
13660TIP3   OH262394   5.003   3.718   5.786 -0.4115 -0.1716 -0.6622
13660TIP3    H162395   4.908   3.734   5.792 -0.5435 -0.8214 -0.9735
13660TIP3    H262396   5.015   3.674   5.702  0.3408  1.0598 -1.2286
13661TIP3   OH262397   3.041   6.117  14.746  0.2157  0.0889  0.2382
13661TIP3    H162398   3.128   6.142  14.779  0.8249 -1.4130 -0.1442
13661TIP3    H262399   2.980   6.161  14.805  1.2557 -1.7725  2.9504
13662TIP3   OH262400   5.152   1.228   4.444  0.4401 -0.5185  0.0807
13662TIP3    H162401   5.227   1.208   4.387  0.2394  1.6872 -1.0507
13662TIP3    H262402   5.095   1.151   4.436  1.1493 -0.9204 -1.4870
13663TIP3   OH262403   6.644   4.939   1.358  0.0787  0.0032 -0.1673
13663TIP3    H162404   6.700   4.924   1.282 -1.1112  0.2518 -1.1072
13663TIP3    H262405   6.599   5.021   1.339 -0.2948  0.0330  0.7850
13664TIP3   OH262406   3.351   1.286   5.350 -0.3411  0.0835  0.0571
13664TIP3    H162407   3.405   1.291   5.271 -1.5080  0.8734 -0.7116
13664TIP3    H262408   3.360   1.372   5.390 -0.1228 -0.1673  0.5603
13665TIP3   OH262409   2.125   1.541  12.437  0.1654  0.4568  0.5832
13665TIP3    H162410   2.101   1.472  12.499  0.1039  0.5414  0.6538
13665TIP3    H262411   2.043   1.564  12.393  0.4043 -0.3629 -0.3074
13666TIP3   OH262412   6.285   5.750  15.990  0.2247 -0.0073  0.4027
13666TIP3    H162413   6.203   5.702  16.001  0.6915 -1.0120 -0.3286
13666TIP3    H262414   6.273   5.800  15.909  0.5901 -0.7253 -0.1029
13667TIP3   OH262415   0.169   0.100   1.141  0.0974  0.1184 -0.5016
13667TIP3    H162416   0.125   0.023   1.177 -1.6629  0.1966 -2.3452
13667TIP3    H262417   0.116   0.127   1.067  1.6729  2.0457 -1.0429
13668TIP3   OH262418   4.803   2.835   3.197 -0.2641 -0.0540  0.0013
13668TIP3    H162419   4.745   2.894   3.148 -0.8091 -0.3667  0.2598
13668TIP3    H262420   4.823   2.882   3.277 -1.8186 -0.7438  0.8515
13669TIP3   OH262421   5.072   2.893  10.281 -0.5178  0.1024 -0.2022
13669TIP3    H162422   5.040   2.913  10.193 -2.1575  0.5295  0.4551
13669TIP3    H262423   5.038   2.965  10.335 -1.0704 -1.0950  1.0917
13670TIP3   OH262424   3.477   1.079  13.318  0.0339 -0.0116  0.2546
13670TIP3    H162425   3.414   1.070  13.246  1.0629  0.1664 -0.6913
13670TIP3    H262426   3.530   1.000  13.314 -0.3701 -0.3507  1.3078
13671TIP3   OH262427   3.907   0.753  17.305 -0.3157  0.2885 -0.1500
13671TIP3    H162428   3.968   0.700  17.356  3.2805  2.6083 -1.6689
13671TIP3    H262429   3.943   0.753  17.217 -1.9189  2.6979 -0.9015
13672TIP3   OH262430   6.195   5.271   5.845 -0.0241 -0.5891 -0.2771
13672TIP3    H162431   6.280   5.225   5.849 -0.9267 -2.4007 -0.8301
13672TIP3    H262432   6.196   5.328   5.922  0.9047 -2.0405  0.8528
13673TIP3   OH262433   0.480   0.562   0.541  0.1324  0.2177 -0.2351
13673TIP3    H162434   0.428   0.519   0.474  0.8809 -0.5062 -0.3726
13673TIP3    H262435   0.563   0.581   0.499  0.2575  0.6605  0.1987
13674TIP3   OH262436   3.228   1.007   6.094  0.5930  0.2693  0.7656
13674TIP3    H162437   3.220   1.039   6.184 -0.0460 -0.6559  1.0642
13674TIP3    H262438   3.162   0.938   6.088  0.6610  0.2890 -0.4068
13675TIP3   OH262439   0.089   5.263  12.526  0.4067 -0.5651  0.1312
13675TIP3    H162440   0.017   5.214  12.485  0.5438  1.0985 -2.2762
13675TIP3    H262441   0.168   5.230  12.483  0.5443  1.2851 -1.1398
13676TIP3   OH262442   1.971   1.852  12.220  0.0083 -0.2524  0.1178
13676TIP3    H162443   2.061   1.854  12.188 -0.3756 -2.8306 -1.3678
13676TIP3    H262444   1.967   1.776  12.278 -1.0122  0.3627  0.9069
13677TIP3   OH262445   2.108   4.150   4.852  0.5385  0.1921 -0.5570
13677TIP3    H162446   2.158   4.113   4.780  0.6182  0.9394 -0.9010
13677TIP3    H262447   2.081   4.075   4.905  1.6607 -0.2599 -0.6015
13678TIP3   OH262448   1.577   0.149  14.895  0.8873  0.4397 -0.6971
13678TIP3    H162449   1.621   0.229  14.922  2.0061 -0.0057 -1.1191
13678TIP3    H262450   1.506   0.178  14.837  0.7071  1.1687 -0.1128
13679TIP3   OH262451   6.472   2.985   3.387  0.1004  0.0021  0.0347
13679TIP3    H162452   6.501   3.032   3.310  1.4074 -2.0503 -0.8173
13679TIP3    H262453   6.378   2.972   3.374  0.1522  0.4106 -0.7887
13680TIP3   OH262454   3.106   1.793   2.845  0.2531 -0.1180  0.0952
13680TIP3    H162455   3.087   1.699   2.848  0.0859 -0.0618  1.6312
13680TIP3    H262456   3.020   1.834   2.833  0.2244 -0.1210  0.2984
13681TIP3   OH262457   1.146   4.725   0.531  0.2909 -0.0834  0.3562
13681TIP3    H162458   1.057   4.754   0.514  0.4068 -0.4612 -1.1082
13681TIP3    H262459   1.154   4.644   0.479  1.0618 -0.7884  1.5350
13682TIP3   OH262460   0.848   1.682   0.059 -0.9901  0.1938  0.0711
13682TIP3    H162461   0.879   1.594   0.079 -2.3027 -0.2813  0.0831
13682TIP3    H262462   0.901   1.739   0.115 -0.2871 -0.5884  0.2287
13683TIP3   OH262463   6.368   0.533  16.221  0.0522  0.1005  0.8316
13683TIP3    H162464   6.342   0.558  16.310  3.0759  2.7902  1.1339
13683TIP3    H262465   6.318   0.592  16.165 -1.1514 -0.9677  0.7188
13684TIP3   OH262466   5.559   1.781  15.093  0.4964 -0.0283  0.1764
13684TIP3    H162467   5.564   1.777  14.998 -1.5739 -0.5109  0.0364
13684TIP3    H262468   5.468   1.762  15.113  1.0700 -0.8366  2.3145
13685TIP3   OH262469   4.643   6.004   0.915 -0.4827 -0.1726 -0.2714
13685TIP3    H162470   4.704   5.931   0.903  0.1324  0.2934  0.0263
13685TIP3    H262471   4.629   6.038   0.826  1.1104  0.8626 -0.1642
13686TIP3   OH262472   1.076   1.963   5.473 -0.0037  0.2720 -0.2265
13686TIP3    H162473   1.052   2.005   5.556  0.4035 -2.2622  1.2909
13686TIP3    H262474   1.137   2.024   5.432  1.8202  0.5345  2.5919
13687TIP3   OH262475   1.867   5.214   0.938 -0.3921 -0.2343 -0.6021
13687TIP3    H162476   1.870   5.121   0.914  1.4419 -0.4856  0.3897
13687TIP3    H262477   1.940   5.254   0.890  0.7383  0.0511  1.2576
13688TIP3   OH262478   5.073   3.480  16.620 -0.3545  0.0626 -0.0276
13688TIP3    H162479   5.146   3.499  16.678 -1.7808 -1.1357  2.3358
13688TIP3    H262480   5.038   3.397  16.652 -0.1613 -1.6977 -3.8153
13689TIP3   OH262481   1.804   0.481   0.681 -0.2846 -0.0385 -0.2131
13689TIP3    H162482   1.785   0.461   0.773 -2.8691  2.2713 -0.1118
13689TIP3    H262483   1.738   0.431   0.632  0.4220 -0.4447 -0.7823
13690TIP3   OH262484   0.398   5.245  11.467  0.3075  0.1178 -0.4971
13690TIP3    H162485   0.491   5.254  11.446  0.8047 -1.7683  0.6949
13690TIP3    H262486   0.369   5.168  11.419  0.1795 -1.1741  1.5486
13691TIP3   OH262487   4.430   1.421   5.742  0.2591 -0.1195  0.3204
13691TIP3    H162488   4.499   1.362   5.710  0.6677 -0.9951  2.6006
13691TIP3    H262489   4.380   1.368   5.805  0.0829  1.6695  1.7852
13692TIP3   OH262490   5.804   0.474   4.415  0.7085 -0.8136  0.2174
13692TIP3    H162491   5.773   0.544   4.357  1.6934 -0.4184  0.1404
13692TIP3    H262492   5.760   0.395   4.383  1.2847 -0.6219 -1.1507
13693TIP3   OH262493   5.268   6.382   0.854  0.1525  0.4038  0.1466
13693TIP3    H162494   5.319   6.387   0.773  0.1594  1.0305  0.1851
13693TIP3    H262495   5.329   6.413   0.922  0.2379 -0.3849  0.4339
13694TIP3   OH262496   0.788   1.234  11.372 -0.2429 -0.3544 -0.3435
13694TIP3    H162497   0.867   1.277  11.338 -0.5854  0.4089 -0.1947
13694TIP3    H262498   0.727   1.306  11.387 -0.6475 -0.8477  0.4011
13695TIP3   OH262499   1.641   4.162   0.596 -0.1654 -0.2017  0.2773
13695TIP3    H162500   1.551   4.192   0.611  0.5156  0.9624  2.5706
13695TIP3    H262501   1.633   4.094   0.529 -2.7019  0.1210  0.1532
13696TIP3   OH262502   3.911   5.109  10.747  0.1738  0.1041  0.2224
13696TIP3    H162503   3.991   5.066  10.780  1.2560  0.9305 -1.1837
13696TIP3    H262504   3.924   5.111  10.652 -1.3187  0.7017  0.0203
13697TIP3   OH262505   5.666   1.076   4.501 -0.3410 -0.0156 -0.3792
13697TIP3    H162506   5.697   1.093   4.590 -0.3542  1.5206 -0.6459
13697TIP3    H262507   5.648   1.163   4.465  2.7044 -0.2805 -2.9888
13698TIP3   OH262508   2.805   5.142  13.045 -0.2149  0.2304  0.6177
13698TIP3    H162509   2.721   5.162  13.004 -0.8147 -2.0874  0.5917
13698TIP3    H262510   2.847   5.227  13.057 -2.3696  1.4041  0.2403
13699TIP3   OH262511   0.006   0.359   5.038 -0.0068  0.3359  0.3091
13699TIP3    H162512   0.046   0.445   5.024 -1.4430  0.7992 -1.4142
13699TIP3    H262513   0.047   0.303   4.972 -0.2756  0.1357  0.3102
13700TIP3   OH262514   5.929   4.476  11.058 -0.4634 -0.1033 -0.0162
13700TIP3    H162515   5.836   4.465  11.037 -0.7853  0.3206  1.1325
13700TIP3    H262516   5.968   4.509  10.977 -1.6321  1.3551 -0.0249
13701TIP3   OH262517   5.769   4.045  15.429  0.1198 -0.0408 -0.1171
13701TIP3    H162518   5.799   4.133  15.453 -1.5908  1.5043 -3.0671
13701TIP3    H262519   5.679   4.042  15.462 -0.2737 -0.1186 -1.1603
13702TIP3   OH262520   4.214   3.471   4.465  0.0160 -0.2830  0.4884
13702TIP3    H162521   4.199   3.461   4.559  2.3781 -1.0694  0.8454
13702TIP3    H262522   4.229   3.382   4.434  1.1862  0.1558 -0.2466
13703TIP3   OH262523   0.095   4.572   2.715 -0.4952 -0.5921 -0.4000
13703TIP3    H162524   0.008   4.533   2.705 -1.8508  2.2691 -1.0037
13703TIP3    H262525   0.120   4.554   2.806 -2.0627 -0.8461  0.0050
13704TIP3   OH262526   4.545   5.859   0.664 -0.0771  0.0547 -0.5085
13704TIP3    H162527   4.539   5.790   0.599 -2.6611  0.3132 -0.6616
13704TIP3    H262528   4.552   5.812   0.748 -0.3701 -0.3775 -0.7207
13705TIP3   OH262529   6.007   6.180  13.320  0.4603  0.2264  0.0812
13705TIP3    H162530   6.101   6.194  13.313  0.6980 -1.5442 -0.9420
13705TIP3    H262531   5.983   6.135  13.239 -1.1157 -0.1235  0.6924
13706TIP3   OH262532   0.702   3.294   1.296  0.0127 -0.4828 -0.6570
13706TIP3    H162533   0.791   3.321   1.273 -0.1612 -0.5960 -1.4910
13706TIP3    H262534   0.653   3.376   1.304 -0.1835 -0.4859 -1.7863
13707TIP3   OH262535   1.128   5.332   5.828 -0.3777  0.0414  0.1464
13707TIP3    H162536   1.173   5.411   5.798  0.2216 -0.0014  0.9253
13707TIP3    H262537   1.154   5.322   5.920 -0.5643 -0.9837  0.0981
13708TIP3   OH262538   4.259   2.083  12.398 -0.0230  0.2117 -0.0454
13708TIP3    H162539   4.331   2.146  12.399 -1.4326  1.9655 -1.3498
13708TIP3    H262540   4.230   2.078  12.489  0.4196  1.1162  0.1521
13709TIP3   OH262541   4.737   4.707   4.468 -0.8997 -0.4631  0.3264
13709TIP3    H162542   4.813   4.708   4.526 -0.8025 -1.8026  0.2437
13709TIP3    H262543   4.688   4.786   4.492 -0.6196 -0.7329  1.9117
13710TIP3   OH262544   0.177   2.196  16.542 -0.1003 -0.1792 -0.4409
13710TIP3    H162545   0.269   2.189  16.517  0.7435 -3.4143  2.8225
13710TIP3    H262546   0.128   2.167  16.465  1.7846 -1.2605 -1.2740
13711TIP3   OH262547   2.842   5.692   2.054 -0.4579  0.6024 -0.2402
13711TIP3    H162548   2.761   5.673   2.006 -0.6348 -0.1981  0.3576
13711TIP3    H262549   2.829   5.781   2.087 -2.4204 -0.5143  2.3601
13712TIP3   OH262550   0.255   2.971  14.629 -0.1335 -0.4407 -0.4278
13712TIP3    H162551   0.186   2.986  14.565  0.0323 -0.1128 -0.5324
13712TIP3    H262552   0.252   2.877  14.646 -1.1928 -0.2886  0.2576
13713TIP3   OH262553   0.967   2.073  16.282  0.1355 -0.3519  0.0388
13713TIP3    H162554   0.975   2.028  16.198  1.2120 -0.7377  0.3340
13713TIP3    H262555   0.925   2.009  16.340 -1.7908  0.3488 -0.5058
13714TIP3   OH262556   4.048   4.855   1.004  0.2192  0.3347  0.0723
13714TIP3    H162557   3.969   4.818   0.964  0.7210 -1.9809  1.0662
13714TIP3    H262558   4.116   4.845   0.938  0.0619  0.8120 -0.1697
13715TIP3   OH262559   6.243   3.083   1.042 -0.0232  0.1265  0.4886
13715TIP3    H162560   6.228   3.016   1.108  1.5211  0.0973  0.8653
13715TIP3    H262561   6.253   3.164   1.093 -0.1995  0.3424  0.1811
13716TIP3   OH262562   3.271   2.267  13.289 -0.6415  0.0887 -0.8986
13716TIP3    H162563   3.188   2.234  13.253 -1.9042 -0.2841  2.0354
13716TIP3    H262564   3.253   2.278  13.382  2.4022  0.8476 -0.3092
13717TIP3   OH262565   2.803   0.589  13.369  0.7754 -0.1623  0.1044
13717TIP3    H162566   2.770   0.606  13.457  0.3572 -0.4947  0.0169
13717TIP3    H262567   2.751   0.648  13.313  1.2580  0.2766  0.1118
13718TIP3   OH262568   5.100   1.834  10.881 -0.8012 -0.1454 -0.4772
13718TIP3    H162569   5.066   1.750  10.847 -0.3697 -0.0525 -1.1715
13718TIP3    H262570   5.139   1.812  10.966 -0.9177 -0.6055 -0.5404
13719TIP3   OH262571   3.321   5.487  16.771  0.7444  0.4339 -0.1556
13719TIP3    H162572   3.297   5.448  16.855  0.4159  1.1033  0.0722
13719TIP3    H262573   3.375   5.562  16.794 -0.7622  1.6442 -0.4439
13720TIP3   OH262574   1.848   3.491  12.547 -0.4808  0.0117  0.0549
13720TIP3    H162575   1.925   3.484  12.603  0.8631  2.2753 -1.3448
13720TIP3    H262576   1.834   3.402  12.513  0.8095 -0.6617  1.2037
13721TIP3   OH262577   4.793   3.398  12.813  0.2471  0.4275 -0.3174
13721TIP3    H162578   4.703   3.411  12.845  0.2757 -0.0371 -0.0392
13721TIP3    H262579   4.847   3.446  12.876  0.4562 -1.9574  1.4441
13722TIP3   OH262580   5.115   3.877  17.084 -0.4834  0.1308 -0.4989
13722TIP3    H162581   5.087   3.968  17.072  1.0455  1.0951  2.3338
13722TIP3    H262582   5.077   3.830  17.010 -1.7213  2.9736 -1.8055
13723TIP3   OH262583   1.808   3.710   4.967 -0.4716 -0.0112  0.8858
13723TIP3    H162584   1.722   3.682   4.936  1.3222 -2.4496 -2.4180
13723TIP3    H262585   1.856   3.736   4.888  2.0469  0.7305  2.5216
13724TIP3   OH262586   2.900   2.739   4.413 -0.1074  0.0166  0.1161
13724TIP3    H162587   2.947   2.702   4.488 -0.7724 -0.2978  0.3867
13724TIP3    H262588   2.952   2.816   4.388 -0.1189  0.3963  1.2003
13725TIP3   OH262589   6.209   0.461  11.711  0.2753 -0.0660  0.1219
13725TIP3    H162590   6.273   0.394  11.735  0.5189  1.1482  3.3254
13725TIP3    H262591   6.214   0.526  11.781 -1.6405  2.1229 -1.6104
13726TIP3   OH262592   6.041   4.365  13.744 -0.0706  0.0240 -0.0351
13726TIP3    H162593   5.959   4.340  13.787 -0.4520  0.5103 -0.4695
13726TIP3    H262594   6.015   4.431  13.679  0.7002  0.3997  0.0257
13727TIP3   OH262595   4.369   1.684  16.364  0.1272  0.1538 -0.3083
13727TIP3    H162596   4.387   1.699  16.271 -2.0477 -1.1166 -1.0007
13727TIP3    H262597   4.430   1.615  16.389  1.1320  0.9072 -0.6182
13728TIP3   OH262598   3.634   4.352  12.347  0.1107 -0.6729  0.4623
13728TIP3    H162599   3.607   4.336  12.256 -0.7801  0.1637  0.5730
13728TIP3    H262600   3.554   4.377  12.392  0.6878 -0.3114  1.3082
13729TIP3   OH262601   0.624   6.030   3.628  0.2967 -0.3959  0.2544
13729TIP3    H162602   0.582   6.114   3.609  0.3221 -0.9633 -2.7264
13729TIP3    H262603   0.552   5.973   3.654 -0.1250 -0.1834 -0.4397
13730TIP3   OH262604   0.951   3.498  16.987  0.5981 -0.1384  0.1066
13730TIP3    H162605   0.903   3.430  17.035 -1.9898  0.1004 -1.9030
13730TIP3    H262606   0.994   3.550  17.056  3.3489 -4.0770  1.6921
13731TIP3   OH262607   3.589   0.663  15.945 -0.3049  0.3391 -0.2410
13731TIP3    H162608   3.663   0.623  15.900 -0.3794  0.2942 -0.3235
13731TIP3    H262609   3.539   0.706  15.876 -0.0339  0.8776 -0.1060
13732TIP3   OH262610   2.900   2.486   4.815 -0.1788  0.2190  0.1848
13732TIP3    H162611   2.927   2.578   4.815  0.4614  0.0366  0.0989
13732TIP3    H262612   2.868   2.471   4.904  1.5431  0.0156  0.8101
13733TIP3   OH262613   6.197   2.945  12.240  0.8974 -0.0771 -0.0149
13733TIP3    H162614   6.192   2.951  12.144  1.3545 -0.7949 -0.0917
13733TIP3    H262615   6.110   2.971  12.270  0.8259  0.4040 -0.6080
13734TIP3   OH262616   4.508   0.033   6.703 -0.2374 -0.5873 -0.0142
13734TIP3    H162617   4.545   0.078   6.627  0.0457  0.8972  0.9560
13734TIP3    H262618   4.521   0.094   6.775 -2.3535 -1.0883  0.8435
13735TIP3   OH262619   3.100   3.390   5.191 -0.4253 -0.3362 -0.1477
13735TIP3    H162620   3.135   3.304   5.215  0.5645  0.2388  0.5758
13735TIP3    H262621   3.115   3.397   5.097  0.2111 -0.6538 -0.0765
13736TIP3   OH262622   5.945   4.143   1.200  0.5197  0.3445 -0.2926
13736TIP3    H162623   5.862   4.187   1.219  0.8853  1.0532 -0.3089
13736TIP3    H262624   5.948   4.070   1.263  0.8643  1.5873  1.2090
13737TIP3   OH262625   2.953   3.325   6.055  0.5088 -0.4702 -0.5224
13737TIP3    H162626   2.963   3.232   6.074  1.8352 -0.0622  1.0074
13737TIP3    H262627   2.859   3.341   6.060  0.3883 -1.4183  0.9264
13738TIP3   OH262628   3.303   1.412  17.442  0.9432 -0.2971 -0.2367
13738TIP3    H162629   3.390   1.443  17.466  0.0600  0.8327  1.6927
13738TIP3    H262630   3.260   1.394  17.525 -0.1023 -2.5833 -1.1866
13739TIP3   OH262631   0.410   4.384   3.457  0.7606  1.0177  0.3312
13739TIP3    H162632   0.439   4.402   3.547  0.1860 -1.2471  1.0342
13739TIP3    H262633   0.490   4.358   3.411  1.2256  3.0793 -0.1368
13740TIP3   OH262634   5.139   4.449  13.946  0.1807  0.0577 -0.2025
13740TIP3    H162635   5.216   4.480  13.994 -0.0092  0.2943 -0.0396
13740TIP3    H262636   5.172   4.423  13.860  0.1207  2.3803 -0.9990
13741TIP3   OH262637   2.694   1.056  15.910  0.3661  0.0749 -0.0188
13741TIP3    H162638   2.667   1.083  15.998 -0.1013 -0.5499  0.0372
13741TIP3    H262639   2.612   1.046  15.862  0.5808 -0.3642 -0.2981
13742TIP3   OH262640   0.990   5.179  11.613 -0.1552 -0.6719  0.7084
13742TIP3    H162641   0.999   5.270  11.586 -1.6136 -0.9960 -1.0125
13742TIP3    H262642   1.051   5.170  11.686  1.2143  1.2463 -0.1212
13743TIP3   OH262643   4.871   4.952   0.972  0.5546  0.6719  0.0153
13743TIP3    H162644   4.879   5.021   1.038  0.4254  0.8960 -0.1993
13743TIP3    H262645   4.953   4.903   0.979  0.2348  0.2311  0.8465
13744TIP3   OH262646   5.114   1.753   1.270 -0.0693  0.0057 -0.2460
13744TIP3    H162647   5.124   1.681   1.332  0.2818  0.9013  0.7702
13744TIP3    H262648   5.053   1.813   1.313 -0.6567  0.1541 -1.2440
13745TIP3   OH262649   3.496   2.639  12.145  0.2230  0.3943 -0.5069
13745TIP3    H162650   3.457   2.677  12.067  1.4932 -0.4343 -1.5985
13745TIP3    H262651   3.574   2.593  12.113  0.5551 -0.3165  1.1923
13746TIP3   OH262652   5.076   3.175   2.142  0.4532  0.0218 -0.3236
13746TIP3    H162653   5.123   3.196   2.223 -0.5705  2.0205 -0.1917
13746TIP3    H262654   4.992   3.220   2.151 -1.1362 -2.5450 -0.9987
13747TIP3   OH262655   3.665   2.180   2.244 -0.3292  0.5428 -0.0175
13747TIP3    H162656   3.695   2.203   2.156  1.1973 -0.7929  0.1060
13747TIP3    H262657   3.689   2.255   2.298 -0.2192  0.8874 -0.5365
13748TIP3   OH262658   0.149   6.363  11.301 -0.1705 -0.0664  0.3957
13748TIP3    H162659   0.090   6.437  11.291  0.1764  0.2998  0.9759
13748TIP3    H262660   0.205   6.366  11.223 -0.0191  0.4156  0.5182
13749TIP3   OH262661   2.456   6.068   5.550  0.0410  0.0174 -0.5604
13749TIP3    H162662   2.408   6.146   5.521 -0.2941 -0.3095 -0.9021
13749TIP3    H262663   2.452   6.009   5.475 -2.3989 -1.6010  0.7128
13750TIP3   OH262664   5.172   1.217   1.446  0.0598  0.6178  0.1575
13750TIP3    H162665   5.246   1.257   1.401  2.1489 -2.0931  0.8903
13750TIP3    H262666   5.124   1.171   1.378 -0.5106  1.7107 -0.1967
13751TIP3   OH262667   4.549   6.259  12.159 -0.4378  0.6981 -0.2101
13751TIP3    H162668   4.555   6.164  12.168 -0.2477  0.5314 -1.8277
13751TIP3    H262669   4.478   6.284  12.218  0.0018 -0.3375  0.8023
13752TIP3   OH262670   0.283   0.096  10.920 -0.2786 -0.5800  0.3255
13752TIP3    H162671   0.255   0.153  10.848  0.9261 -0.5742 -0.1671
13752TIP3    H262672   0.355   0.143  10.962  0.1740 -1.3486  0.4369
13753TIP3   OH262673   2.489   3.993   4.924 -0.4412  0.2058 -0.3699
13753TIP3    H162674   2.463   3.976   4.833 -0.7513 -0.0180 -0.2389
13753TIP3    H262675   2.436   4.068   4.950  0.1875  0.7491 -0.6126
13754TIP3   OH262676   2.919   2.601  14.580  1.0124 -0.3154  0.4624
13754TIP3    H162677   3.000   2.552  14.588  0.3518 -1.8453 -1.5709
13754TIP3    H262678   2.939   2.672  14.519  0.8494 -0.6304  0.0429
13755TIP3   OH262679   3.851   3.085   0.662 -0.1528  0.2581  0.2000
13755TIP3    H162680   3.899   3.002   0.657 -0.2539  0.2772 -1.8745
13755TIP3    H262681   3.765   3.061   0.695  0.5809 -0.0502  2.0656
13756TIP3   OH262682   0.462   1.015   6.801  0.0128  0.3962  0.1407
13756TIP3    H162683   0.519   0.937   6.797 -0.3606  0.1267  0.0198
13756TIP3    H262684   0.373   0.979   6.806 -0.0578  0.7645  2.8843
13757TIP3   OH262685   3.546   0.378   6.924  0.4541 -0.0929 -0.6565
13757TIP3    H162686   3.553   0.458   6.975  0.2881 -0.3944 -0.1512
13757TIP3    H262687   3.471   0.391   6.866 -0.4124 -0.4075  0.3807
13758TIP3   OH262688   1.945   6.449   0.801 -0.1208  0.4255  0.4260
13758TIP3    H162689   1.889   6.507   0.750  0.0879  1.3405  1.2121
13758TIP3    H262690   1.929   6.475   0.892  1.9231  1.0198  0.6577
13759TIP3   OH262691   2.763   4.465   5.681  0.1209 -0.7444 -0.2144
13759TIP3    H162692   2.711   4.449   5.759  1.5739  0.5611  1.1003
13759TIP3    H262693   2.740   4.394   5.622 -0.3349 -2.3520  1.7760
13760TIP3   OH262694   1.836   1.359  14.040 -0.3447 -0.0873 -0.0429
13760TIP3    H162695   1.924   1.323  14.029 -1.0020 -2.0339  0.5554
13760TIP3    H262696   1.792   1.344  13.956 -0.2763  0.4169 -0.1745
13761TIP3   OH262697   6.205   4.004   4.835 -0.3775  0.0918 -0.1046
13761TIP3    H162698   6.158   4.060   4.896 -0.7424  0.5892 -0.8337
13761TIP3    H262699   6.295   4.037   4.835 -0.3460  0.0064  0.2561
13762TIP3   OH262700   4.906   1.200   6.928  0.2723 -0.0398 -0.6400
13762TIP3    H162701   4.951   1.271   6.882 -0.8371  0.6409 -0.7274
13762TIP3    H262702   4.955   1.122   6.905  2.1060  0.8014  0.2134
13763TIP3   OH262703   5.824   0.552  16.596 -0.3194  0.2381 -0.3500
13763TIP3    H162704   5.813   0.462  16.566 -1.0428  0.3049 -0.3120
13763TIP3    H262705   5.781   0.555  16.681  2.1243 -0.0621  0.9748
13764TIP3   OH262706   0.371   6.101   2.615 -0.7180 -0.1725 -0.7232
13764TIP3    H162707   0.458   6.063   2.619 -0.9090 -0.8468 -2.1542
13764TIP3    H262708   0.339   6.099   2.705  0.6120 -0.2113 -0.2375
13765TIP3   OH262709   1.725   5.780   5.889 -0.3327  0.1244  0.2081
13765TIP3    H162710   1.678   5.805   5.810  0.9089  0.1176 -0.5610
13765TIP3    H262711   1.814   5.811   5.874 -0.1369  0.3672  1.7294
13766TIP3   OH262712   6.390   4.030  16.478 -0.2210  0.6137  0.2258
13766TIP3    H162713   6.353   3.949  16.514 -1.0942 -0.4949 -2.8688
13766TIP3    H262714   6.485   4.018  16.486 -0.3600 -0.0959  1.0178
13767TIP3   OH262715   4.158   1.069   3.966  0.1429 -0.5601 -0.2346
13767TIP3    H162716   4.172   1.115   4.049 -2.3571 -0.5663  0.2649
13767TIP3    H262717   4.193   0.981   3.982 -3.1271 -1.6184  2.0617
13768TIP3   OH262718   0.919   2.805   0.834 -0.4832  0.2954  0.4300
13768TIP3    H162719   0.957   2.733   0.884 -0.9928 -1.4583 -1.5397
13768TIP3    H262720   0.882   2.864   0.900  1.6328 -0.2293  2.1845
13769TIP3   OH262721   3.530   1.740  13.493  0.5700  0.0807  0.4040
13769TIP3    H162722   3.528   1.648  13.464  1.7023 -0.1371  0.9585
13769TIP3    H262723   3.605   1.744  13.553  0.6840  1.4338  0.1841
13770TIP3   OH262724   4.820   1.908  13.437 -0.3159 -0.0069 -0.0781
13770TIP3    H162725   4.797   1.822  13.403 -2.3334  0.7827 -0.8860
13770TIP3    H262726   4.756   1.967  13.397  0.1362  1.6599  1.5385
13771TIP3   OH262727   3.446   1.289   5.705  0.1666 -0.4978 -0.1104
13771TIP3    H162728   3.377   1.228   5.679  0.9055 -1.6956  0.6293
13771TIP3    H262729   3.466   1.265   5.796  0.5878  0.7606  0.1492
13772TIP3   OH262730   0.533   0.610   5.679  0.1827 -0.7994  0.0177
13772TIP3    H162731   0.459   0.629   5.621  1.5764  2.2434 -0.9803
13772TIP3    H262732   0.495   0.611   5.767 -0.9368  1.2497 -0.4232
13773TIP3   OH262733   2.825   2.349   3.577 -0.4299 -0.3347 -0.2744
13773TIP3    H162734   2.732   2.362   3.597 -0.3788  0.2979 -0.4425
13773TIP3    H262735   2.837   2.392   3.492  0.5945  1.8969  0.9282
13774TIP3   OH262736   3.631   5.560  17.064  0.0511 -0.2557  0.3233
13774TIP3    H162737   3.620   5.490  17.127  1.8949  0.7526  1.8818
13774TIP3    H262738   3.687   5.522  16.996 -0.4526 -0.8095  0.2115
13775TIP3   OH262739   0.534   0.104  15.677 -0.5125 -0.1320 -0.0018
13775TIP3    H162740   0.477   0.028  15.680  0.5733 -0.9532  1.1526
13775TIP3    H262741   0.533   0.138  15.766  0.6495 -0.0777  0.0080
13776TIP3   OH262742   1.237   4.030   3.832 -0.5973 -0.1501 -0.0199
13776TIP3    H162743   1.310   4.084   3.804 -0.9054 -0.2407 -1.0212
13776TIP3    H262744   1.275   3.969   3.895  0.1824 -0.2189 -0.5543
13777TIP3   OH262745   5.392   1.778  16.011  0.0563  0.0660  0.4483
13777TIP3    H162746   5.470   1.816  15.972 -0.0818  0.5240  0.6156
13777TIP3    H262747   5.337   1.853  16.033 -1.0996 -0.2886 -1.0511
13778TIP3   OH262748   3.341   0.077   2.048 -0.6498 -0.2279  0.4511
13778TIP3    H162749   3.370   0.161   2.014 -0.4682  0.3657  1.9890
13778TIP3    H262750   3.408   0.015   2.020 -0.7215  0.1479 -0.5904
13779TIP3   OH262751   1.540   0.498  14.569  0.9372  0.2759  0.2886
13779TIP3    H162752   1.578   0.496  14.481  0.4655 -1.2244  0.0782
13779TIP3    H262753   1.449   0.522  14.555  1.0390  0.7621  0.4525
13780TIP3   OH262754   1.949   0.579  17.117 -0.3371 -0.0692 -0.0542
13780TIP3    H162755   1.857   0.556  17.129 -0.3596  0.0790  0.0662
13780TIP3    H262756   1.984   0.582  17.206  0.1278 -1.4876 -0.1618
13781TIP3   OH262757   3.992   1.399   1.607 -0.3113 -0.2364  0.0507
13781TIP3    H162758   3.904   1.433   1.626  0.3635  0.6747  1.6927
13781TIP3    H262759   4.039   1.474   1.571 -0.1810 -0.7265 -0.8340
13782TIP3   OH262760   3.385   6.553   5.207 -0.3953 -0.3426  0.2467
13782TIP3    H162761   3.396   6.563   5.113  0.5790 -0.1079  0.3758
13782TIP3    H262762   3.469   6.580   5.244 -0.5870 -0.9486  1.1509
13783TIP3   OH262763   6.668   2.841   0.469  0.0622 -0.0132 -0.0366
13783TIP3    H162764   6.612   2.795   0.407  1.2415 -1.7741  0.1317
13783TIP3    H262765   6.609   2.901   0.515 -1.4788 -1.1015 -0.5259
13784TIP3   OH262766   5.041   1.587   4.845  0.4890 -0.2461 -0.1461
13784TIP3    H162767   4.945   1.588   4.841  0.4663  0.8465  0.2625
13784TIP3    H262768   5.063   1.657   4.906  1.4948 -1.9582  1.5446
13785TIP3   OH262769   1.477   1.264  14.697 -0.2999  0.2399 -0.2576
13785TIP3    H162770   1.528   1.254  14.616 -1.2955 -0.1259 -0.8573
13785TIP3    H262771   1.503   1.189  14.751 -1.0190 -0.6050 -1.0359
13786TIP3   OH262772   6.308   0.518   2.567 -0.3890 -0.1036  1.1470
13786TIP3    H162773   6.272   0.445   2.518 -1.1626  0.7390  0.4106
13786TIP3    H262774   6.301   0.492   2.659 -1.7331 -0.4865  0.9543
13787TIP3   OH262775   3.809   5.085  12.545  0.0046 -0.4010  0.4272
13787TIP3    H162776   3.747   5.153  12.569  0.6916  0.9709 -1.4406
13787TIP3    H262777   3.893   5.130  12.535  0.9993 -1.9317  1.3445
13788TIP3   OH262778   4.806   5.304  16.025 -0.2951 -0.2296 -0.5949
13788TIP3    H162779   4.816   5.374  16.089  0.1846 -0.8391  0.0114
13788TIP3    H262780   4.895   5.282  15.998 -0.3574 -1.3468  0.0445
13789TIP3   OH262781   0.160   3.054  11.592 -0.3783 -0.3067 -0.3910
13789TIP3    H162782   0.084   3.002  11.566 -1.0162 -0.5512  1.7724
13789TIP3    H262783   0.211   2.996  11.648 -0.5433  0.9755  1.1909
13790TIP3   OH262784   3.967   0.127  12.156 -0.4222 -0.6212  0.0022
13790TIP3    H162785   3.932   0.125  12.246 -1.8205 -1.4066 -0.5253
13790TIP3    H262786   3.893   0.100  12.102  1.3060 -3.6346 -1.0965
13791TIP3   OH262787   5.415   3.908   5.368 -0.7368  0.0248 -0.3622
13791TIP3    H162788   5.363   3.829   5.382 -1.1619  0.5339  1.1399
13791TIP3    H262789   5.498   3.890   5.413 -1.6050  1.1699  1.8342
13792TIP3   OH262790   4.934   0.319   3.301 -1.1963  0.2168  0.4264
13792TIP3    H162791   4.964   0.277   3.221 -0.4836 -1.5131  1.5372
13792TIP3    H262792   4.873   0.387   3.272  1.1150  1.5327 -1.7173
13793TIP3   OH262793   4.555   3.494   0.251 -0.4690  0.2166 -0.2860
13793TIP3    H162794   4.551   3.428   0.182 -1.2915 -0.7685  0.6592
13793TIP3    H262795   4.512   3.452   0.326  2.9263  0.1169  1.7971
13794TIP3   OH262796   3.944   0.118  13.191 -0.8330  0.0331  0.2239
13794TIP3    H162797   4.001   0.190  13.164 -0.1757 -0.8311 -0.7687
13794TIP3    H262798   3.869   0.121  13.132 -0.0113 -1.0714 -0.9322
13795TIP3   OH262799   2.420   6.185  15.449  0.1794 -0.1253 -0.1487
13795TIP3    H162800   2.431   6.128  15.373 -0.2783  0.3080 -0.5509
13795TIP3    H262801   2.502   6.177  15.497 -0.2313 -1.9015  0.3511
13796TIP3   OH262802   3.725   4.343  11.822 -0.5380  0.2478 -0.7716
13796TIP3    H162803   3.818   4.322  11.821  0.0524  2.3704  0.7434
13796TIP3    H262804   3.683   4.265  11.858  1.2195  0.6952  2.6732
13797TIP3   OH262805   0.990   1.021   3.349 -0.6088 -0.2701 -0.4076
13797TIP3    H162806   0.959   0.962   3.418 -1.1708  0.1202 -0.3149
13797TIP3    H262807   1.085   1.008   3.347 -0.6349 -0.5933  0.1533
13798TIP3   OH262808   4.933   1.571  13.361 -0.5624  0.4808 -0.2522
13798TIP3    H162809   4.872   1.645  13.352 -0.6839  0.3657 -0.3712
13798TIP3    H262810   4.963   1.576  13.452 -0.7679  0.5253 -0.1856
13799TIP3   OH262811   1.132   0.788  13.882 -0.0596 -0.0293  0.4100
13799TIP3    H162812   1.221   0.819  13.865  0.3662 -1.0423  0.6965
13799TIP3    H262813   1.109   0.736  13.805 -0.1833 -0.2317  0.5799
13800TIP3   OH262814   1.933   5.554  14.237 -0.3070  0.0885 -0.1934
13800TIP3    H162815   1.975   5.594  14.313  0.2253  0.0172 -0.4499
13800TIP3    H262816   1.936   5.460  14.256 -1.4155  0.1431  0.3380
13801TIP3   OH262817   5.425   6.700  12.656 -0.0552 -0.4524  0.8376
13801TIP3    H162818   5.501   6.745  12.619 -0.8712 -0.1631 -0.5643
13801TIP3    H262819   5.454   6.670  12.742  0.4955  2.8745  1.9634
13802TIP3   OH262820   4.534   2.461   4.665  0.2438 -0.4596 -0.0957
13802TIP3    H162821   4.610   2.446   4.722 -0.1326 -0.9017  0.2921
13802TIP3    H262822   4.562   2.532   4.607  2.0585 -2.5407 -1.9434
13803TIP3   OH262823   0.006   0.202   3.451 -0.3019  0.4804 -0.1613
13803TIP3    H162824   0.082   0.253   3.476  0.0876 -0.7136  1.1692
13803TIP3    H262825  -0.067   0.242   3.499  0.0148 -0.2205  0.9381
13804TIP3   OH262826   3.266   3.217  10.475  0.4609  0.3697 -0.1342
13804TIP3    H162827   3.228   3.130  10.487 -1.6091  1.3349  0.7403
13804TIP3    H262828   3.287   3.246  10.564  1.5193  0.6164 -0.4570
13805TIP3   OH262829   0.969   4.194   0.938  0.2832  0.2407  0.3112
13805TIP3    H162830   0.933   4.113   0.976  0.8468 -0.4433 -0.5654
13805TIP3    H262831   0.990   4.170   0.848  2.0162  0.8849  0.5142
13806TIP3   OH262832   5.998   1.748  13.189 -0.3508  0.4206  0.3627
13806TIP3    H162833   5.933   1.709  13.248 -0.5994 -2.1307 -1.4488
13806TIP3    H262834   5.950   1.814  13.141 -1.3226 -0.5397 -0.0363
13807TIP3   OH262835   2.355   4.372   5.920 -0.0920  0.2588  0.3278
13807TIP3    H162836   2.429   4.429   5.943 -0.2171  0.0321  1.3416
13807TIP3    H262837   2.325   4.405   5.835  1.7274 -0.2067 -0.5503
13808TIP3   OH262838   3.366   3.503   0.501 -0.1710  0.0545  0.1631
13808TIP3    H162839   3.364   3.598   0.510 -1.1457 -0.0477  1.3340
13808TIP3    H262840   3.290   3.483   0.446 -1.3548 -0.1742  1.7984
13809TIP3   OH262841   0.438   1.765   0.794 -0.8342 -0.3062 -0.1910
13809TIP3    H162842   0.470   1.768   0.885  0.5799  0.1388 -0.6729
13809TIP3    H262843   0.347   1.794   0.799 -0.9847 -0.9292  1.1686
13810TIP3   OH262844   1.443   6.140   4.350 -1.0285  0.2753 -0.1939
13810TIP3    H162845   1.379   6.070   4.334 -1.0638  0.5836 -1.4597
13810TIP3    H262846   1.404   6.218   4.311 -0.4319  0.7454  0.1357
13811TIP3   OH262847   5.534   2.076  12.788  0.0204  0.6450  0.2714
13811TIP3    H162848   5.607   2.076  12.725 -0.6480  0.1484 -0.5180
13811TIP3    H262849   5.557   2.145  12.851  0.4404  1.5247 -0.8188
13812TIP3   OH262850   5.458   1.159   1.515  0.5457  0.2053  0.0338
13812TIP3    H162851   5.485   1.244   1.550  1.0163 -0.0845  0.4082
13812TIP3    H262852   5.526   1.138   1.451  0.3968  0.1445 -0.1014
13813TIP3   OH262853   3.179   6.677  16.498 -0.5312  0.4548  0.5445
13813TIP3    H162854   3.147   6.761  16.466  0.4820  1.2376  1.4936
13813TIP3    H262855   3.167   6.616  16.425 -1.1205  1.4585 -0.2097
13814TIP3   OH262856   1.233   6.356  16.726  0.0900  0.0527 -0.1824
13814TIP3    H162857   1.302   6.346  16.792 -0.3864  0.8029  0.4581
13814TIP3    H262858   1.236   6.449  16.703 -0.8224  0.1386 -0.0037
13815TIP3   OH262859   3.787   1.834   3.562  0.2644  0.3403 -0.0316
13815TIP3    H162860   3.787   1.746   3.600 -1.7898  1.3766  2.6664
13815TIP3    H262861   3.778   1.819   3.468  1.4294 -2.3252  0.1973
13816TIP3   OH262862   1.452   6.556   2.124 -0.5876 -0.8078 -0.6110
13816TIP3    H162863   1.405   6.473   2.133  0.5890 -1.3654  0.7632
13816TIP3    H262864   1.534   6.532   2.081 -1.0732 -0.0062 -2.0573
13817TIP3   OH262865   2.591   1.989  12.010 -0.4303  0.3905 -0.3235
13817TIP3    H162866   2.568   1.940  11.931 -0.1526 -0.0435 -0.1415
13817TIP3    H262867   2.663   1.939  12.049 -1.8865 -0.5804  1.2966
13818TIP3   OH262868   5.823   3.195   3.847  0.1645 -0.0594 -0.0420
13818TIP3    H162869   5.815   3.147   3.929  0.0801 -1.3009 -0.7407
13818TIP3    H262870   5.868   3.276   3.870  2.4798 -1.5128  0.8093
13819TIP3   OH262871   3.748   2.326  15.537  0.6007 -0.1899  0.1032
13819TIP3    H162872   3.790   2.407  15.565 -0.5377  0.2582  0.5840
13819TIP3    H262873   3.804   2.257  15.572  0.1645  0.3747  2.0680
13820TIP3   OH262874   4.581   4.088  14.362  0.1150  0.0876 -0.0647
13820TIP3    H162875   4.581   4.184  14.373 -0.6251 -0.0316  1.2176
13820TIP3    H262876   4.652   4.071  14.300  0.6924  1.4231  0.1884
13821TIP3   OH262877   5.512   5.473   3.556  0.0392  0.2370  0.4996
13821TIP3    H162878   5.551   5.386   3.560 -0.9673 -0.2214  0.5726
13821TIP3    H262879   5.579   5.527   3.515 -0.1313 -1.0387 -1.5853
13822TIP3   OH262880   1.095   0.084  13.665 -0.0979  0.0211  0.3876
13822TIP3    H162881   1.163   0.108  13.602 -0.8124  1.2238  0.0412
13822TIP3    H262882   1.080   0.164  13.716 -2.7930  0.5191 -1.0101
13823TIP3   OH262883   4.919   5.552   5.810  0.5445 -0.3733  0.4643
13823TIP3    H162884   4.827   5.555   5.835  0.2608  2.4956 -0.5977
13823TIP3    H262885   4.962   5.508   5.883 -1.3230  0.4135  2.1246
13824TIP3   OH262886   5.107   6.609  12.256  0.2402  0.2315  0.1157
13824TIP3    H162887   5.142   6.672  12.192  1.0293  1.0074  1.2695
13824TIP3    H262888   5.185   6.573  12.299 -0.2779 -0.3256  0.5969
13825TIP3   OH262889   5.100   1.659  12.385 -0.1353  0.1743  0.0885
13825TIP3    H162890   5.144   1.741  12.407  2.7054 -0.9179 -1.0000
13825TIP3    H262891   5.171   1.599  12.363 -2.1277 -2.4006  0.1355
13826TIP3   OH262892   4.906   1.109  15.154 -0.0802  0.1461 -0.0572
13826TIP3    H162893   4.866   1.172  15.214  0.0869 -0.0046  0.2157
13826TIP3    H262894   4.879   1.023  15.187 -0.8665  0.0858 -0.8248
13827TIP3   OH262895   0.813   5.352  16.318  0.2366  0.0542 -0.6735
13827TIP3    H162896   0.754   5.350  16.243 -0.5046 -2.7257 -0.1374
13827TIP3    H262897   0.763   5.396  16.386 -0.1069  0.2498 -1.0467
13828TIP3   OH262898   2.623   4.734  14.287  0.4182  0.6456 -0.3183
13828TIP3    H162899   2.627   4.775  14.374  0.0321 -0.0424  0.0336
13828TIP3    H262900   2.712   4.742  14.253  1.5597 -2.1081  1.5836
13829TIP3   OH262901   1.429   2.930  11.138  0.2073  0.2394 -0.1686
13829TIP3    H162902   1.451   2.848  11.093  3.1149  0.2730  0.9951
13829TIP3    H262903   1.442   2.998  11.073  2.9511  0.1554  0.1687
13830TIP3   OH262904   1.330   2.040  11.824  0.2312 -0.1586  0.1523
13830TIP3    H162905   1.395   2.039  11.894  2.6279  0.8953 -1.9148
13830TIP3    H262906   1.310   2.132  11.810 -1.2165 -0.4281  0.2592
13831TIP3   OH262907   5.481   1.973  15.605 -0.3156  0.6267  0.3983
13831TIP3    H162908   5.548   2.041  15.592  0.4039  0.0268  0.8969
13831TIP3    H262909   5.516   1.917  15.674  0.1731 -1.5937 -1.5278
13832TIP3   OH262910   2.870   4.733   3.172 -0.0850 -0.3526  0.1015
13832TIP3    H162911   2.964   4.720   3.162  0.0176 -1.0864  1.6960
13832TIP3    H262912   2.862   4.807   3.232 -0.5452  0.2890 -0.7365
13833TIP3   OH262913   6.033   0.504   6.296  0.3874 -0.1099  0.3759
13833TIP3    H162914   6.090   0.428   6.288  0.8420  0.3087 -0.4846
13833TIP3    H262915   6.066   0.566   6.231 -0.4480  0.5240  0.5363
13834TIP3   OH262916   1.584   0.637  15.928  0.0841 -0.4444  0.2478
13834TIP3    H162917   1.562   0.563  15.985  1.7047 -0.0543  1.4265
13834TIP3    H262918   1.576   0.601  15.839 -2.8209 -0.9598  0.6189
13835TIP3   OH262919   0.273   3.114   0.580  0.6203  0.6293 -0.1902
13835TIP3    H162920   0.285   3.208   0.590  0.3546  0.5936  0.5301
13835TIP3    H262921   0.277   3.080   0.669  0.6787 -0.0394 -0.4408
13836TIP3   OH262922   3.690   5.634  15.673  0.1725 -0.2647 -0.5624
13836TIP3    H162923   3.737   5.692  15.613  0.6875 -0.2274 -0.1197
13836TIP3    H262924   3.656   5.564  15.616  0.9201 -0.3977 -0.8583
13837TIP3   OH262925   6.096   2.603   1.347 -0.4457 -0.3218 -0.4389
13837TIP3    H162926   6.138   2.536   1.400 -2.1293 -0.8022  0.3754
13837TIP3    H262927   6.081   2.676   1.408 -0.0553  0.1574 -0.9134
13838TIP3   OH262928   4.738   5.319   1.612  0.1668 -0.6392 -0.1119
13838TIP3    H162929   4.789   5.244   1.643 -0.1869 -1.0130 -0.4186
13838TIP3    H262930   4.648   5.286   1.607 -0.1280  0.0464  0.5370
13839TIP3   OH262931   4.035   2.580   3.569 -0.2592 -0.6233  0.4602
13839TIP3    H162932   4.039   2.497   3.616 -1.4628 -1.0426 -0.1538
13839TIP3    H262933   4.018   2.645   3.637 -1.7399 -1.1873  0.6510
13840TIP3   OH262934   1.568   2.716  14.250 -0.0104 -0.8539  0.1292
13840TIP3    H162935   1.596   2.642  14.304  1.9251 -0.2326  0.0635
13840TIP3    H262936   1.610   2.700  14.165 -0.7030 -0.3843 -0.3056
13841TIP3   OH262937   0.747   2.690   5.378  0.3098 -0.1833 -0.0537
13841TIP3    H162938   0.815   2.652   5.322  1.0657  1.3138 -0.2013
13841TIP3    H262939   0.675   2.711   5.318 -0.0511 -1.1857  0.0062
13842TIP3   OH262940   0.500   5.608  16.686  0.1736  0.1527 -0.0136
13842TIP3    H162941   0.570   5.673  16.694  0.5965 -0.3312  0.2917
13842TIP3    H262942   0.450   5.618  16.767  0.1874  0.1531 -0.0052
13843TIP3   OH262943   0.068   2.970   1.844 -0.2492 -0.0545 -0.0108
13843TIP3    H162944   0.164   2.965   1.847 -0.0587  2.7083  0.7787
13843TIP3    H262945   0.048   2.996   1.754 -0.0948  1.1370  0.2809
13844TIP3   OH262946   3.558   1.078   5.488  0.8606  0.3814  0.3409
13844TIP3    H162947   3.486   1.139   5.503  0.3917 -0.3861  1.3277
13844TIP3    H262948   3.540   1.040   5.402 -1.2219 -1.4682  1.4926
13845TIP3   OH262949   1.099   4.962  13.646  0.2073  0.2833 -0.2432
13845TIP3    H162950   1.115   5.035  13.586  1.4277  1.1130  1.0357
13845TIP3    H262951   1.167   4.899  13.626 -0.3953 -0.1975 -0.8348
13846TIP3   OH262952   4.149   0.141  15.273  0.2917 -0.0991 -0.1346
13846TIP3    H162953   4.134   0.068  15.334  1.1846 -0.5035 -0.3706
13846TIP3    H262954   4.117   0.218  15.319  0.2312 -0.5074  0.5231
13847TIP3   OH262955   1.900   4.433   5.017 -0.1858  0.2365  0.1713
13847TIP3    H162956   1.871   4.522   5.001  1.8276  0.4689 -2.8806
13847TIP3    H262957   1.978   4.422   4.963  0.0858 -3.1618  0.9887
13848TIP3   OH262958   2.821   5.748  16.509 -0.5708 -0.7448 -0.0883
13848TIP3    H162959   2.805   5.837  16.477 -1.6098 -0.6698  0.5806
13848TIP3    H262960   2.744   5.698  16.481 -0.3543 -1.2553  0.1980
13849TIP3   OH262961   1.621   2.790   5.524  0.7093  0.2388  0.0756
13849TIP3    H162962   1.654   2.843   5.596  2.0013 -1.3299  0.7189
13849TIP3    H262963   1.616   2.701   5.560 -0.2417 -0.2951 -1.2815
13850TIP3   OH262964   3.772   6.647   4.146 -0.3222 -0.5767 -0.2081
13850TIP3    H162965   3.703   6.646   4.212  0.0388 -0.3962  0.1766
13850TIP3    H262966   3.753   6.725   4.093  0.9259  0.8489  1.3557
13851TIP3   OH262967   6.374   0.916  15.894  0.5682 -0.5595  0.0126
13851TIP3    H162968   6.466   0.897  15.915  0.9838  0.6601 -0.5773
13851TIP3    H262969   6.379   0.974  15.818 -0.5988  1.0688  1.1115
13852TIP3   OH262970   3.667   5.974  14.654 -0.2357 -0.5258  0.4136
13852TIP3    H162971   3.691   5.976  14.746 -0.7081 -3.6906  0.7062
13852TIP3    H262972   3.748   5.954  14.608 -0.2099  0.0134  0.2080
13853TIP3   OH262973   4.158   2.649  17.122  0.2726  0.1869  0.1256
13853TIP3    H162974   4.134   2.606  17.040  2.3824 -0.7179 -0.0933
13853TIP3    H262975   4.097   2.613  17.186 -0.9478  0.3688 -0.9019
13854TIP3   OH262976   6.136   4.312   1.147 -0.6078 -0.6571 -0.2487
13854TIP3    H162977   6.132   4.375   1.219  0.4962 -0.5811 -0.2369
13854TIP3    H262978   6.064   4.251   1.164  0.6756 -1.6909  1.9483
13855TIP3   OH262979   6.711   3.163  17.335 -0.3707  0.4590  0.4243
13855TIP3    H162980   6.633   3.188  17.384 -0.3193  0.6634  0.4018
13855TIP3    H262981   6.706   3.212  17.253 -0.4810  0.0818  0.2010
13856TIP3   OH262982   4.915   2.989   2.874 -0.0912  0.8265 -0.0343
13856TIP3    H162983   4.980   3.058   2.860  0.8246 -0.1000 -0.4613
13856TIP3    H262984   4.871   3.014   2.955  0.0837  2.0160 -0.2894
13857TIP3   OH262985   0.737   1.984  10.849  0.1462 -0.7249 -0.4241
13857TIP3    H162986   0.649   2.005  10.880  0.8837  2.6217 -0.1685
13857TIP3    H262987   0.795   2.018  10.917  1.6670 -1.9623 -1.0477
13858TIP3   OH262988   5.642   4.494  17.138 -0.3546  0.1190  0.2713
13858TIP3    H162989   5.703   4.421  17.128 -1.1111 -0.7626  1.8576
13858TIP3    H262990   5.689   4.569  17.099  0.7752 -1.0066 -0.6249
13859TIP3   OH262991   1.997   1.406   4.961  0.0234 -0.0508  0.4447
13859TIP3    H162992   2.034   1.419   5.048  0.2130 -1.5254  0.6205
13859TIP3    H262993   1.910   1.446   4.965 -0.1825 -0.5786  1.4895
13860TIP3   OH262994   0.407   5.337  11.735 -0.2755  0.0275  0.4224
13860TIP3    H162995   0.403   5.266  11.800  1.0284 -0.4960 -0.0469
13860TIP3    H262996   0.396   5.293  11.651  0.1354  0.4350  0.1524
13861TIP3   OH262997   5.781   1.258  14.456  0.2281 -0.0216 -0.0580
13861TIP3    H162998   5.823   1.273  14.542 -0.5531  0.6948  0.2183
13861TIP3    H262999   5.786   1.164  14.443  0.6241 -0.1084  0.6417
13862TIP3   OH263000   0.696   3.636   1.498 -0.5974 -0.0370  0.0845
13862TIP3    H163001   0.680   3.608   1.407 -1.3936 -0.1378  0.2484
13862TIP3    H263002   0.736   3.559   1.539  1.8764  0.7248 -0.7273
13863TIP3   OH263003   5.927   3.114   1.013  0.6178 -0.2289  0.6852
13863TIP3    H163004   6.020   3.136   1.007  0.6959  0.5816  3.4382
13863TIP3    H263005   5.882   3.190   0.978  1.0016  0.5464  1.8164
13864TIP3   OH263006   0.286   3.237  16.304  0.2214  0.1385 -0.0696
13864TIP3    H163007   0.215   3.182  16.338  0.7794 -0.2610  0.4926
13864TIP3    H263008   0.264   3.326  16.331  0.1781 -0.0522  0.5379
13865TIP3   OH263009   2.448   4.169  13.267  0.2530  0.7152  0.2390
13865TIP3    H163010   2.447   4.252  13.218  1.6474  1.0678  0.7379
13865TIP3    H263011   2.494   4.108  13.210  0.4240  0.6633  0.4322
13866TIP3   OH263012   0.818   2.607   0.223 -0.0624 -0.0214  0.4892
13866TIP3    H163013   0.791   2.550   0.294  0.5690  1.2155  1.7680
13866TIP3    H263014   0.760   2.683   0.230 -0.1347  0.0272 -0.4692
13867TIP3   OH263015   2.373   6.711  16.140  0.2518  0.0075  0.1371
13867TIP3    H163016   2.451   6.767  16.145 -0.7656  1.3963  1.3616
13867TIP3    H263017   2.319   6.739  16.214 -2.1877  0.3048 -1.6142
13868TIP3   OH263018   3.464   2.093  17.275  0.0065  0.0541 -0.7240
13868TIP3    H163019   3.528   2.036  17.319  1.7344  1.6095 -1.0852
13868TIP3    H263020   3.507   2.119  17.194 -1.6050  0.2391 -1.5607
13869TIP3   OH263021   5.404   1.284   3.579 -0.3760 -0.4499 -0.1485
13869TIP3    H163022   5.386   1.269   3.486 -0.7015  0.2345 -0.2054
13869TIP3    H263023   5.434   1.200   3.612 -0.9003 -0.8724 -0.7279
13870TIP3   OH263024   3.690   4.677   5.676 -0.6989 -0.1336 -0.4384
13870TIP3    H163025   3.681   4.616   5.749  1.8116  0.0970  0.1584
13870TIP3    H263026   3.695   4.622   5.598  0.7124 -0.6888  0.0110
13871TIP3   OH263027   3.042   4.416   2.957  0.1192 -0.5065  0.1743
13871TIP3    H163028   3.061   4.484   2.893 -0.8413 -0.6948 -0.3361
13871TIP3    H263029   2.972   4.453   3.012 -1.5144 -1.5988 -1.0646
13872TIP3   OH263030   0.382   0.966  17.389 -0.1667 -0.3976 -0.3487
13872TIP3    H163031   0.314   0.916  17.344 -1.3463  0.3568  0.5343
13872TIP3    H263032   0.381   1.052  17.346 -0.5909 -0.0126  0.3979
13873TIP3   OH263033   0.016   3.187  14.781 -0.1816 -0.0826 -0.1573
13873TIP3    H163034   0.024   3.221  14.691  1.1715  0.5960  0.1812
13873TIP3    H263035   0.064   3.250  14.834  1.2655 -1.8039  0.6930
13874TIP3   OH263036   2.524   3.672   0.272 -0.0919 -0.2159 -0.5016
13874TIP3    H163037   2.474   3.606   0.320 -0.3259 -0.3448 -0.9169
13874TIP3    H263038   2.604   3.684   0.324  0.6685 -1.9525 -1.1830
13875TIP3   OH263039   0.396   2.615   1.708  0.0786  0.2484  0.1065
13875TIP3    H163040   0.356   2.658   1.784 -3.3183 -1.0689 -0.7563
13875TIP3    H263041   0.379   2.675   1.635 -1.0464 -0.6295 -0.3871
13876TIP3   OH263042   5.460   5.716   1.580  0.1489  0.1075 -0.7009
13876TIP3    H163043   5.434   5.731   1.671 -0.2118  2.3393 -1.1059
13876TIP3    H263044   5.546   5.759   1.573  0.3264 -0.3435 -1.3369
13877TIP3   OH263045   0.289   2.418   6.325  0.2200  0.0667 -0.8241
13877TIP3    H163046   0.358   2.482   6.343  0.6297  0.0537 -2.2665
13877TIP3    H263047   0.213   2.452   6.373  1.3063 -0.1861  1.2113
13878TIP3   OH263048   3.300   0.405   6.808  0.4686  0.2765 -0.0068
13878TIP3    H163049   3.272   0.412   6.716 -0.1889  0.7316  0.2178
13878TIP3    H263050   3.253   0.476   6.852  1.3572  0.5317  0.5484
13879TIP3   OH263051   3.570   2.303   5.033  0.4653  0.5190  0.1796
13879TIP3    H163052   3.610   2.386   5.058 -0.4241  0.9595  0.1983
13879TIP3    H263053   3.477   2.324   5.022  0.4586 -0.1502 -1.2745
13880TIP3   OH263054   4.258   3.536   3.245  0.3719  0.9049 -0.3486
13880TIP3    H163055   4.202   3.464   3.218  0.0712  1.2932 -0.7666
13880TIP3    H263056   4.264   3.527   3.340  0.9522 -0.1094 -0.4632
13881TIP3   OH263057   1.858   6.440   2.566  0.4764 -0.4032  0.4153
13881TIP3    H163058   1.928   6.418   2.627  0.0768  0.2687  1.1394
13881TIP3    H263059   1.842   6.534   2.581  0.3993 -0.2211 -0.7503
13882TIP3   OH263060   3.477   2.667   3.102  0.4255  0.1750  0.3992
13882TIP3    H163061   3.451   2.678   3.010 -0.3181  2.7016  0.8172
13882TIP3    H263062   3.572   2.653   3.098  0.8385  2.6692 -0.7294
13883TIP3   OH263063   2.030   4.125   6.468  0.1918 -0.2776  0.7816
13883TIP3    H163064   1.965   4.178   6.421 -1.3754 -0.7942  2.2540
13883TIP3    H263065   2.111   4.174   6.460 -0.8047  1.4192  0.5198
13884TIP3   OH263066   4.165   3.381  14.792  0.3923  0.2452 -0.1591
13884TIP3    H163067   4.241   3.332  14.825  0.6389  0.8406  0.1673
13884TIP3    H263068   4.129   3.423  14.870 -0.5024 -0.3269 -0.2483
13885TIP3   OH263069   3.176   2.295  13.887 -0.2795  0.0787  0.5125
13885TIP3    H163070   3.259   2.270  13.929 -0.1826  1.4036  1.1612
13885TIP3    H263071   3.130   2.212  13.875  0.5362 -0.5425  1.4472
13886TIP3   OH263072   3.679   5.636   1.444  0.1520  0.1339  0.6125
13886TIP3    H163073   3.586   5.626   1.426  0.4629  1.5625 -2.3921
13886TIP3    H263074   3.688   5.723   1.481  0.3001 -0.0388  0.9901
13887TIP3   OH263075   0.450   5.597  14.764  0.0542  0.7346 -0.5536
13887TIP3    H163076   0.408   5.574  14.681 -2.4379 -0.5479  0.9511
13887TIP3    H263077   0.379   5.636  14.817  2.0727  3.7414  0.2287
13888TIP3   OH263078   3.089   0.507  12.468 -0.5892  0.2582  0.1559
13888TIP3    H163079   3.062   0.476  12.382  0.9981 -0.2254 -0.1973
13888TIP3    H263080   3.088   0.429  12.523 -1.3511  0.5190  0.5237
13889TIP3   OH263081   1.994   1.501  15.016 -0.6370  0.3438 -0.1408
13889TIP3    H163082   2.005   1.590  15.048 -0.8258  0.0898  0.6387
13889TIP3    H263083   1.901   1.482  15.026 -0.6810  0.2214 -0.7453
13890TIP3   OH263084   4.278   3.590  12.059  0.3397 -0.5025  0.0878
13890TIP3    H163085   4.298   3.674  12.018 -0.8180 -1.1197 -1.8949
13890TIP3    H263086   4.183   3.584  12.056  0.4396 -2.1861 -0.4744
13891TIP3   OH263087   6.113   1.146  10.753  0.2873  0.3964 -0.8379
13891TIP3    H163088   6.109   1.065  10.804 -0.4085  0.4064 -0.8603
13891TIP3    H263089   6.048   1.134  10.684  0.9318  0.5538 -1.4778
13892TIP3   OH263090   6.707   4.347   1.769 -0.3703 -0.1294 -0.1878
13892TIP3    H163091   6.801   4.331   1.774 -0.2341  0.7209  0.1966
13892TIP3    H263092   6.686   4.339   1.676 -0.3152 -2.3310 -0.0597
13893TIP3   OH263093   5.500   1.547  11.535  0.3509 -0.4206  0.3887
13893TIP3    H163094   5.547   1.628  11.516 -0.3718 -0.4366 -1.7884
13893TIP3    H263095   5.410   1.574  11.550  0.2816 -0.7460  0.5686
13894TIP3   OH263096   5.587   6.654   6.030  0.2043  0.3844 -0.4296
13894TIP3    H163097   5.531   6.681   5.958  1.5025 -0.1697 -1.6861
13894TIP3    H263098   5.532   6.595   6.082  0.5665 -3.2822 -3.7121
13895TIP3   OH263099   1.680   0.107   3.881 -0.5069  0.2075 -0.3485
13895TIP3    H163100   1.590   0.138   3.892  0.1743  2.2033 -0.0878
13895TIP3    H263101   1.684   0.076   3.790 -1.1474  1.2513 -0.7457
13896TIP3   OH263102   1.747   2.378  13.370  0.5124 -0.1124 -0.0741
13896TIP3    H163103   1.796   2.321  13.311  2.0663  1.7314 -0.6517
13896TIP3    H263104   1.699   2.437  13.312  0.4318  0.3978  0.5067
13897TIP3   OH263105   5.638   4.212  17.425  0.0487 -0.0288  0.5191
13897TIP3    H163106   5.686   4.293  17.408  0.9007 -0.2966  1.5905
13897TIP3    H263107   5.694   4.142  17.392 -0.5971 -0.2214 -0.2203
13898TIP3   OH263108   2.212   2.090  13.423  0.2313 -0.1476 -0.3688
13898TIP3    H163109   2.277   2.143  13.377 -0.3350 -0.9193 -2.1775
13898TIP3    H263110   2.128   2.127  13.396 -0.1251  0.8222  1.9107
13899TIP3   OH263111   0.314   3.621   0.013  1.1633  0.7767 -0.5636
13899TIP3    H163112   0.330   3.601   0.105 -0.3868 -0.3201 -0.5017
13899TIP3    H263113   0.242   3.684   0.013  1.6109  1.3033 -1.0183
13900TIP3   OH263114   0.049   0.487  14.363 -0.3123 -0.1015 -0.1042
13900TIP3    H163115   0.114   0.478  14.431 -0.0446 -1.2893 -0.5000
13900TIP3    H263116   0.040   0.400  14.326 -1.2190  0.3011 -0.8871
13901TIP3   OH263117   4.132   2.078  17.308  0.5254 -0.1833 -0.5475
13901TIP3    H163118   4.152   2.132  17.384 -0.3603 -1.2736  0.4918
13901TIP3    H263119   4.090   2.138  17.246 -1.6178  0.0979  1.0819
13902TIP3   OH263120   3.244   2.627   1.713  0.0723  0.0620 -0.2142
13902TIP3    H163121   3.176   2.562   1.695  1.5642 -1.9778  1.0243
13902TIP3    H263122   3.254   2.625   1.809  1.0455  1.1900 -0.2705
13903TIP3   OH263123   5.982   5.809   2.879  0.3136  0.3954 -0.4664
13903TIP3    H163124   6.003   5.894   2.918 -0.3718  0.4050 -0.0859
13903TIP3    H263125   5.933   5.831   2.800 -0.2125  0.3635 -0.1588
13904TIP3   OH263126   5.202   5.968  16.564 -0.5852  0.1345  0.2574
13904TIP3    H163127   5.257   6.046  16.560 -0.0057 -0.2993 -0.4683
13904TIP3    H263128   5.197   5.948  16.658 -0.8702  1.1170  0.4706
13905TIP3   OH263129   2.367   5.324  12.417 -0.6827  0.1054  0.0371
13905TIP3    H163130   2.285   5.299  12.375 -1.2798  0.9009  0.6753
13905TIP3    H263131   2.422   5.246  12.412 -2.0032 -0.9203  0.8553
13906TIP3   OH263132   0.340   2.712  11.595 -0.8243 -0.2260 -0.4219
13906TIP3    H163133   0.360   2.620  11.616 -1.9997 -0.7767 -1.5222
13906TIP3    H263134   0.352   2.759  11.678  0.1486 -1.3022  0.0822
13907TIP3   OH263135   1.356   4.419   2.894 -0.4098 -0.9153 -0.4888
13907TIP3    H163136   1.374   4.508   2.923 -3.6995  0.1577 -1.3658
13907TIP3    H263137   1.414   4.406   2.819  0.8717  0.0421  0.2921
13908TIP3   OH263138   2.143   3.904   1.788 -1.3068 -0.0398 -0.2147
13908TIP3    H163139   2.094   3.924   1.709 -2.3482 -0.1004  0.3990
13908TIP3    H263140   2.213   3.969   1.790 -0.9242 -0.3844 -1.4632
13909TIP3   OH263141   4.962   0.886  12.462 -0.1671 -0.0722 -0.2764
13909TIP3    H163142   4.964   0.852  12.373  0.3348 -0.1601 -0.2337
13909TIP3    H263143   5.019   0.827  12.512  0.0959  0.3724 -0.0415
13910TIP3   OH263144   2.511   6.139   4.524  0.0344 -0.2958  0.7053
13910TIP3    H163145   2.464   6.064   4.489  0.6992 -0.8483  0.9760
13910TIP3    H263146   2.452   6.213   4.509 -0.4899 -0.8133  0.1409
13911TIP3   OH263147   5.075   6.333  11.892  0.3183  0.2829 -0.0032
13911TIP3    H163148   5.029   6.393  11.951 -0.0704  0.6801 -0.6992
13911TIP3    H263149   5.082   6.381  11.809  3.1571  0.7718  0.4148
13912TIP3   OH263150   1.624   2.538   5.916  0.8551  0.5446  0.6217
13912TIP3    H163151   1.662   2.466   5.966 -0.7198 -1.4528 -0.8988
13912TIP3    H263152   1.600   2.603   5.983 -0.1727 -1.5291  2.4004
13913TIP3   OH263153   0.596   4.566   0.009 -0.0780 -0.3223 -0.1784
13913TIP3    H163154   0.638   4.489   0.047 -2.2922 -1.8175 -0.5679
13913TIP3    H263155   0.531   4.593   0.074 -2.5878 -1.7559 -1.8924
13914TIP3   OH263156   1.368   1.180   5.414 -0.1104  0.0369 -0.0210
13914TIP3    H163157   1.439   1.203   5.474  0.1940  0.2306 -0.4474
13914TIP3    H263158   1.397   1.214   5.329 -0.7480  0.1897 -0.1835
13915TIP3   OH263159   0.072   5.470  14.701  0.4349  0.3560 -0.7859
13915TIP3    H163160   0.119   5.514  14.630 -1.0450  2.4641 -0.5359
13915TIP3    H263161   0.068   5.535  14.771 -1.8356 -0.1232 -0.3994
13916TIP3   OH263162   1.304   5.523   1.797  0.3359 -0.1283  0.2602
13916TIP3    H163163   1.399   5.521   1.788  0.2611 -1.1480 -0.5178
13916TIP3    H263164   1.283   5.454   1.859 -0.0266 -1.3779 -1.2063
13917TIP3   OH263165   1.873   0.759   1.477 -0.0353 -0.0880 -0.6868
13917TIP3    H163166   1.879   0.831   1.540 -0.6242 -0.7110  0.1031
13917TIP3    H263167   1.964   0.744   1.450  0.4609 -0.8014  1.1931
13918TIP3   OH263168   4.190   3.335   4.731  0.0168 -0.2586  0.8895
13918TIP3    H163169   4.096   3.351   4.739  0.1240  0.4865  0.7311
13918TIP3    H263170   4.217   3.310   4.820  0.2786  2.9801  1.8491
13919TIP3   OH263171   2.645   2.129  15.546  0.5132  0.1889  0.6861
13919TIP3    H163172   2.713   2.165  15.489  0.8836 -0.8463  0.4470
13919TIP3    H263173   2.568   2.121  15.490  0.1059  1.5883  1.0194
13920TIP3   OH263174   3.522   3.459  14.789 -0.0493  0.5829  0.0512
13920TIP3    H163175   3.577   3.425  14.718  0.8525  0.9653  0.5556
13920TIP3    H263176   3.455   3.511  14.744  0.2286  0.4326 -0.5486
13921TIP3   OH263177   4.396   3.943  13.451 -0.3146  0.1320 -0.1227
13921TIP3    H163178   4.401   3.981  13.363  0.9152 -0.8838 -0.5328
13921TIP3    H263179   4.304   3.922  13.463 -0.3969 -0.3770 -1.4780
13922TIP3   OH263180   6.409   3.500   2.878  0.4286  0.3582 -0.1788
13922TIP3    H163181   6.482   3.480   2.820  0.0093  0.2464 -0.6769
13922TIP3    H263182   6.341   3.438   2.853  0.1644  0.4611  0.2802
13923TIP3   OH263183   2.789   2.801  15.371  0.4610 -0.2979 -0.7315
13923TIP3    H163184   2.767   2.886  15.332  0.7415  1.2740  2.2375
13923TIP3    H263185   2.881   2.810  15.395  0.2922 -1.1810  0.2663
13924TIP3   OH263186   6.646   1.511  12.492 -0.3294 -0.1612  0.0764
13924TIP3    H163187   6.586   1.452  12.536 -1.4403  1.3471  0.6767
13924TIP3    H263188   6.725   1.459  12.476 -0.8437 -1.4487  1.5958
13925TIP3   OH263189   2.967   2.256   2.209  0.2206  0.2238  0.2549
13925TIP3    H163190   2.925   2.206   2.280  0.2953  0.7746  0.6951
13925TIP3    H263191   3.022   2.319   2.254  1.2246 -0.2198 -0.3225
13926TIP3   OH263192   5.804   2.229   6.467 -0.7033  0.5091  0.1623
13926TIP3    H163193   5.743   2.206   6.536  0.1135  2.1972  1.5371
13926TIP3    H263194   5.890   2.200   6.500 -0.4326  0.3495 -0.6478
13927TIP3   OH263195   2.537   2.099  14.274  0.5276 -0.1337 -1.1467
13927TIP3    H163196   2.545   2.013  14.314  2.3849  0.3501 -0.3691
13927TIP3    H263197   2.451   2.131  14.301 -0.5023 -2.0051 -2.0588
13928TIP3   OH263198   4.956   4.940   2.164 -0.1505  0.0356 -0.4615
13928TIP3    H163199   4.959   4.940   2.068 -1.4419 -1.6095 -0.5484
13928TIP3    H263200   4.990   4.854   2.189 -2.1663 -0.5752  0.3861
13929TIP3   OH263201   2.340   4.459  11.514 -0.0752  0.0011  0.2740
13929TIP3    H163202   2.246   4.463  11.531  0.0186  0.9925  0.6145
13929TIP3    H263203   2.359   4.537  11.461  0.7298  0.4279  1.1439
13930TIP3   OH263204   3.445   4.683   4.351 -0.3266 -0.2526  0.0901
13930TIP3    H163205   3.455   4.589   4.364 -0.0897 -0.4116 -1.1047
13930TIP3    H263206   3.535   4.717   4.347 -0.3965 -0.0939 -0.2098
13931TIP3   OH263207   4.012   4.524   0.294 -0.2956 -0.9563 -0.2882
13931TIP3    H163208   3.990   4.522   0.200 -0.8851  0.2911 -0.1936
13931TIP3    H263209   4.022   4.617   0.314  2.4507 -1.3056  0.3071
13932TIP3   OH263210   2.607   0.679   2.199  0.3862  0.5227 -0.0914
13932TIP3    H163211   2.558   0.674   2.281  3.2132 -0.7881  1.6885
13932TIP3    H263212   2.581   0.763   2.160 -3.2149 -0.1258  0.5856
13933TIP3   OH263213   5.001   4.357   1.474 -0.0354  0.0313 -0.3919
13933TIP3    H163214   5.095   4.371   1.465 -0.1054  0.4873 -0.4072
13933TIP3    H263215   4.986   4.271   1.434  0.3159  0.1247 -0.7275
13934TIP3   OH263216   1.567   2.162  14.242 -0.0574 -0.7588 -0.2281
13934TIP3    H163217   1.648   2.194  14.282  0.6855 -0.0202 -2.1884
13934TIP3    H263218   1.499   2.221  14.275  0.8732  1.2298 -1.6154
13935TIP3   OH263219   4.683   4.411  17.002  0.6262 -0.7122 -0.7040
13935TIP3    H163220   4.715   4.321  16.993  2.6253 -0.4263  2.1674
13935TIP3    H263221   4.753   4.456  17.050 -1.8507  1.4484  1.1362
13936TIP3   OH263222   5.948   4.845   4.871  0.0447  0.0800  0.4825
13936TIP3    H163223   6.031   4.838   4.918  0.6450 -0.3610 -0.6026
13936TIP3    H263224   5.953   4.779   4.802 -1.1449  0.1627  0.2822
13937TIP3   OH263225   4.073   5.393  13.276 -0.4828 -0.4901  0.5184
13937TIP3    H163226   4.039   5.462  13.219 -1.0816 -1.2420 -0.0742
13937TIP3    H263227   4.130   5.438  13.338 -1.0053  0.5544  0.2662
13938TIP3   OH263228   1.291   0.644  12.492 -0.3154  0.3912 -0.2400
13938TIP3    H163229   1.323   0.691  12.415 -1.5567  1.2918 -0.2408
13938TIP3    H263230   1.350   0.670  12.563 -1.1224  2.2376 -0.1795
13939TIP3   OH263231   5.997   0.287  11.630  0.5370  0.4758 -0.2601
13939TIP3    H163232   6.063   0.352  11.654  2.5356 -1.0156 -1.4970
13939TIP3    H263233   5.982   0.300  11.537  0.0105 -0.0266 -0.2525
13940TIP3   OH263234   2.278   0.061  11.060  0.3217 -0.1542 -0.2381
13940TIP3    H163235   2.324   0.090  10.981  1.0215 -0.3104  0.1064
13940TIP3    H263236   2.191   0.035  11.028 -0.3757  2.3017 -0.5502
13941TIP3   OH263237   2.130   6.000   3.237 -0.3386 -0.8670  0.1696
13941TIP3    H163238   2.092   5.996   3.324 -1.7424  1.3023 -0.2682
13941TIP3    H263239   2.058   5.975   3.178 -0.2603  0.3972 -0.5009
13942TIP3   OH263240   3.084   6.011   2.257  0.5242  0.4390 -0.5323
13942TIP3    H163241   3.053   6.042   2.342  2.1987  0.0295  0.2806
13942TIP3    H263242   3.168   6.056   2.245  1.8329 -1.8181 -0.4667
13943TIP3   OH263243   6.293   3.502   3.702  0.8075  0.0428  0.5315
13943TIP3    H163244   6.287   3.584   3.654 -2.3254 -0.3498  0.0823
13943TIP3    H263245   6.209   3.458   3.687  0.8915 -1.5613  3.7686
13944TIP3   OH263246   5.428   0.905  13.596  0.2250 -0.7918 -0.5405
13944TIP3    H163247   5.394   0.995  13.586 -0.0345 -0.9705 -1.3738
13944TIP3    H263248   5.433   0.892  13.691 -2.0586 -0.7346 -0.3346
13945TIP3   OH263249   5.808   4.303  13.920  0.2896  0.0116  0.2750
13945TIP3    H163250   5.719   4.280  13.947  0.0456 -0.2853 -0.7486
13945TIP3    H263251   5.797   4.376  13.860  0.6219 -0.8406 -0.8535
13946TIP3   OH263252   6.022   1.894  10.893  0.1500  0.4147  0.0720
13946TIP3    H163253   6.006   1.839  10.816  1.9303  0.7483 -0.5857
13946TIP3    H263254   6.054   1.833  10.959  1.9616  0.5720 -0.6042
13947TIP3   OH263255   0.543   5.700  15.131  0.4109 -0.4609  0.1125
13947TIP3    H163256   0.493   5.722  15.052 -1.7896  0.1867  1.6158
13947TIP3    H263257   0.477   5.683  15.198  2.2041 -1.8427  1.6431
13948TIP3   OH263258   4.230   3.918  16.265  0.2651 -0.3422  0.4431
13948TIP3    H163259   4.312   3.872  16.284 -0.2115 -1.2678  0.2873
13948TIP3    H263260   4.202   3.884  16.180 -0.9392 -1.0061  1.0726
13949TIP3   OH263261   0.434   1.267   3.616  0.4488 -0.1536 -0.2508
13949TIP3    H163262   0.475   1.352   3.602  0.1311  0.4717  2.0924
13949TIP3    H263263   0.457   1.216   3.539 -0.0248  2.2667 -2.1279
13950TIP3   OH263264   3.372   1.472   4.547  0.1374  0.0670  0.0312
13950TIP3    H163265   3.461   1.457   4.580  0.0722 -0.5034 -0.0568
13950TIP3    H263266   3.354   1.398   4.490 -1.3781 -1.2106  2.0465
13951TIP3   OH263267   1.572   3.199   1.368  0.5026 -0.3659 -0.0869
13951TIP3    H163268   1.572   3.228   1.459 -1.7683  1.8683 -0.6834
13951TIP3    H263269   1.665   3.194   1.345  1.1429 -1.0873  2.3307
13952TIP3   OH263270   3.709   2.889  13.535  0.3957 -0.3453  0.4570
13952TIP3    H163271   3.684   2.801  13.562  1.4792 -0.2131  1.9891
13952TIP3    H263272   3.726   2.935  13.616 -1.5125  1.7451 -0.2311
13953TIP3   OH263273   2.061   4.246  11.247 -0.0119 -0.6132 -0.2067
13953TIP3    H163274   2.127   4.192  11.204  0.4678 -1.9990  2.0751
13953TIP3    H263275   2.084   4.336  11.223  2.0001 -1.1293 -0.4210
13954TIP3   OH263276   0.918   5.717   1.086  0.3975  0.2817  0.5373
13954TIP3    H163277   0.994   5.666   1.058 -0.3821 -1.7957  1.9946
13954TIP3    H263278   0.917   5.710   1.181 -2.5480 -1.3053  0.5219
13955TIP3   OH263279   3.742   6.260  16.964  0.5054  0.3197  0.2173
13955TIP3    H163280   3.809   6.266  17.032  0.7785 -4.6907  0.7729
13955TIP3    H263281   3.791   6.242  16.884 -0.0538  0.2901 -0.1195
13956TIP3   OH263282   2.814   3.190   2.665 -0.1715  0.5181  0.0578
13956TIP3    H163283   2.786   3.251   2.597 -2.2292 -2.6791 -2.2510
13956TIP3    H263284   2.733   3.168   2.712  0.0207 -2.0128 -0.6693
13957TIP3   OH263285   1.216   5.330  16.852  0.0992  0.1842  0.0335
13957TIP3    H163286   1.228   5.410  16.903  0.3910 -0.3196  0.7763
13957TIP3    H263287   1.300   5.284  16.860  0.0241 -0.0708 -0.6124
13958TIP3   OH263288   3.726   5.062   4.940 -0.2937 -0.6445  0.2908
13958TIP3    H163289   3.733   5.015   5.023 -1.5049 -0.0393  0.7658
13958TIP3    H263290   3.809   5.110   4.933  1.1610 -3.0983 -0.4262
13959TIP3   OH263291   6.110   2.568   2.696 -0.4863  0.0775 -1.0363
13959TIP3    H163292   6.098   2.619   2.616 -1.1977  0.6962 -0.5544
13959TIP3    H263293   6.051   2.610   2.759  0.5745  0.0363  0.0060
13960TIP3   OH263294   6.327   2.686  12.873 -0.1555 -0.0859 -0.1575
13960TIP3    H163295   6.264   2.670  12.803 -1.3259  0.4332  0.7292
13960TIP3    H263296   6.304   2.772  12.907  0.2439 -0.4116  0.9888
13961TIP3   OH263297   6.509   3.651  11.849 -0.2816 -0.2237  0.0973
13961TIP3    H163298   6.438   3.588  11.839 -0.5495 -0.2288  1.8640
13961TIP3    H263299   6.523   3.658  11.943  1.1311  0.8243 -0.1557
13962TIP3   OH263300   0.029   0.827  15.547  0.0388 -0.6536  0.0285
13962TIP3    H163301   0.057   0.746  15.589  2.5966  0.1629  0.0939
13962TIP3    H263302   0.065   0.897  15.602  1.1359  0.4521 -1.9576
13963TIP3   OH263303   5.905   6.654   3.043 -0.2492  0.1212  0.5993
13963TIP3    H163304   5.923   6.677   3.134  1.3396 -0.6092  0.5089
13963TIP3    H263305   5.912   6.737   2.995  2.7855  0.0020  0.6394
13964TIP3   OH263306   0.300   3.736   5.296 -0.7762  0.4730  0.2443
13964TIP3    H163307   0.311   3.696   5.381  1.4877 -1.9787 -1.0764
13964TIP3    H263308   0.207   3.723   5.275 -0.8856 -0.7945  1.4304
13965TIP3   OH263309   4.923   1.224   2.011  0.1599 -0.5112  0.1694
13965TIP3    H163310   4.956   1.314   2.017  1.9174 -1.1238  0.4316
13965TIP3    H263311   4.986   1.179   1.954  0.4289 -2.0293  1.5822
13966TIP3   OH263312   1.661   1.160  13.718  0.3104 -0.4630 -0.1096
13966TIP3    H163313   1.589   1.099  13.706 -0.0699 -0.1137  0.3855
13966TIP3    H263314   1.711   1.125  13.791  0.5889 -0.6431 -0.3800
13967TIP3   OH263315   0.993   2.626  17.300 -0.3957  0.3811  0.4800
13967TIP3    H163316   0.914   2.610  17.248 -0.5680  0.4987  0.7039
13967TIP3    H263317   1.043   2.689  17.248  1.3088 -2.3699 -1.4752
13968TIP3   OH263318   2.467   4.163  11.994 -0.3785  0.3362  0.2567
13968TIP3    H163319   2.527   4.098  11.960  0.7392  1.0169  0.8626
13968TIP3    H263320   2.425   4.200  11.917 -0.8693 -0.9365 -0.1000
13969TIP3   OH263321   3.789   2.789   1.650  0.0752 -0.2066 -0.1584
13969TIP3    H163322   3.852   2.833   1.707 -0.2001 -0.6745  0.5214
13969TIP3    H263323   3.722   2.756   1.710 -0.7687  0.1998 -0.8627
13970TIP3   OH263324   0.943   4.041   0.329  0.1227  0.4638  0.3489
13970TIP3    H163325   0.969   3.980   0.259 -1.1020 -0.1898  0.4257
13970TIP3    H263326   0.994   4.014   0.405  0.1606  0.0300  0.1722
13971TIP3   OH263327   0.132   2.381   5.381 -0.6920 -0.3970  0.0858
13971TIP3    H163328   0.199   2.395   5.448  1.5435 -0.8537 -1.9411
13971TIP3    H263329   0.103   2.469   5.357 -1.8013 -0.2344  1.8343
13972TIP3   OH263330   2.175   0.019   4.523  0.5600  0.7853 -0.4386
13972TIP3    H163331   2.142   0.029   4.433  1.6243 -0.1095 -0.9613
13972TIP3    H263332   2.138  -0.065   4.552  0.8821  0.6751 -0.3477
13973TIP3   OH263333   5.189   1.263   5.833 -0.2002  0.7009  0.7292
13973TIP3    H163334   5.209   1.357   5.832 -3.1922  1.4251  0.3358
13973TIP3    H263335   5.171   1.241   5.742 -1.3675  0.2258  1.0555
13974TIP3   OH263336   6.518   1.250  16.525 -0.6395  0.0029 -0.3890
13974TIP3    H163337   6.457   1.177  16.530 -3.6303  2.2310 -1.0087
13974TIP3    H263338   6.564   1.237  16.442  0.2806 -2.0723  0.3832
13975TIP3   OH263339   1.279   0.965   3.272  0.4976  0.2118  0.3903
13975TIP3    H163340   1.361   0.939   3.229 -0.6377  0.0807 -1.8264
13975TIP3    H263341   1.299   0.962   3.366  3.4837  1.7012 -0.0730
13976TIP3   OH263342   0.152   1.361   3.689 -0.0596  0.4288 -0.4167
13976TIP3    H163343   0.204   1.341   3.611 -1.1564  1.7376 -1.5273
13976TIP3    H263344   0.070   1.314   3.676  0.8058 -1.7934  1.4278
13977TIP3   OH263345   4.978   3.300  14.070 -0.3129 -0.6221 -0.6474
13977TIP3    H163346   5.048   3.320  14.007  1.2284  0.8285  1.3854
13977TIP3    H263347   5.010   3.223  14.117 -0.4746 -0.4509 -0.2593
13978TIP3   OH263348   3.920   3.735   1.078  0.0568 -0.1877  0.0755
13978TIP3    H163349   3.995   3.686   1.113  0.9417  0.3458 -1.0106
13978TIP3    H263350   3.924   3.721   0.984 -0.3954  0.9635 -0.1324
13979TIP3   OH263351   4.035   3.839   2.648 -0.2315  0.4152 -0.1828
13979TIP3    H163352   3.946   3.872   2.666 -0.1770  0.4043  0.1182
13979TIP3    H263353   4.085   3.918   2.626 -0.2621  0.4517 -0.1238
13980TIP3   OH263354   2.663   3.685   4.749  0.3850  0.0873  0.2473
13980TIP3    H163355   2.744   3.700   4.701  1.2063  0.2988  1.6317
13980TIP3    H263356   2.681   3.717   4.837 -1.1946  0.0896  0.6060
13981TIP3   OH263357   4.028   1.966   2.741  0.3330  0.7263 -0.7427
13981TIP3    H163358   3.965   1.992   2.808  0.6043  2.4737 -1.1316
13981TIP3    H263359   3.987   1.987   2.658  1.9706  3.4161 -0.9796
13982TIP3   OH263360   1.899   1.472   3.362  0.0042 -0.3960  0.5390
13982TIP3    H163361   1.873   1.419   3.437 -0.9665 -0.9462 -0.1498
13982TIP3    H263362   1.994   1.464   3.357 -0.0140 -1.0586  1.1933
13983TIP3   OH263363   5.651   5.424  13.953  0.8336 -0.0945  0.4804
13983TIP3    H163364   5.688   5.509  13.929 -1.9509  1.0872 -0.0356
13983TIP3    H263365   5.655   5.372  13.873 -0.9932  0.9959 -0.3920
13984TIP3   OH263366   6.583   3.359   0.488 -0.3155 -0.1310 -0.1237
13984TIP3    H163367   6.488   3.351   0.473 -0.9473  2.2962  1.8940
13984TIP3    H263368   6.607   3.441   0.446  0.8152 -0.4847 -0.1951
13985TIP3   OH263369   1.462   2.730  13.490  0.1779  0.3869 -0.3142
13985TIP3    H163370   1.519   2.699  13.561 -0.6870 -0.7440 -0.0873
13985TIP3    H263371   1.523   2.761  13.423  1.0338  0.4174  0.4526
13986TIP3   OH263372   2.667   0.473   1.569  0.1992 -0.3993  0.2892
13986TIP3    H163373   2.709   0.403   1.521 -0.8527 -0.7656 -0.1285
13986TIP3    H263374   2.638   0.535   1.502 -0.0467 -0.2325  0.5436
13987TIP3   OH263375   4.736   5.998   4.582 -0.3361  0.1492 -0.3628
13987TIP3    H163376   4.688   6.070   4.624  0.8716  1.4501 -1.1436
13987TIP3    H263377   4.695   5.988   4.497 -2.1364 -1.8308  0.6424
13988TIP3   OH263378   4.867   0.549  15.634  0.2656 -0.2832  0.7689
13988TIP3    H163379   4.787   0.552  15.687 -0.2681 -0.9751  0.0286
13988TIP3    H263380   4.847   0.602  15.557  0.7587  0.0824  0.8887
13989TIP3   OH263381   3.018   2.196  15.567  0.0776  0.8821  0.2030
13989TIP3    H163382   2.972   2.176  15.486 -0.2916  4.8469 -0.7489
13989TIP3    H263383   2.951   2.235  15.624  0.8078  0.1752  1.6085
13990TIP3   OH263384   4.448   3.913   3.263  0.0678  0.0630  0.6899
13990TIP3    H163385   4.532   3.938   3.302  1.4199  0.9935 -2.4369
13990TIP3    H263386   4.471   3.850   3.195 -1.2479  2.4144 -2.1899
13991TIP3   OH263387   5.295   3.006   0.882  0.2871  0.6465 -0.2527
13991TIP3    H163388   5.220   2.947   0.888  2.1435 -2.2439 -2.3728
13991TIP3    H263389   5.351   2.982   0.956  0.4523  0.6185 -0.3841
13992TIP3   OH263390   0.303   2.199   4.958 -0.2926  0.2029  0.2922
13992TIP3    H163391   0.259   2.129   5.006  2.2621 -0.8663  1.2027
13992TIP3    H263392   0.277   2.279   5.003  0.7442 -0.6343  2.5224
13993TIP3   OH263393   3.492   5.741   0.263  0.2565  0.1964 -0.4036
13993TIP3    H163394   3.427   5.800   0.300 -0.8786 -0.3401 -1.4521
13993TIP3    H263395   3.555   5.726   0.334 -0.9493  0.4516  0.7539
13994TIP3   OH263396   4.236   2.894  15.718 -0.3871  0.1812 -0.3729
13994TIP3    H163397   4.144   2.872  15.730 -0.2073 -1.4383 -1.5782
13994TIP3    H263398   4.241   2.932  15.630  0.3564 -1.7270 -1.2089
13995TIP3   OH263399   3.122   1.313  15.131  0.0848 -0.2990  0.1224
13995TIP3    H163400   3.159   1.366  15.202 -0.5591  0.9629 -0.4576
13995TIP3    H263401   3.178   1.330  15.056 -0.6029  0.2241 -0.2854
13996TIP3   OH263402   5.951   2.502  11.393 -0.1408 -0.6855  0.3070
13996TIP3    H163403   5.918   2.439  11.328  0.4296 -0.7617  0.0852
13996TIP3    H263404   5.891   2.493  11.467 -2.1347  0.9757 -1.0087
13997TIP3   OH263405   2.031   1.346   4.266  0.2435 -0.3494 -0.2188
13997TIP3    H163406   2.015   1.412   4.333 -0.6962 -1.2688  0.4896
13997TIP3    H263407   2.005   1.263   4.306  0.7330 -1.0757 -1.3275
13998TIP3   OH263408   6.265   5.049  15.743 -0.2282  1.3618 -0.1580
13998TIP3    H163409   6.339   5.072  15.686  0.6697  0.0363  0.4112
13998TIP3    H263410   6.226   4.973  15.701 -0.9109  1.6838 -0.1198
13999TIP3   OH263411   3.371   3.993   2.271  0.5804 -0.2549  0.7666
13999TIP3    H163412   3.320   4.070   2.295  1.1670  0.6719 -0.8194
13999TIP3    H263413   3.362   3.987   2.176  0.8101 -1.9705  0.8126
14000TIP3   OH263414   4.821   5.430   3.768 -0.2638  0.6681 -0.9334
14000TIP3    H163415   4.857   5.343   3.749 -0.3916  0.8195 -1.9447
14000TIP3    H263416   4.880   5.466   3.834  0.6998  0.3948 -1.6132
14001TIP3   OH263417   5.285   4.165  10.830  0.2787  0.1116 -0.5835
14001TIP3    H163418   5.212   4.158  10.767 -0.3110 -0.2055  0.1225
14001TIP3    H263419   5.295   4.077  10.864  0.4385  0.3324 -0.0588
14002TIP3   OH263420   4.173   2.550   4.997 -0.4199 -0.1407 -0.0936
14002TIP3    H163421   4.228   2.623   4.970 -2.0602  1.2815  0.2308
14002TIP3    H263422   4.168   2.559   5.092  0.8464 -1.8220  0.1812
14003TIP3   OH263423   0.207   5.012  13.464 -0.1631 -0.3297  0.3681
14003TIP3    H163424   0.203   5.026  13.559 -1.5740  1.8769  0.0703
14003TIP3    H263425   0.236   5.096  13.428  0.9526 -1.3033 -1.1632
14004TIP3   OH263426   0.479   4.377  16.733  0.4490 -0.6746 -0.2766
14004TIP3    H163427   0.486   4.412  16.822 -0.1305  1.3258 -0.9659
14004TIP3    H263428   0.569   4.359  16.707  0.7600  0.1272  0.2116
14005TIP3   OH263429   5.592   5.826   6.200  0.2314 -0.5510 -0.2889
14005TIP3    H163430   5.634   5.818   6.286  2.1314  1.7488 -0.8873
14005TIP3    H263431   5.592   5.920   6.183  2.3207 -1.0263 -3.8717
14006TIP3   OH263432   1.626   4.914  12.955  0.7127  1.2103  0.5448
14006TIP3    H163433   1.631   4.822  12.930 -0.6044  1.6070 -1.4060
14006TIP3    H263434   1.551   4.919  13.014  0.1690  1.1647 -0.1316
14007TIP3   OH263435   1.254   5.678   1.377  0.0309  0.2663 -0.5307
14007TIP3    H163436   1.344   5.674   1.410  0.4856 -0.3532 -1.7980
14007TIP3    H263437   1.247   5.766   1.338 -0.0207  0.4351 -0.1451
14008TIP3   OH263438   3.519   1.421  12.272  0.2770  0.2124  0.8830
14008TIP3    H163439   3.609   1.393  12.288  0.4575 -0.4772 -1.0757
14008TIP3    H263440   3.511   1.505  12.317  2.2860  0.8518  0.1392
14009TIP3   OH263441   0.973   3.010  15.457 -0.7318 -0.2260  0.1989
14009TIP3    H163442   0.878   3.005  15.464 -0.7837 -0.6257 -0.6329
14009TIP3    H263443   0.992   2.973  15.371 -0.2102  3.9716 -1.7672
14010TIP3   OH263444   4.355   5.569   0.611 -0.1987 -0.3720  0.3250
14010TIP3    H163445   4.380   5.486   0.569  0.8933  0.3548 -0.5209
14010TIP3    H263446   4.419   5.579   0.682 -0.8953 -0.6903  1.0035
14011TIP3   OH263447   4.284   5.279  14.477  0.2397  0.1617  0.1150
14011TIP3    H163448   4.196   5.286  14.441 -0.3837  1.0110  1.6995
14011TIP3    H263449   4.272   5.243  14.565  1.5773 -0.6818 -0.0161
14012TIP3   OH263450   3.109   1.002   5.196 -0.2475 -1.0001  0.2291
14012TIP3    H163451   3.084   0.910   5.207 -1.0349 -0.8418 -0.1239
14012TIP3    H263452   3.056   1.032   5.122  0.8170 -0.5561 -0.3653
14013TIP3   OH263453   1.128   1.038  13.606 -0.2761 -0.0230  0.1862
14013TIP3    H163454   1.175   0.963  13.570  0.0928  0.0372  0.5403
14013TIP3    H263455   1.036   1.011  13.606 -0.0363 -0.9028  1.3297
14014TIP3   OH263456   0.948   0.449  17.375  0.4862 -0.3906 -0.3684
14014TIP3    H163457   0.872   0.395  17.397  2.4036 -2.8555  0.7097
14014TIP3    H263458   0.911   0.526  17.332 -2.6636 -0.9793  0.9999
14015TIP3   OH263459   4.551   2.049  14.086 -0.0064 -0.0165 -0.1632
14015TIP3    H163460   4.579   2.120  14.144  0.4475 -0.1528 -0.2150
14015TIP3    H263461   4.598   1.972  14.118  2.0603  0.3376 -2.0977
14016TIP3   OH263462   6.370   4.258  17.383 -0.4547  0.0859 -0.2289
14016TIP3    H163463   6.302   4.228  17.443 -0.1311 -1.0359 -0.4079
14016TIP3    H263464   6.370   4.193  17.312 -0.5959  1.1858 -1.2813
14017TIP3   OH263465   1.347   6.220   3.227 -0.2776 -0.8078 -0.2696
14017TIP3    H163466   1.270   6.198   3.174  0.5824 -1.2758 -1.3534
14017TIP3    H263467   1.410   6.255   3.164  0.7478 -1.3252  0.4493
14018TIP3   OH263468   6.473   1.711  12.746  0.2955  0.0672 -0.7961
14018TIP3    H163469   6.484   1.697  12.840  3.1570 -0.8919 -1.1833
14018TIP3    H263470   6.450   1.625  12.712 -1.2034  0.5103 -0.9614
14019TIP3   OH263471   1.088   3.858  14.043  0.3796  0.3920  0.0700
14019TIP3    H163472   1.093   3.876  13.949  1.4340  0.0142  0.0375
14019TIP3    H263473   1.037   3.777  14.050  0.8626  0.0544 -0.2363
14020TIP3   OH263474   2.225   1.955   3.190  0.6380  0.3554  0.0506
14020TIP3    H163475   2.147   1.935   3.242  1.3452  1.4165  1.6066
14020TIP3    H263476   2.268   1.871   3.176 -0.4498 -0.1600 -0.2997
14021TIP3   OH263477   1.647   0.602   3.578 -0.2332 -0.5329  0.2774
14021TIP3    H163478   1.551   0.603   3.569 -0.3427  1.8001  1.0792
14021TIP3    H263479   1.677   0.549   3.504 -2.1037 -0.5205 -0.5630
14022TIP3   OH263480   5.945   0.090   0.482  0.4070 -0.6868  0.0158
14022TIP3    H163481   6.002   0.120   0.552  0.1648 -0.7949  0.2586
14022TIP3    H263482   5.977   0.135   0.404  0.5260 -0.3859  0.2387
14023TIP3   OH263483   6.031   2.078  13.444 -0.1159 -0.4054  0.2509
14023TIP3    H163484   6.098   2.103  13.508 -1.6385 -0.1647  1.8184
14023TIP3    H263485   6.046   2.136  13.370 -0.2939  1.5860  1.6908
14024TIP3   OH263486   3.150   1.437   0.246  0.1046 -0.1085 -0.0796
14024TIP3    H163487   3.175   1.353   0.283  0.7418 -1.7077 -3.7142
14024TIP3    H263488   3.206   1.501   0.290  0.2885 -1.6619  2.0807
14025TIP3   OH263489   5.458   6.713   2.720 -0.3831 -0.0905  0.3571
14025TIP3    H163490   5.537   6.749   2.760  0.3967 -0.6775 -0.6174
14025TIP3    H263491   5.401   6.788   2.706  0.0575  0.3600  0.9129
14026TIP3   OH263492   2.618   0.806  15.174  0.0655 -0.3548  0.7640
14026TIP3    H163493   2.607   0.892  15.132 -1.8973 -0.3891  1.1137
14026TIP3    H263494   2.705   0.777  15.147  0.3523  1.2859 -0.2084
14027TIP3   OH263495   0.045   6.592  16.896  0.1967  0.3503  0.7417
14027TIP3    H163496   0.031   6.683  16.869  0.6146 -0.0320 -0.8486
14027TIP3    H263497   0.100   6.555  16.827 -1.0054 -1.4611  0.7006
14028TIP3   OH263498   3.536   5.439   4.190  0.2301  0.6719 -0.2430
14028TIP3    H163499   3.563   5.353   4.225  1.4269  1.6016  1.2733
14028TIP3    H263500   3.508   5.421   4.100  0.1710 -1.3470  0.1392
14029TIP3   OH263501   3.091   6.282   3.856  0.0993 -0.2397  0.1021
14029TIP3    H163502   3.080   6.376   3.841 -0.2537 -0.0126  1.6401
14029TIP3    H263503   3.002   6.249   3.869  0.3547 -0.2839  2.1229
14030TIP3   OH263504   5.346   4.572  16.544 -0.4381  0.4218 -0.6371
14030TIP3    H163505   5.325   4.585  16.452  0.5341  1.2842 -0.7453
14030TIP3    H263506   5.416   4.506  16.544 -0.3520  0.5122 -0.5238
14031TIP3   OH263507   0.721   1.383   5.897  0.1053 -0.1966 -0.5221
14031TIP3    H163508   0.712   1.288   5.903 -0.7896 -0.1317 -0.6720
14031TIP3    H263509   0.663   1.417   5.964  1.2528  0.2437  0.2873
14032TIP3   OH263510   5.507   5.817   5.407 -0.5213 -0.3485  0.3591
14032TIP3    H163511   5.414   5.838   5.402 -1.1771 -2.5136  2.0398
14032TIP3    H263512   5.521   5.748   5.343 -0.2920 -0.7151  0.7963
14033TIP3   OH263513   2.310   2.948   4.418 -0.2720  0.3151  0.0359
14033TIP3    H163514   2.383   3.007   4.403 -1.9163  1.8787 -2.5466
14033TIP3    H263515   2.329   2.872   4.363  0.0729  0.0438  0.5161
14034TIP3   OH263516   6.570   6.661   2.313 -0.2501 -0.0463  0.4466
14034TIP3    H163517   6.511   6.736   2.320 -0.8680 -0.3510 -1.0293
14034TIP3    H263518   6.512   6.586   2.302  0.3866 -0.6068  0.8925
14035TIP3   OH263519   5.328   6.444   2.762  0.1376 -0.2304 -0.1214
14035TIP3    H163520   5.241   6.465   2.798 -0.3638 -0.3561 -1.1945
14035TIP3    H263521   5.371   6.529   2.753 -0.3210 -0.0417 -0.6337
14036TIP3   OH263522   3.174   5.796   2.415  0.3415 -0.9175 -0.5639
14036TIP3    H163523   3.176   5.832   2.327 -1.2215 -4.1019 -2.0555
14036TIP3    H263524   3.266   5.781   2.437  0.7973  0.6803 -1.2531
14037TIP3   OH263525   0.659   3.165   1.547  0.1404  0.3886  0.1532
14037TIP3    H163526   0.663   3.207   1.461  1.2332  1.4816  0.6962
14037TIP3    H263527   0.566   3.160   1.567 -0.0954  0.8687 -0.7400
14038TIP3   OH263528   6.659   5.914   2.070 -0.0998  1.1045 -0.1816
14038TIP3    H163529   6.590   5.849   2.057  1.1348 -0.2418 -0.2071
14038TIP3    H263530   6.619   5.997   2.040 -1.2641  0.1449 -1.4320
14039TIP3   OH263531   5.605   1.542  15.461 -0.3760 -0.3599  0.0357
14039TIP3    H163532   5.586   1.633  15.439  1.0954  0.4313  1.7766
14039TIP3    H263533   5.553   1.491  15.399 -1.8589  1.6432 -0.4764
14040TIP3   OH263534   4.938   1.493  12.171 -0.6397 -0.0049 -0.3463
14040TIP3    H163535   5.017   1.531  12.210  0.0061  0.0470 -1.6258
14040TIP3    H263536   4.887   1.568  12.142 -0.4851 -0.0575 -0.7654
14041TIP3   OH263537   5.587   3.944  14.188 -0.1106 -0.5265  0.1586
14041TIP3    H163538   5.657   3.901  14.237 -1.4386 -1.2810  1.4638
14041TIP3    H263539   5.618   4.034  14.175  0.4168 -0.3781  2.1432
14042TIP3   OH263540   5.428   2.880   0.366  0.2102  0.1695  0.1404
14042TIP3    H163541   5.431   2.792   0.404  1.6554  0.2672  0.2927
14042TIP3    H263542   5.519   2.901   0.347 -0.2929  0.8702 -1.6930
14043TIP3   OH263543   1.676   2.704   4.907 -0.1266  0.1850  0.6354
14043TIP3    H163544   1.729   2.773   4.947  1.6963 -0.1908 -0.9762
14043TIP3    H263545   1.637   2.657   4.981  1.7220  0.5475  1.8965
14044TIP3   OH263546   0.734   6.596  12.918 -0.5337 -0.0236  0.0472
14044TIP3    H163547   0.763   6.518  12.966  1.0919  0.3197 -0.3240
14044TIP3    H263548   0.778   6.590  12.833 -0.1589  1.4250  0.1151
14045TIP3   OH263549   5.605   3.650  13.860 -0.1864  0.0874  0.1212
14045TIP3    H163550   5.634   3.581  13.800 -0.3936  0.0477  0.0651
14045TIP3    H263551   5.664   3.723  13.845  1.0950 -0.6430  1.3436
14046TIP3   OH263552   2.021   2.077  11.217 -0.1859  0.2820 -0.2899
14046TIP3    H163553   2.037   1.995  11.264 -0.1193  1.3456  1.5955
14046TIP3    H263554   2.093   2.083  11.154 -0.7417 -1.5769 -1.2017
14047TIP3   OH263555   3.129   4.440   0.902 -0.1755 -0.4195  0.1473
14047TIP3    H163556   3.192   4.508   0.880 -0.8110  0.0781 -0.1346
14047TIP3    H263557   3.151   4.416   0.992  0.1455  0.0515  0.1983
14048TIP3   OH263558   3.931   5.650  11.141 -0.1720  0.1590  0.0450
14048TIP3    H163559   3.885   5.611  11.067 -0.6441  0.2257  0.3003
14048TIP3    H263560   3.943   5.578  11.203 -1.1559  0.4342  0.5705
14049TIP3   OH263561   1.331   1.788   4.619 -0.6337 -0.4174 -0.4411
14049TIP3    H163562   1.328   1.695   4.643 -2.6132 -0.0270  1.0600
14049TIP3    H263563   1.242   1.820   4.636  0.0535  1.8058 -0.7560
14050TIP3   OH263564   4.882   3.052  17.411 -0.0391  0.3328  0.1383
14050TIP3    H163565   4.922   3.068  17.497  1.6701 -1.7379 -0.1704
14050TIP3    H263566   4.927   3.114  17.353  1.9418 -1.0914  0.0403
14051TIP3   OH263567   3.714   6.371   3.527 -0.3570 -0.1170 -0.3625
14051TIP3    H163568   3.676   6.380   3.614  0.5162 -0.0455  0.0238
14051TIP3    H263569   3.682   6.286   3.496 -0.7150 -0.1183  0.0005
14052TIP3   OH263570   4.029   1.472  16.421 -0.0237  0.0254  0.3565
14052TIP3    H163571   4.106   1.419  16.442  1.6757  2.1461 -0.1570
14052TIP3    H263572   3.972   1.414  16.370  1.0607 -1.6980  1.0287
14053TIP3   OH263573   2.473   3.468   4.269  0.1637  0.2422  0.0835
14053TIP3    H163574   2.546   3.522   4.238 -0.0810  1.2795  1.2366
14053TIP3    H263575   2.495   3.379   4.241  1.7079  0.5878  0.1168
14054TIP3   OH263576   2.674   2.713  17.238  0.0627 -0.9495 -0.1522
14054TIP3    H163577   2.677   2.635  17.293 -0.4941  0.5398  2.1283
14054TIP3    H263578   2.738   2.696  17.169 -0.5073 -3.6554 -0.1212
14055TIP3   OH263579   1.596   1.333  15.252 -0.3573 -0.2175  0.3746
14055TIP3    H163580   1.526   1.327  15.187 -1.2573 -0.1698  1.3128
14055TIP3    H263581   1.584   1.257  15.309  1.2555 -1.0212 -0.2727
14056TIP3   OH263582   2.602   1.040   3.459 -0.8053  0.4524 -0.3608
14056TIP3    H163583   2.591   1.013   3.368 -1.4805 -0.7625  0.0521
14056TIP3    H263584   2.651   0.969   3.499 -0.6129  0.9273  0.2553
14057TIP3   OH263585   5.149   1.591   1.507 -0.1795  0.6889  0.0289
14057TIP3    H163586   5.192   1.506   1.512 -0.3857  0.4922 -1.2496
14057TIP3    H263587   5.079   1.586   1.573  0.0209  0.0001  0.1956
14058TIP3   OH263588   4.623   3.352  16.089  0.2273 -0.3237 -0.2371
14058TIP3    H163589   4.594   3.438  16.058  1.5396 -0.9915 -3.8868
14058TIP3    H263590   4.719   3.358  16.088  0.3456 -1.2438  1.5507
14059TIP3   OH263591   5.822   2.744  15.601 -0.0626  0.1082  0.1943
14059TIP3    H163592   5.799   2.665  15.552 -0.3497  0.4021 -0.1591
14059TIP3    H263593   5.900   2.778  15.556 -0.1780  0.2444  0.0985
14060TIP3   OH263594   0.833   0.641   0.148 -0.6617  0.6008  0.2306
14060TIP3    H163595   0.763   0.630   0.213 -0.3373 -1.3569  0.3067
14060TIP3    H263596   0.881   0.559   0.151  1.5417  1.8090  0.0125
14061TIP3   OH263597   2.413   0.891  14.653  0.3652  0.6077  0.4403
14061TIP3    H163598   2.335   0.908  14.706  0.0496 -0.5999  0.3921
14061TIP3    H263599   2.391   0.923  14.566 -0.0310  0.3938  0.4609
14062TIP3   OH263600   0.138   0.558   6.282 -0.2775 -0.1445  0.2671
14062TIP3    H163601   0.145   0.625   6.350 -0.9785  1.2857 -1.0261
14062TIP3    H263602   0.044   0.549   6.267 -0.1233 -0.3294 -0.6322
14063TIP3   OH263603   5.094   1.950  12.747  0.4649  0.5929  0.5403
14063TIP3    H163604   5.112   1.950  12.653 -0.5978  1.7044  0.3075
14063TIP3    H263605   5.021   1.890  12.757 -0.3592  1.5405  0.4218
14064TIP3   OH263606   6.688   2.114  11.885 -0.0934  0.0205  0.2100
14064TIP3    H163607   6.707   2.073  11.970  0.1832  1.1165  0.6937
14064TIP3    H263608   6.722   2.203  11.893 -1.7008  0.7383 -0.3954
14065TIP3   OH263609   6.487   2.214   5.276 -0.0778  0.3570 -0.3067
14065TIP3    H163610   6.494   2.133   5.225 -0.2827 -0.0083  0.2399
14065TIP3    H263611   6.511   2.188   5.365  1.5051  1.2438 -0.4320
14066TIP3   OH263612   1.004   2.398  12.471  0.3991 -0.3011 -0.0699
14066TIP3    H163613   0.964   2.485  12.468  1.2157  0.1002  0.3284
14066TIP3    H263614   0.960   2.349  12.402 -0.9270  0.0535  0.4908
14067TIP3   OH263615   1.018   4.115   2.738 -0.3469 -0.0384 -0.3460
14067TIP3    H163616   1.036   4.184   2.675 -1.5986 -1.8122 -2.8289
14067TIP3    H263617   0.923   4.113   2.746 -0.2752 -0.7895  0.5190
14068TIP3   OH263618   3.824   4.837   0.780 -0.0720 -0.0284  0.7537
14068TIP3    H163619   3.834   4.909   0.717 -1.6429 -0.8760 -0.5219
14068TIP3    H263620   3.745   4.858   0.829 -1.4579 -1.5771 -0.6840
14069TIP3   OH263621   1.710   4.567  16.183  0.1166 -0.1285 -0.5536
14069TIP3    H163622   1.756   4.612  16.112 -0.1740  0.3072 -0.4694
14069TIP3    H263623   1.641   4.517  16.139  0.0978 -0.0623 -0.5993
14070TIP3   OH263624   3.436   0.813  13.043  0.0942  0.0026  0.0363
14070TIP3    H163625   3.512   0.871  13.046  0.4854 -0.5065  0.1340
14070TIP3    H263626   3.369   0.859  13.094  0.6433  0.0301  0.7572
14071TIP3   OH263627   5.952   0.639   3.145  0.4675  0.6628  0.1967
14071TIP3    H163628   5.893   0.615   3.074  0.3907 -3.6301  1.4570
14071TIP3    H263629   6.039   0.618   3.112  0.7734  1.6536  0.3247
14072TIP3   OH263630   4.286   2.401   0.527  0.4942  0.1807  0.6168
14072TIP3    H163631   4.355   2.407   0.592 -0.3135  0.5838  1.4620
14072TIP3    H263632   4.299   2.315   0.485  1.9396  0.5666  0.2241
14073TIP3   OH263633   2.729   4.526  13.679  0.1360 -0.0400  0.1885
14073TIP3    H163634   2.705   4.476  13.601  0.5822  1.3395 -0.8734
14073TIP3    H263635   2.648   4.570  13.705  0.0341 -0.3480  0.4014
14074TIP3   OH263636   6.317   0.862  12.463  0.5899  0.1940 -0.2473
14074TIP3    H163637   6.364   0.832  12.541  0.0619 -0.2010 -0.0792
14074TIP3    H263638   6.385   0.874  12.397  0.7627 -1.9954 -0.5234
14075TIP3   OH263639   0.861   1.416  12.541 -0.0970  0.5640  0.1601
14075TIP3    H163640   0.907   1.487  12.496  2.0085 -0.7551  0.1039
14075TIP3    H263641   0.903   1.410  12.627  0.3797 -1.1777 -0.1631
14076TIP3   OH263642   5.701   5.755  16.503 -0.2731 -0.5742  0.5679
14076TIP3    H163643   5.697   5.666  16.538 -0.8937 -0.9561 -0.4466
14076TIP3    H263644   5.621   5.765  16.451 -0.6419  0.8792  1.3469
14077TIP3   OH263645   2.273   0.218   2.088  0.0024  0.4644 -0.5811
14077TIP3    H163646   2.228   0.299   2.063  0.4323  0.5855 -0.9732
14077TIP3    H263647   2.310   0.184   2.006  0.5826  0.3443 -0.2763
14078TIP3   OH263648   1.976   1.724   4.263  0.2676  0.0405  0.0016
14078TIP3    H163649   2.008   1.714   4.352  0.9011 -1.0812 -0.3347
14078TIP3    H263650   2.047   1.691   4.207  1.0297  3.1945 -1.1006
14079TIP3   OH263651   6.227   1.692  15.586 -0.2500 -0.0561 -0.2537
14079TIP3    H163652   6.206   1.599  15.583 -0.0275 -0.1226  0.1031
14079TIP3    H263653   6.244   1.716  15.495 -0.6491 -0.2820 -0.3911
14080TIP3   OH263654   5.828   4.008   2.042  0.3301 -0.7311  0.2335
14080TIP3    H163655   5.734   4.030   2.039  0.5410  0.2686  0.4686
14080TIP3    H263656   5.871   4.092   2.061  1.0618 -1.6224  3.0640
14081TIP3   OH263657   2.665   5.946   3.065  0.1663 -0.3336 -0.3663
14081TIP3    H163658   2.695   6.017   3.010 -1.1265  0.5532  0.0191
14081TIP3    H263659   2.695   5.866   3.021  2.1852  0.4319 -0.4699
14082TIP3   OH263660   1.472   4.411   1.572 -0.5867  0.1428 -0.3001
14082TIP3    H163661   1.426   4.456   1.502  0.9320  1.8339 -0.2642
14082TIP3    H263662   1.554   4.382   1.533  0.0727  0.6813  0.6394
14083TIP3   OH263663   2.789   2.319   6.121  0.5727 -0.2764 -0.1644
14083TIP3    H163664   2.882   2.339   6.114  0.4468  0.5095  0.2654
14083TIP3    H263665   2.771   2.262   6.046  1.2273  0.1987 -0.6989
14084TIP3   OH263666   2.600   0.077   3.853 -0.1422 -0.4917  0.0952
14084TIP3    H163667   2.551  -0.006   3.848  0.0585 -0.6773  1.0955
14084TIP3    H263668   2.691   0.050   3.851 -0.0765 -0.2962  0.4815
14085TIP3   OH263669   3.674   3.459  13.686  0.1696 -0.3341 -0.0069
14085TIP3    H163670   3.726   3.425  13.758  0.1722  1.0237  0.6717
14085TIP3    H263671   3.726   3.531  13.651  0.2962 -1.1548 -1.5782
14086TIP3   OH263672   3.069   4.309   0.141  0.1173  0.0065 -0.0576
14086TIP3    H163673   3.096   4.236   0.196 -0.7505 -0.6922 -0.5363
14086TIP3    H263674   3.109   4.386   0.182 -0.4074 -0.4956  1.4648
14087TIP3   OH263675   5.776   6.481   3.490 -0.4247 -0.8634 -0.1592
14087TIP3    H163676   5.790   6.393   3.456 -1.0236 -0.0951 -2.5572
14087TIP3    H263677   5.816   6.480   3.577 -0.3495 -3.4533 -0.1639
14088TIP3   OH263678   2.998   5.058  16.419  0.2062 -0.0245  0.1802
14088TIP3    H163679   2.921   5.033  16.367  0.2769  0.0951  0.0174
14088TIP3    H263680   3.057   5.100  16.357  0.8463 -1.0177  0.0936
14089TIP3   OH263681   2.609   4.391  15.010 -0.1233 -0.2378 -0.1220
14089TIP3    H163682   2.596   4.300  15.037 -0.1202 -0.1079  0.3279
14089TIP3    H263683   2.683   4.388  14.949  0.6180 -0.3985  0.7603
14090TIP3   OH263684   0.990   5.365   4.474  0.2737  0.5479 -0.0985
14090TIP3    H163685   0.981   5.446   4.525  0.1514  1.5005 -1.5608
14090TIP3    H263686   0.955   5.388   4.388  3.2801 -0.0524 -1.5986
14091TIP3   OH263687   5.171   3.947   0.548 -0.2278 -0.1225 -0.4835
14091TIP3    H163688   5.237   3.963   0.615 -1.7712 -0.3241  1.1694
14091TIP3    H263689   5.176   3.853   0.532  0.7100  0.0579 -1.2814
14092TIP3   OH263690   4.177   2.769  14.916 -0.1845 -0.0235 -0.1120
14092TIP3    H163691   4.082   2.771  14.905 -0.5155 -3.3295  0.9742
14092TIP3    H263692   4.210   2.760  14.826 -0.8443  1.1662 -0.5052
14093TIP3   OH263693   5.970   5.906  12.081 -0.4260  0.1483 -0.4832
14093TIP3    H163694   5.878   5.908  12.109 -0.4220 -0.4426 -0.4118
14093TIP3    H263695   5.990   5.997  12.059 -0.7649  0.4375  0.3471
14094TIP3   OH263696   4.805   1.424   5.347  0.1020 -0.5632  0.2182
14094TIP3    H163697   4.816   1.415   5.252 -1.0528 -0.9624  0.0984
14094TIP3    H263698   4.737   1.360   5.369  0.8461 -0.9635  1.4345
14095TIP3   OH263699   3.000   3.388  14.971 -0.2333  0.1049 -0.0445
14095TIP3    H163700   3.040   3.319  15.024 -1.3115  0.1321  0.8346
14095TIP3    H263701   2.928   3.346  14.925  2.0697 -0.4958 -3.4549
14096TIP3   OH263702   3.578   3.217  11.421  1.1549  0.3340  0.1841
14096TIP3    H163703   3.581   3.173  11.336  1.3095  1.3024 -0.3172
14096TIP3    H263704   3.487   3.207  11.449  0.7546  1.2221 -0.7510
14097TIP3   OH263705   3.544   0.121  13.192 -0.2238 -0.0153  0.6073
14097TIP3    H163706   3.489   0.045  13.211 -0.2721  0.1267  1.0601
14097TIP3    H263707   3.485   0.196  13.201 -1.4198 -0.0391 -4.2652
14098TIP3   OH263708   1.597   3.303   5.243  0.4565 -1.1739  0.2510
14098TIP3    H163709   1.579   3.374   5.181 -0.3363  1.0880  2.9029
14098TIP3    H263710   1.531   3.237   5.223 -0.3099 -0.1463 -0.7713
14099TIP3   OH263711   3.421   4.019  14.765  0.1398  0.2686 -0.1141
14099TIP3    H163712   3.503   4.032  14.718 -1.2319  0.9801 -2.4905
14099TIP3    H263713   3.389   3.935  14.733 -0.9522  0.8992 -0.7496
14100TIP3   OH263714   0.463   6.265  13.488 -0.2642 -0.1520 -0.2219
14100TIP3    H163715   0.425   6.344  13.448  1.5027  1.3654  0.8927
14100TIP3    H263716   0.554   6.264  13.458  0.2034 -0.7936  1.1094
14101TIP3   OH263717   6.578   5.870  17.443  0.1796 -0.3592 -0.0952
14101TIP3    H163718   6.487   5.897  17.432  0.7298  1.0416 -1.6876
14101TIP3    H263719   6.626   5.921  17.378  1.7805 -2.8969 -1.0998
14102TIP3   OH263720   4.141   0.219  14.726 -0.3745 -0.0002 -0.5534
14102TIP3    H163721   4.195   0.191  14.652 -0.2150  1.4074 -0.9908
14102TIP3    H263722   4.052   0.223  14.690 -0.2812  0.7893 -0.6983
14103TIP3   OH263723   0.719   0.590  13.577 -1.0418 -0.0310  0.3532
14103TIP3    H163724   0.813   0.584  13.558 -0.7538 -0.7938  1.8536
14103TIP3    H263725   0.678   0.601  13.491  0.4006  0.1596 -0.3486
14104TIP3   OH263726   2.115   2.239   3.142 -0.5028  0.0774 -0.9461
14104TIP3    H163727   2.050   2.266   3.207  0.9696  0.3295  0.4877
14104TIP3    H263728   2.114   2.144   3.145 -2.2625 -0.0169 -2.4966
14105TIP3   OH263729   3.996   4.216   2.062 -0.5729 -0.8134  0.7551
14105TIP3    H163730   4.045   4.141   2.096  1.2245  0.0716  0.2215
14105TIP3    H263731   3.937   4.240   2.134  1.9767  0.0132  2.7550
14106TIP3   OH263732   3.670   1.994   1.632  0.1630  0.6854  0.3929
14106TIP3    H163733   3.744   2.001   1.693  0.4149 -0.7025  0.2871
14106TIP3    H263734   3.594   1.980   1.688  0.4746 -1.1615  0.4139
14107TIP3   OH263735   2.324   5.589  12.522  0.7374  0.3330 -0.5556
14107TIP3    H163736   2.318   5.578  12.617  0.3533  2.6525 -0.2490
14107TIP3    H263737   2.340   5.501  12.489 -3.0625 -1.2914  1.3072
14108TIP3   OH263738   3.415   1.224   0.555  0.9193  0.5439 -0.4321
14108TIP3    H163739   3.441   1.135   0.579 -0.7971  0.2600  0.5162
14108TIP3    H263740   3.477   1.280   0.602  0.6590 -0.1167  0.7423
14109TIP3   OH263741   4.414   1.686  11.409 -0.4254 -0.0404 -0.2964
14109TIP3    H163742   4.405   1.769  11.362 -0.2417  0.6434  0.8563
14109TIP3    H263743   4.434   1.622  11.340 -1.5914  0.6646 -1.3300
14110TIP3   OH263744   2.462   6.614   2.592 -0.4516  0.0227  0.6173
14110TIP3    H163745   2.523   6.552   2.553  0.3888  0.6723  0.8726
14110TIP3    H263746   2.434   6.670   2.519 -0.5077 -0.0771  0.5612
14111TIP3   OH263747   3.934   0.646  14.269 -0.4733 -0.0592  0.1561
14111TIP3    H163748   3.923   0.619  14.177 -2.2165 -3.8210  1.2345
14111TIP3    H263749   3.847   0.673  14.296  0.3279  2.4379  0.4211
14112TIP3   OH263750   3.480   4.160   3.290  0.3427  0.0343  0.0798
14112TIP3    H163751   3.524   4.182   3.208 -0.4174  1.7953  0.1115
14112TIP3    H263752   3.509   4.227   3.352  0.5359 -0.9910  1.1508
14113TIP3   OH263753   3.745   4.296   2.512  0.1814 -0.0856 -0.0494
14113TIP3    H163754   3.673   4.357   2.498  0.1623 -0.2649 -0.8263
14113TIP3    H263755   3.813   4.348   2.556  0.1286  0.4760 -0.6130
14114TIP3   OH263756   1.404   1.060  13.012  0.3672 -0.1985  0.0963
14114TIP3    H163757   1.400   0.988  13.075 -0.3035 -0.7014 -0.5080
14114TIP3    H263758   1.431   1.019  12.930  0.5672  0.3413 -0.1144
14115TIP3   OH263759   6.024   3.027   1.877 -0.1073 -0.2019 -0.0656
14115TIP3    H163760   6.067   2.960   1.930  0.0613  0.2889  0.4268
14115TIP3    H263761   6.037   3.108   1.926 -0.1515  0.2239 -0.7442
14116TIP3   OH263762   0.006   3.865   2.096  0.8427 -0.2294  0.2042
14116TIP3    H163763  -0.073   3.843   2.047  1.8921 -0.8481 -1.3063
14116TIP3    H263764  -0.021   3.864   2.188 -0.7595 -0.9825 -0.2392
14117TIP3   OH263765   2.959   0.262  11.475  0.1783  0.1505  0.2300
14117TIP3    H163766   2.992   0.236  11.389  0.2141 -1.6092  0.7190
14117TIP3    H263767   2.974   0.356  11.480  0.7405  0.1760 -1.4386
14118TIP3   OH263768   6.221   0.568  11.445 -0.1909 -0.4669  0.4959
14118TIP3    H163769   6.148   0.556  11.385 -1.2226 -0.7679  1.7729
14118TIP3    H263770   6.185   0.548  11.532  0.9061  1.1642  1.3815
14119TIP3   OH263771   3.346   2.281  15.436  0.5994  0.0046  0.0683
14119TIP3    H163772   3.351   2.234  15.520  3.4237 -0.0966 -0.0811
14119TIP3    H263773   3.416   2.243  15.383  0.2594  1.5492 -1.5733
14120TIP3   OH263774   6.364   3.811  12.154  0.6216 -0.3519 -0.2801
14120TIP3    H163775   6.301   3.779  12.090  0.0616  1.7425 -0.8451
14120TIP3    H263776   6.444   3.761  12.138  0.6836  0.5011 -3.0324
14121TIP3   OH263777   6.056   6.370   1.416  0.1665 -0.0959 -0.3284
14121TIP3    H163778   6.002   6.295   1.443  1.1527 -0.4674  0.6592
14121TIP3    H263779   5.992   6.437   1.390 -0.7441 -1.0102 -0.5094
14122TIP3   OH263780   1.973   6.484  14.431 -0.0423 -0.3745 -0.2922
14122TIP3    H163781   1.903   6.426  14.403 -1.7519  2.4282 -2.4740
14122TIP3    H263782   1.950   6.510  14.520 -2.5477  1.3420 -1.3410
14123TIP3   OH263783   4.414   2.621   2.117  0.5659 -0.0901  0.4989
14123TIP3    H163784   4.377   2.645   2.032  0.8870 -1.7893 -0.1800
14123TIP3    H263785   4.344   2.574   2.161  0.0048  1.7834  1.7173
14124TIP3   OH263786   3.432   4.956  12.635  0.1427  0.1701 -0.0877
14124TIP3    H163787   3.466   4.967  12.724 -0.3917  0.1268  0.1250
14124TIP3    H263788   3.483   5.018  12.583 -0.4046  1.1292  0.4756
14125TIP3   OH263789   3.685   5.329  12.638  0.2370  0.0560  0.2874
14125TIP3    H163790   3.736   5.364  12.565 -0.2025  0.4681  0.1780
14125TIP3    H263791   3.674   5.403  12.698 -2.0445  0.5706 -0.6869
14126TIP3   OH263792   3.522   5.688  16.848 -0.1858 -0.3217  0.3794
14126TIP3    H163793   3.605   5.669  16.805 -0.8753 -3.1747  0.1175
14126TIP3    H263794   3.535   5.662  16.939 -0.5770 -0.0651  0.5132
14127TIP3   OH263795   1.561   0.468   5.942 -0.5600 -0.4343 -0.2482
14127TIP3    H163796   1.514   0.399   5.988  0.8112 -2.3899 -1.6237
14127TIP3    H263797   1.621   0.504   6.008 -0.4899 -1.3590  0.2096
14128TIP3   OH263798   2.435   5.336  12.126 -0.2399 -0.0084 -0.2064
14128TIP3    H163799   2.531   5.333  12.127 -0.2566 -0.3383  1.0529
14128TIP3    H263800   2.413   5.416  12.173 -0.6098 -0.9048  1.1862
14129TIP3   OH263801   2.545   2.002   6.317  0.1902 -0.0654  0.4485
14129TIP3    H163802   2.529   1.981   6.410  2.4023 -2.7654  0.3549
14129TIP3    H263803   2.635   1.975   6.302 -0.5444 -1.0750 -2.8388
14130TIP3   OH263804   3.068   2.913   2.039 -0.1211  0.2723 -0.4910
14130TIP3    H163805   2.975   2.911   2.015 -0.1564  0.8877 -0.4285
14130TIP3    H263806   3.109   2.967   1.971 -0.0575  1.2131  0.2693
14131TIP3   OH263807   1.533   4.409   3.550 -0.2631  0.4799 -0.6038
14131TIP3    H163808   1.621   4.412   3.511 -0.1074 -2.0380 -0.5934
14131TIP3    H263809   1.546   4.437   3.640  0.1355  2.0925 -1.1245
14132TIP3   OH263810   1.305   3.960   3.517  0.1555  0.0624  0.5416
14132TIP3    H163811   1.262   4.040   3.484 -0.0106  0.1133  0.8798
14132TIP3    H263812   1.359   3.990   3.590  0.3691 -0.0832  0.4449
14133TIP3   OH263813   4.662   0.952   5.257 -0.6886 -0.4603 -0.0847
14133TIP3    H163814   4.698   0.990   5.177  0.5055 -0.8267  0.2558
14133TIP3    H263815   4.654   0.859   5.238  0.4396 -0.6938  0.4969
14134TIP3   OH263816   0.852   6.069   4.667 -0.0880 -0.1601 -0.0783
14134TIP3    H163817   0.784   6.067   4.600  1.2952 -1.2044 -1.5600
14134TIP3    H263818   0.827   6.000   4.728 -1.7273  1.2599  0.9041
14135TIP3   OH263819   5.872   5.021  11.402  0.3026 -0.0179  0.1380
14135TIP3    H163820   5.959   5.021  11.441 -0.3954  1.4753  1.8761
14135TIP3    H263821   5.862   4.934  11.364  2.2301 -0.5000  0.6254
14136TIP3   OH263822   0.231   6.086  12.974  0.0105 -0.4796 -0.2550
14136TIP3    H163823   0.136   6.087  12.980 -0.1373 -1.6911 -1.6326
14136TIP3    H263824   0.249   6.067  12.882  1.6558  3.5151 -0.9533
14137TIP3   OH263825   1.634   3.965   0.396  0.3565 -0.0612  0.4858
14137TIP3    H163826   1.703   3.899   0.391 -0.0512 -0.4723  0.1615
14137TIP3    H263827   1.614   3.985   0.304 -0.2630 -0.2791  0.5699
14138TIP3   OH263828   1.421   0.784  17.120  0.0215  0.3159 -0.1422
14138TIP3    H163829   1.349   0.780  17.183 -1.9033  0.3063 -2.1912
14138TIP3    H263830   1.395   0.853  17.059  2.7412  1.6770  0.0961
14139TIP3   OH263831   6.155   4.539  15.330 -0.5088 -0.3278  0.0828
14139TIP3    H163832   6.107   4.505  15.405 -0.3134 -1.3012 -0.2225
14139TIP3    H263833   6.247   4.532  15.354 -0.4675  1.9504  0.8479
14140TIP3   OH263834   4.583   0.534   6.373 -0.2251 -0.1349 -0.5099
14140TIP3    H163835   4.646   0.606   6.381  0.0210 -0.5336  1.4610
14140TIP3    H263836   4.637   0.456   6.361 -0.4433 -0.2275 -0.9436
14141TIP3   OH263837   2.593   3.410   5.488  1.0369  0.1654 -0.3052
14141TIP3    H163838   2.603   3.404   5.583  0.2367 -0.3692 -0.2445
14141TIP3    H263839   2.681   3.428   5.455  1.3499  0.1607  0.5230
14142TIP3   OH263840   6.646   2.831  15.628  0.2083 -0.3260  0.4698
14142TIP3    H163841   6.701   2.790  15.695 -0.7402 -1.4465  0.6020
14142TIP3    H263842   6.627   2.760  15.567  1.6563  0.8383 -1.4201
14143TIP3   OH263843   0.970   0.180   2.123 -0.9018  0.2446 -0.4831
14143TIP3    H163844   0.929   0.203   2.040  1.1353  0.5522 -1.4706
14143TIP3    H263845   1.053   0.228   2.123 -0.6919 -0.0272  1.5841
14144TIP3   OH263846   1.035   0.150  15.956  0.1145  0.3248  0.0062
14144TIP3    H163847   1.119   0.115  15.925  0.7054 -0.9919  2.8200
14144TIP3    H263848   0.969   0.102  15.905  0.9979 -2.5395  1.3774
14145TIP3   OH263849   6.402   1.408  15.463  0.4810  0.0093 -0.1364
14145TIP3    H163850   6.405   1.313  15.471 -0.2232  0.1380  2.3671
14145TIP3    H263851   6.323   1.433  15.510  2.1446  2.0196  1.7921
14146TIP3   OH263852   4.112   0.683  11.698  0.2483  0.3014  0.0943
14146TIP3    H163853   4.165   0.672  11.619 -0.2931  0.5222 -0.3133
14146TIP3    H263854   4.038   0.737  11.669 -1.9208 -2.5743 -0.2155
14147TIP3   OH263855   1.270   2.518  15.213  0.1346  0.6209 -0.0432
14147TIP3    H163856   1.249   2.508  15.306  2.8145 -2.3146  0.4117
14147TIP3    H263857   1.207   2.462  15.168  0.1455  0.3876  0.2293
14148TIP3   OH263858   6.032   0.034  14.255  0.1004  0.3007  0.1251
14148TIP3    H163859   6.096  -0.015  14.307 -0.2166 -0.8406 -0.5246
14148TIP3    H263860   6.025  -0.015  14.173 -0.9070  0.9424 -0.1942
14149TIP3   OH263861   1.873   2.874   4.474  0.1012 -0.0831  0.3062
14149TIP3    H163862   1.891   2.966   4.493 -0.1323 -0.0035  0.1532
14149TIP3    H263863   1.826   2.876   4.390  0.5956 -0.3823  0.0183
14150TIP3   OH263864   1.688   2.901  10.916  0.1056  0.1748  0.3116
14150TIP3    H163865   1.634   2.824  10.900  2.2889 -1.4869  0.3900
14150TIP3    H263866   1.628   2.975  10.909 -1.7787 -1.4047 -1.3310
14151TIP3   OH263867   0.896   2.101   4.789 -0.6221  0.2321  0.7212
14151TIP3    H163868   0.885   2.023   4.843 -0.6936  0.5133  1.1169
14151TIP3    H263869   0.814   2.109   4.741 -0.1470 -0.6518 -0.2845
14152TIP3   OH263870   2.244   5.040  14.250  0.5643 -0.0443  0.0399
14152TIP3    H163871   2.244   4.965  14.308 -2.2715 -0.6442 -0.5819
14152TIP3    H263872   2.287   5.009  14.170  0.5615 -0.5791  0.2469
14153TIP3   OH263873   0.227   5.054  14.676  0.1351 -0.3996 -0.0715
14153TIP3    H163874   0.214   5.138  14.631  0.8179 -0.1982  0.1063
14153TIP3    H263875   0.267   4.998  14.610  0.1745 -0.4207 -0.0292
14154TIP3   OH263876   2.822   4.202   6.745 -0.0774  0.3797  0.5229
14154TIP3    H163877   2.910   4.239   6.740 -0.0156  0.0921 -1.0186
14154TIP3    H263878   2.777   4.237   6.668 -1.3425  0.5770  1.3275
14155TIP3   OH263879   3.467   5.040  16.445 -0.1797 -0.1367  0.2034
14155TIP3    H163880   3.436   5.101  16.512  0.2237  2.9743 -2.2301
14155TIP3    H263881   3.563   5.043  16.453 -0.1655 -0.7346  0.2877
14156TIP3   OH263882   0.590   6.259  12.824 -0.4976  0.4467 -0.2009
14156TIP3    H163883   0.675   6.259  12.780 -0.2739 -1.4928  0.1266
14156TIP3    H263884   0.532   6.306  12.764 -0.0040 -1.3093 -2.2010
14157TIP3   OH263885   2.968   6.112  12.663  0.3113  0.1606 -0.1781
14157TIP3    H163886   2.951   6.098  12.756 -1.7896  1.8273 -0.2245
14157TIP3    H263887   3.046   6.167  12.661  1.3523 -1.2256  0.4793
14158TIP3   OH263888   4.055   0.810   5.259 -0.1708 -0.6132 -0.3876
14158TIP3    H163889   4.106   0.850   5.188 -1.4847  3.5902  0.7686
14158TIP3    H263890   3.964   0.823   5.234 -0.6592 -0.8405  1.1463
14159TIP3   OH263891   4.110   4.030   3.529  0.3055  0.1047 -0.4379
14159TIP3    H163892   4.090   3.965   3.461 -0.6150  1.3711 -1.4311
14159TIP3    H263893   4.073   4.112   3.495 -1.0575  0.6138  2.0304
14160TIP3   OH263894   4.633   1.205   2.035  0.3482 -1.0840  0.3010
14160TIP3    H163895   4.727   1.192   2.047  0.3373 -1.5265 -0.0409
14160TIP3    H263896   4.611   1.277   2.093  1.0975 -0.2568 -0.4078
14161TIP3   OH263897   3.767   0.320  14.249 -0.3102  0.4797 -0.0643
14161TIP3    H163898   3.778   0.384  14.178 -1.6637 -0.8326 -1.5527
14161TIP3    H263899   3.696   0.263  14.219 -1.2968  0.1454  2.5899
14162TIP3   OH263900   6.077   1.905  11.817 -0.7046 -0.3666  0.4479
14162TIP3    H163901   6.133   1.839  11.776 -0.0256 -0.0450  0.8352
14162TIP3    H263902   6.011   1.925  11.751  0.8688  0.7833 -0.8644
14163TIP3   OH263903   4.078   1.519   3.438  0.0072 -0.1915 -0.1399
14163TIP3    H163904   4.094   1.435   3.481  1.6726  0.0307 -0.2622
14163TIP3    H263905   4.110   1.506   3.348  0.3971  0.6146 -0.1221
14164TIP3   OH263906   4.533   1.500   6.152 -0.1193 -0.6146 -0.1653
14164TIP3    H163907   4.518   1.410   6.122 -0.4833 -0.8141  0.5796
14164TIP3    H263908   4.566   1.546   6.076  1.6911 -1.7974 -0.1430
14165TIP3   OH263909   4.723   6.348   2.450 -0.0883 -0.4371 -0.0945
14165TIP3    H163910   4.635   6.310   2.446  0.4787 -1.9024  0.4734
14165TIP3    H263911   4.723   6.403   2.528 -1.2534  1.7011 -1.5155
14166TIP3   OH263912   3.297   2.434   1.411  0.0070  0.0599 -0.1160
14166TIP3    H163913   3.216   2.422   1.361 -0.4986  2.3896  0.0227
14166TIP3    H263914   3.346   2.499   1.361  2.1762 -1.8285 -0.5688
14167TIP3   OH263915   0.114   0.852   0.062  0.3322  0.1628 -0.2965
14167TIP3    H163916   0.192   0.896   0.096  0.2411  0.3996 -0.3914
14167TIP3    H263917   0.045   0.917   0.069  0.2073  0.0523 -0.4871
14168TIP3   OH263918   5.193   4.253   0.440  0.3117 -0.3270  0.0703
14168TIP3    H163919   5.128   4.189   0.469 -0.6194  0.1280 -0.9046
14168TIP3    H263920   5.277   4.218   0.469 -0.2309 -1.6991  0.0572
14169TIP3   OH263921   3.816   2.348  11.669 -0.1292 -0.0644  0.3219
14169TIP3    H163922   3.888   2.410  11.656  0.3640 -0.7735 -0.4489
14169TIP3    H263923   3.740   2.392  11.631  0.1412  0.2226  0.1034
14170TIP3   OH263924   0.073   2.829   4.485 -0.4040  0.0012 -0.4205
14170TIP3    H163925   0.103   2.739   4.471 -1.4172 -0.6696  1.4123
14170TIP3    H263926   0.052   2.861   4.397 -0.6107 -1.7700 -1.0561
14171TIP3   OH263927   2.229   6.366  14.480 -0.1566 -0.0669 -0.8119
14171TIP3    H163928   2.276   6.437  14.523  2.2031 -2.5186  1.0025
14171TIP3    H263929   2.160   6.342  14.542 -1.6033  1.1553 -1.8614
14172TIP3   OH263930   0.783   6.683  16.753  0.0190 -0.2054  0.5493
14172TIP3    H163931   0.768   6.627  16.829 -0.4657 -2.5200 -1.1455
14172TIP3    H263932   0.865   6.729  16.772 -0.1227 -0.6595  2.4513
14173TIP3   OH263933   3.754   1.034  15.908 -0.6219 -0.1790  0.1082
14173TIP3    H163934   3.766   1.108  15.967 -2.1081 -0.3377  0.6597
14173TIP3    H263935   3.819   0.969  15.937  0.0015  0.5086  0.2693
14174TIP3   OH263936   0.573   0.818   4.363  0.5281  0.5402  0.3788
14174TIP3    H163937   0.548   0.828   4.455  0.9254 -1.6795  0.7915
14174TIP3    H263938   0.557   0.904   4.324  1.2993  1.8357  2.7289
14175TIP3   OH263939   0.860   6.066  10.975 -0.6488 -0.0524  0.4253
14175TIP3    H163940   0.828   5.981  11.006  1.1962 -1.2315 -0.6955
14175TIP3    H263941   0.796   6.093  10.909  0.0717 -1.9316 -1.1489
14176TIP3   OH263942   0.235   0.475  14.577  0.1765  0.2094 -0.1782
14176TIP3    H163943   0.325   0.500  14.597  0.0409 -0.6573  1.7326
14176TIP3    H263944   0.186   0.558  14.578  0.6239  0.4723  0.7949
14177TIP3   OH263945   5.566   4.210  15.130 -0.0438 -0.4036 -0.1786
14177TIP3    H163946   5.637   4.230  15.192  0.0711 -1.2607 -0.0232
14177TIP3    H263947   5.495   4.268  15.156 -0.3070 -1.3567  1.3419
14178TIP3   OH263948   3.790   5.619   4.512  0.2035  0.1797  0.2080
14178TIP3    H163949   3.801   5.672   4.433 -2.8387  0.1974 -0.3248
14178TIP3    H263950   3.722   5.665   4.562 -0.0717 -1.4299  1.3808
14179TIP3   OH263951   0.526   4.016   1.942  0.5881 -0.2914  0.1563
14179TIP3    H163952   0.570   3.960   2.006  1.0418  1.4224  1.4467
14179TIP3    H263953   0.434   4.014   1.967  0.6653 -0.1647  0.4595
14180TIP3   OH263954   2.557   6.744  14.500 -0.1012 -0.2560 -0.0518
14180TIP3    H163955   2.611   6.726  14.576  1.4150 -1.1235 -1.2854
14180TIP3    H263956   2.615   6.734  14.425 -1.7794 -0.4744 -1.4071
14181TIP3   OH263957   1.531   6.430   6.015 -0.8403 -0.6143  0.0196
14181TIP3    H163958   1.559   6.500   5.957  0.2403 -0.2462  0.9561
14181TIP3    H263959   1.612   6.386   6.041 -1.2061 -0.3139  1.8000
14182TIP3   OH263960   2.865   3.249   5.326  0.4001  0.0523 -0.8437
14182TIP3    H163961   2.958   3.242   5.349  0.0933 -1.8652  0.0174
14182TIP3    H263962   2.821   3.186   5.383 -1.4812  1.0232 -1.1136
14183TIP3   OH263963   4.036   4.645  17.259 -0.1047  0.1418 -0.1937
14183TIP3    H163964   3.994   4.709  17.316  1.1676 -0.5646  1.6208
14183TIP3    H263965   4.037   4.688  17.173 -4.4372  0.1999 -0.4461
14184TIP3   OH263966   5.434   4.741  14.617 -0.2609 -0.1477  0.4914
14184TIP3    H163967   5.376   4.759  14.691  1.1009  0.4756  1.4525
14184TIP3    H263968   5.430   4.646  14.606  0.6057 -0.4553  2.3458
14185TIP3   OH263969   3.253   2.344  14.786  0.0692  0.2055  0.8722
14185TIP3    H163970   3.191   2.319  14.854  0.4111 -1.7994  0.5138
14185TIP3    H263971   3.237   2.437  14.771 -0.7291  0.4350  2.9230
14186TIP3   OH263972   0.532   5.702  16.156 -0.0829  0.0302 -0.1693
14186TIP3    H163973   0.554   5.792  16.179  0.1138 -0.4247  1.6066
14186TIP3    H263974   0.469   5.675  16.223  1.7235 -1.9122  0.8664
14187TIP3   OH263975   0.745   3.561  11.877 -0.3673  0.2551  0.6604
14187TIP3    H163976   0.812   3.581  11.942  1.3179  3.1518 -1.7132
14187TIP3    H263977   0.780   3.487  11.827  0.4236  0.8247  0.3521
14188TIP3   OH263978   4.493   1.791   3.133  0.0209 -0.4957 -0.0642
14188TIP3    H163979   4.523   1.722   3.074 -0.0919  0.0606 -0.7882
14188TIP3    H263980   4.499   1.752   3.221  0.8017 -1.1147 -0.3803
14189TIP3   OH263981   1.012   6.009   2.922  0.2601 -0.4028 -0.0269
14189TIP3    H163982   1.063   6.031   2.845  1.1559  2.4044  1.2535
14189TIP3    H263983   0.924   6.042   2.903  0.6535  0.9255  0.3870
14190TIP3   OH263984   6.244   4.611   3.586 -0.6019 -0.4638  0.8743
14190TIP3    H163985   6.295   4.538   3.550  0.2095  0.1513  0.7577
14190TIP3    H263986   6.308   4.680   3.600 -1.2721  0.0275  1.5426
14191TIP3   OH263987   5.218   1.573   0.443 -0.0979 -0.2883  0.0291
14191TIP3    H163988   5.213   1.633   0.369 -0.6976  1.8806  1.6938
14191TIP3    H263989   5.148   1.509   0.427  0.5070 -0.5606 -1.7638
14192TIP3   OH263990   6.437   4.323   1.096 -0.1295  0.3980  0.7177
14192TIP3    H163991   6.432   4.412   1.060  0.9451  0.3618  0.4545
14192TIP3    H263992   6.354   4.312   1.143 -1.5712  0.5023 -1.6073
14193TIP3   OH263993   3.501   3.257   4.335  0.0796  0.8605 -0.0708
14193TIP3    H163994   3.411   3.284   4.354  0.2984  1.2920  0.3524
14193TIP3    H263995   3.534   3.324   4.275  0.1633  0.7753 -0.1198
14194TIP3   OH263996   0.964   6.700   0.314  0.1905  0.0034 -0.1270
14194TIP3    H163997   0.910   6.662   0.244  2.0871  1.1022 -2.3075
14194TIP3    H263998   1.042   6.733   0.270  1.2129  1.3545  2.4465
14195TIP3   OH263999   6.480   1.683   5.114 -0.3499  0.4881 -0.1585
14195TIP3    H164000   6.546   1.742   5.148 -0.0068  0.4467 -0.7487
14195TIP3    H264001   6.480   1.609   5.176 -0.1059  0.6589  0.0458
14196TIP3   OH264002   4.407   2.957   1.676  0.0381 -0.1558 -0.0743
14196TIP3    H164003   4.474   3.021   1.653  1.0871 -1.4238 -0.6989
14196TIP3    H264004   4.324   3.004   1.665  0.7878  1.3778  0.4969
14197TIP3   OH264005   4.283   3.678  11.692  0.0731 -0.2476 -1.1812
14197TIP3    H164006   4.324   3.764  11.678 -0.0525  0.2628  1.0685
14197TIP3    H264007   4.357   3.617  11.690  0.6550  0.3477  0.2781
14198TIP3   OH264008   0.897   4.724   3.994 -0.3358  0.6876  0.6716
14198TIP3    H164009   0.815   4.761   3.960  0.2266  0.4513 -1.0686
14198TIP3    H264010   0.873   4.635   4.021 -0.2339 -0.2955 -2.1507
14199TIP3   OH264011   2.910   3.689  17.294  0.3384  0.0702 -0.2139
14199TIP3    H164012   2.934   3.685  17.387 -0.7018  1.5207  0.1455
14199TIP3    H264013   2.959   3.763  17.259  1.3694 -0.9762 -1.0546
14200TIP3   OH264014   4.133   3.610  14.468 -0.1083 -0.3055 -0.2043
14200TIP3    H164015   4.045   3.580  14.488 -2.5861  4.5766 -2.2063
14200TIP3    H264016   4.152   3.677  14.534  0.4048  1.3318 -1.9081
14201TIP3   OH264017   3.770   4.398  12.701  0.1195 -0.0678  0.3045
14201TIP3    H164018   3.824   4.361  12.632 -0.1926 -1.4101  0.7585
14201TIP3    H264019   3.768   4.492  12.682  0.5073 -0.3359 -1.1701
14202TIP3   OH264020   0.084   6.712   3.587  0.4410  0.0142 -0.7358
14202TIP3    H164021   0.142   6.727   3.662 -0.1046 -1.5092  0.0239
14202TIP3    H264022   0.127   6.756   3.514  0.3726  2.6560  0.6940
14203TIP3   OH264023   5.149   2.273   0.395  0.1905  0.2720  0.0434
14203TIP3    H164024   5.139   2.276   0.300  0.1085  0.4178  0.0562
14203TIP3    H264025   5.214   2.204   0.410  0.3665  0.3980 -0.1300
14204TIP3   OH264026   5.415   6.216   4.630 -0.3990 -0.3263  0.1236
14204TIP3    H164027   5.382   6.301   4.601 -0.3250 -0.2960  0.1293
14204TIP3    H264028   5.346   6.182   4.687 -0.6554 -0.4957 -0.2881
14205TIP3   OH264029   4.294   6.671   0.775  0.5193 -0.0347 -0.2061
14205TIP3    H164030   4.211   6.704   0.740  1.8165  1.5938 -1.9598
14205TIP3    H264031   4.325   6.610   0.709  0.8025 -0.5283  0.3763
14206TIP3   OH264032   6.659   4.304  13.610  0.3708 -0.3052 -0.2806
14206TIP3    H164033   6.689   4.281  13.522  0.8322  0.2011 -0.2584
14206TIP3    H264034   6.662   4.222  13.659 -2.9195 -1.3658 -1.5372
14207TIP3   OH264035   2.692   0.401   4.879  0.2288 -0.0307  0.5949
14207TIP3    H164036   2.640   0.332   4.920 -0.7926 -0.1146 -0.7953
14207TIP3    H264037   2.752   0.355   4.821  1.9705  0.0609  2.1970
14208TIP3   OH264038   5.493   3.394  14.394 -0.1627 -0.0465 -0.7437
14208TIP3    H164039   5.526   3.483  14.410 -0.8072 -0.1589  1.6564
14208TIP3    H264040   5.407   3.407  14.353 -0.3628  0.4670 -0.1772
14209TIP3   OH264041   3.173   6.378   5.411 -0.1248  0.6342 -0.4610
14209TIP3    H164042   3.263   6.369   5.379 -0.4447  0.8262 -1.4372
14209TIP3    H264043   3.167   6.312   5.480  0.4347 -0.1749 -1.1476
14210TIP3   OH264044   5.515   1.756  14.828 -0.4063  0.4901 -0.6895
14210TIP3    H164045   5.564   1.679  14.800 -1.1344 -0.0845 -0.4236
14210TIP3    H264046   5.430   1.748  14.785 -0.6607  0.8892 -0.2849
14211TIP3   OH264047   6.304   0.128  14.920  0.1105  0.6082 -0.1748
14211TIP3    H164048   6.325   0.167  14.834 -1.2985  2.1094  0.0946
14211TIP3    H264049   6.292   0.204  14.977  0.1964 -0.3592  1.1523
14212TIP3   OH264050   0.097   2.703   0.933 -0.0013 -0.3986 -0.1027
14212TIP3    H164051   0.168   2.645   0.906 -0.2997 -0.2168 -1.3379
14212TIP3    H264052   0.022   2.645   0.947  0.4238 -0.6211  1.4445
14213TIP3   OH264053   1.859   4.960   0.727 -0.0867 -0.6389 -0.5180
14213TIP3    H164054   1.912   4.886   0.754  0.1267 -0.4078 -0.2927
14213TIP3    H264055   1.796   4.924   0.665 -0.8764 -1.2712  0.6267
14214TIP3   OH264056   6.348   6.565   4.101  0.0424 -0.5987 -0.2596
14214TIP3    H164057   6.286   6.494   4.088 -2.0743  1.3931 -1.6622
14214TIP3    H264058   6.417   6.548   4.037  0.7257 -2.4814  0.8724
14215TIP3   OH264059   3.055   1.166   4.571  0.0441 -0.0868 -0.0951
14215TIP3    H164060   3.089   1.161   4.660 -0.0377 -0.8040 -0.0970
14215TIP3    H264061   2.961   1.180   4.582  0.2137  1.1636 -0.0862
14216TIP3   OH264062   2.803   4.102   3.739 -0.3291  0.0542  0.6306
14216TIP3    H164063   2.824   4.084   3.831  0.7940 -1.2481  0.1524
14216TIP3    H264064   2.864   4.048   3.690  0.4707  2.2194 -0.9200
14217TIP3   OH264065   3.376   6.125  12.047 -0.0264  0.1586  0.1797
14217TIP3    H164066   3.446   6.174  12.091 -0.3258 -0.5107  1.4505
14217TIP3    H264067   3.422   6.060  11.994  0.3323  0.5484  0.0041
14218TIP3   OH264068   0.852   2.787  17.075 -0.2318 -0.0522  0.0679
14218TIP3    H164069   0.846   2.860  17.137  0.2617  0.5528 -0.5656
14218TIP3    H264070   0.766   2.784  17.033 -0.4351 -0.2022  0.4937
14219TIP3   OH264071   2.785   0.589  16.039  0.2513 -0.5882  0.7651
14219TIP3    H164072   2.835   0.654  15.989  0.2176 -1.3339 -0.2738
14219TIP3    H264073   2.831   0.581  16.122 -0.0185  1.1209  1.1251
14220TIP3   OH264074   4.028   0.516  15.656  0.2621 -0.1407  0.2857
14220TIP3    H164075   4.081   0.456  15.709  1.1009 -1.3816 -1.8459
14220TIP3    H264076   4.083   0.593  15.645  0.8166 -0.5982 -0.2199
14221TIP3   OH264077   5.333   0.367  14.510  0.1677 -0.3333 -0.8423
14221TIP3    H164078   5.387   0.376  14.589  2.4789  2.3041 -2.5503
14221TIP3    H264079   5.243   0.376  14.542  0.9529 -0.2059  1.5628
14222TIP3   OH264080   5.116   4.837  15.008 -0.0775  0.0352  0.6250
14222TIP3    H164081   5.105   4.930  14.991  1.4348  0.1673  0.2715
14222TIP3    H264082   5.095   4.827  15.101 -0.8545  0.6034  0.5242
14223TIP3   OH264083   4.862   5.940   3.373 -0.4024  0.2125  0.2258
14223TIP3    H164084   4.777   5.963   3.334  0.7490  0.3292 -2.3692
14223TIP3    H264085   4.865   5.844   3.368  0.4474  0.2903 -1.7273
14224TIP3   OH264086   1.607   3.072   6.429  0.5347 -0.1429  0.2985
14224TIP3    H164087   1.577   2.984   6.451  0.7994  0.0043  1.3457
14224TIP3    H264088   1.649   3.103   6.510  0.8952  0.7473 -0.2166
14225TIP3   OH264089   6.025   4.497  12.507  0.4399  0.0449  0.0594
14225TIP3    H164090   6.032   4.511  12.412  0.4945 -1.8196 -0.2512
14225TIP3    H264091   5.962   4.426  12.515  0.3754  0.2438  1.4434
14226TIP3   OH264092   0.881   2.149   2.462  0.3176 -0.4136 -0.0292
14226TIP3    H164093   0.848   2.069   2.504  1.6213 -1.8743 -1.6217
14226TIP3    H264094   0.951   2.179   2.520  0.2010 -0.7536  0.2926
14227TIP3   OH264095   3.131   4.293  15.386 -0.5833 -0.5003 -0.7498
14227TIP3    H164096   3.203   4.251  15.434  0.1464  0.3503 -1.0661
14227TIP3    H264097   3.132   4.252  15.300  0.1979  0.2086 -1.0945
14228TIP3   OH264098   4.135   4.966  14.430  0.2840 -0.1069  0.1392
14228TIP3    H164099   4.147   4.879  14.466  2.5666  0.2931  0.4649
14228TIP3    H264100   4.126   5.023  14.507 -0.7308  0.0390 -0.0646
14229TIP3   OH264101   4.702   5.106   2.525 -0.2060  0.1852  0.1454
14229TIP3    H164102   4.702   5.179   2.462  1.8277  0.6606  0.6262
14229TIP3    H264103   4.615   5.110   2.566 -0.9545  0.9122 -1.4167
14230TIP3   OH264104   1.838   2.308   2.399 -0.1959 -0.2991 -0.2018
14230TIP3    H164105   1.767   2.250   2.372  0.2725 -1.1589  0.3655
14230TIP3    H264106   1.801   2.396   2.393 -2.4931 -0.8242  3.3115
14231TIP3   OH264107   4.987   5.329   2.218 -0.2076  0.1795  0.0930
14231TIP3    H164108   4.908   5.275   2.207 -0.1131  0.0650 -0.0339
14231TIP3    H264109   5.051   5.268   2.256 -0.0469  0.1582 -0.2157
14232TIP3   OH264110   2.719   5.873   5.171  0.2514  0.5281 -0.1652
14232TIP3    H164111   2.781   5.938   5.140 -0.1393  2.1313  2.1635
14232TIP3    H264112   2.761   5.834   5.248  0.0664 -1.3635 -0.9556
14233TIP3   OH264113   5.797   2.012   4.736 -0.0962 -0.1448  0.2981
14233TIP3    H164114   5.815   1.918   4.739 -0.6622 -0.2517  0.6782
14233TIP3    H264115   5.824   2.045   4.822  1.4870  0.3222 -0.3464
14234TIP3   OH264116   5.062   0.378   0.428  0.1195 -0.1079 -0.8713
14234TIP3    H164117   4.974   0.380   0.465 -0.0501 -0.7864 -1.2283
14234TIP3    H264118   5.061   0.445   0.360  0.2178  0.6443 -0.1573
14235TIP3   OH264119   1.560   3.708  13.004  0.3628  0.1188  0.4638
14235TIP3    H164120   1.643   3.708  13.052  0.5433  1.8931  0.2134
14235TIP3    H264121   1.580   3.665  12.921  1.1033  0.8007  0.2880
14236TIP3   OH264122   0.141   2.140   0.768 -0.2691 -0.3756  0.0657
14236TIP3    H164123   0.168   2.173   0.854  0.7743 -0.4061 -0.2436
14236TIP3    H264124   0.135   2.218   0.713 -1.3701 -0.3029  0.2627
14237TIP3   OH264125   0.936   0.909  15.061  0.3865 -0.0719  0.1987
14237TIP3    H164126   1.004   0.843  15.051 -0.2428 -1.0379  1.9347
14237TIP3    H264127   0.930   0.925  15.155 -1.4978  0.2532  0.0802
14238TIP3   OH264128   0.424   0.099   4.796  0.3451 -0.4217 -0.1979
14238TIP3    H164129   0.334   0.088   4.767  0.8401 -0.1760 -1.9587
14238TIP3    H264130   0.462   0.011   4.790  0.4638 -0.3622 -0.3181
14239TIP3   OH264131   0.618   1.000  15.663 -0.3737 -0.0284 -0.5152
14239TIP3    H164132   0.532   0.978  15.697 -0.6944  3.0791  1.0428
14239TIP3    H264133   0.677   0.990  15.738 -0.0008  1.0443 -0.6429
14240TIP3   OH264134   3.002   1.593  15.508 -0.0726 -0.0445 -0.3129
14240TIP3    H164135   2.921   1.544  15.521 -0.9386  0.8238 -2.0720
14240TIP3    H264136   3.070   1.538  15.548 -1.4482 -0.9767  0.8627
14241TIP3   OH264137   1.781   1.954  17.198 -0.5887  0.0395 -0.0178
14241TIP3    H164138   1.697   1.912  17.181 -0.3074 -0.0726 -1.2350
14241TIP3    H264139   1.836   1.930  17.122 -0.5040  2.8167 -0.9514
14242TIP3   OH264140   6.250   3.517  15.389 -0.6403  0.0915 -0.1817
14242TIP3    H164141   6.280   3.607  15.377 -1.9370  0.5072 -0.5396
14242TIP3    H264142   6.270   3.474  15.306 -0.9569  0.3510 -0.3981
14243TIP3   OH264143   3.494   3.119  14.652  0.0830 -0.0884 -0.1755
14243TIP3    H164144   3.459   3.125  14.563  0.6844 -0.3928 -0.4407
14243TIP3    H264145   3.514   3.209  14.677  0.2544 -0.0407 -0.4871
14244TIP3   OH264146   0.497   4.641  14.816  0.3177  0.2650 -0.4365
14244TIP3    H164147   0.515   4.701  14.743 -0.7541  0.7294 -0.3415
14244TIP3    H264148   0.450   4.568  14.775  1.0514 -0.2135 -0.4447
14245TIP3   OH264149   0.402   4.653   2.702 -0.4225  0.2449 -0.4461
14245TIP3    H164150   0.337   4.705   2.750 -0.3605 -0.8299  0.8520
14245TIP3    H264151   0.445   4.600   2.770  1.6537  0.7460 -1.2886
14246TIP3   OH264152   6.631   0.897  12.467 -0.2979 -0.9011  0.4607
14246TIP3    H164153   6.711   0.847  12.485  2.0771  1.7498 -1.8039
14246TIP3    H264154   6.599   0.861  12.384  2.3365  2.0379 -2.0513
14247TIP3   OH264155   2.399   5.480  14.853 -0.6965 -0.2210 -0.0425
14247TIP3    H164156   2.461   5.495  14.782 -0.5007 -0.1231  0.1468
14247TIP3    H264157   2.453   5.449  14.926 -0.8320  0.1288  0.2114
14248TIP3   OH264158   2.286   5.131  13.902  0.1708 -0.0220  0.3505
14248TIP3    H164159   2.196   5.136  13.935  0.5526  1.0877  1.2671
14248TIP3    H264160   2.279   5.159  13.810 -0.5956 -1.2577  0.0004
14249TIP3   OH264161   2.492   4.892  15.597  0.6130 -0.5342  0.0287
14249TIP3    H164162   2.496   4.854  15.685 -1.5155 -0.9196 -0.0051
14249TIP3    H264163   2.457   4.823  15.542  0.6703  0.1380 -0.8713
14250TIP3   OH264164   5.587   5.683  13.228  0.0139  0.3590  0.2841
14250TIP3    H164165   5.652   5.753  13.235 -0.8844  1.2366  0.0308
14250TIP3    H264166   5.553   5.690  13.139 -0.5863  0.0449  0.4839
14251TIP3   OH264167   5.243   4.448  12.097 -0.0092 -0.2448 -0.4271
14251TIP3    H164168   5.300   4.523  12.118 -1.7347  0.3819  2.7161
14251TIP3    H264169   5.300   4.388  12.049  3.1747  0.6140  1.8974
14252TIP3   OH264170   1.985   1.524  11.743  0.6665  0.3736 -0.3459
14252TIP3    H164171   1.928   1.466  11.692  1.3037 -0.8944  0.3166
14252TIP3    H264172   1.970   1.497  11.834  0.0197  2.1610  0.1092
14253TIP3   OH264173   3.296   0.448   3.957  0.0736  0.0641 -0.2929
14253TIP3    H164174   3.355   0.522   3.943  0.4697 -0.1387  0.2524
14253TIP3    H264175   3.236   0.450   3.883 -1.6154  2.5377  1.0076
14254TIP3   OH264176   1.317   4.899   1.946  0.4291 -0.1561  0.2403
14254TIP3    H164177   1.265   4.929   2.021  0.5426 -1.0944  0.7156
14254TIP3    H264178   1.368   4.975   1.919 -0.9900  0.7169 -0.0654
14255TIP3   OH264179   2.637   3.791   2.019  0.4293  0.7347 -0.1183
14255TIP3    H164180   2.659   3.881   1.996  2.6912  0.5012  0.9021
14255TIP3    H264181   2.587   3.758   1.944  1.4517  2.1466 -1.4636
14256TIP3   OH264182   5.380   2.298  17.131 -0.6403 -0.8581  0.0283
14256TIP3    H164183   5.335   2.383  17.136 -0.7849 -0.9285 -0.0460
14256TIP3    H264184   5.466   2.319  17.096 -1.0473 -0.8656 -1.0207
14257TIP3   OH264185   2.745   2.428  17.140 -0.1937 -0.2124 -0.1210
14257TIP3    H164186   2.747   2.440  17.235 -0.1454 -0.6462 -0.0664
14257TIP3    H264187   2.654   2.407  17.120 -0.7663  2.2940 -0.4832
14258TIP3   OH264188   2.452   2.600   5.120  0.7625 -0.3236  0.0717
14258TIP3    H164189   2.416   2.600   5.031  0.6235 -0.4331  0.1278
14258TIP3    H264190   2.422   2.683   5.157  0.8058 -0.2858  0.0224
14259TIP3   OH264191   3.518   5.572   3.866  0.2762 -0.2285 -0.0359
14259TIP3    H164192   3.475   5.643   3.819 -0.3982 -1.1690 -0.8830
14259TIP3    H264193   3.584   5.615   3.921  0.9638  0.9140 -1.6874
14260TIP3   OH264194   1.318   2.219   4.010 -0.1368  0.4545 -0.5888
14260TIP3    H164195   1.372   2.172   4.073  0.5856  1.5141 -0.3977
14260TIP3    H264196   1.276   2.288   4.060 -0.3184  0.7135 -1.0888
14261TIP3   OH264197   5.272   3.494   0.741 -0.4312  0.7919  0.3453
14261TIP3    H164198   5.271   3.490   0.837 -0.3412 -2.4871  0.3284
14261TIP3    H264199   5.358   3.461   0.716 -0.4880  1.5058 -0.9044
14262TIP3   OH264200   3.530   1.383   3.109  0.0300 -0.3385  0.4927
14262TIP3    H164201   3.586   1.347   3.177 -0.7393 -2.1803  0.2165
14262TIP3    H264202   3.514   1.473   3.136  1.6372 -0.3152  1.4974
14263TIP3   OH264203   5.803   0.529  12.384 -0.2239 -0.3561  0.1680
14263TIP3    H164204   5.867   0.516  12.314 -0.7602 -0.9221 -0.2201
14263TIP3    H264205   5.743   0.596  12.350 -0.5127 -0.6652  0.0724
14264TIP3   OH264206   1.035   3.999  17.230  0.3311 -0.0317  0.3656
14264TIP3    H164207   0.988   3.965  17.154 -1.6677  2.7095  0.2007
14264TIP3    H264208   0.974   3.988  17.303  1.2194 -0.3727  1.0708
14265TIP3   OH264209   3.011   5.553   3.986 -0.0350  0.1237  0.0147
14265TIP3    H164210   3.036   5.643   4.005 -0.2705 -0.1787  1.9923
14265TIP3    H264211   2.942   5.534   4.049 -0.5906 -1.1744 -0.9489
14266TIP3   OH264212   3.676   2.447   1.260  0.1314  0.6616 -0.2220
14266TIP3    H164213   3.616   2.521   1.260  0.1398  0.7376  2.0123
14266TIP3    H264214   3.721   2.452   1.345 -0.2010 -2.1368  0.2231
14267TIP3   OH264215   6.709   2.133   3.655  0.1854 -0.2491  0.2466
14267TIP3    H164216   6.712   2.172   3.568 -4.7338 -1.6275 -0.8907
14267TIP3    H264217   6.725   2.040   3.640 -0.5851 -0.4786  0.7722
14268TIP3   OH264218   1.947   0.867   0.696  0.6985  0.0103  0.1355
14268TIP3    H164219   1.946   0.772   0.680 -0.7299  0.3005 -1.8752
14268TIP3    H264220   1.894   0.878   0.774 -1.3817 -0.7102 -1.0917
14269TIP3   OH264221   0.838   6.473   4.495  0.2907  0.4285 -0.2409
14269TIP3    H164222   0.890   6.529   4.553  2.2520 -0.7728 -0.7486
14269TIP3    H264223   0.768   6.440   4.552  1.0999  0.7072  0.9693
14270TIP3   OH264224   3.740   6.151   1.653  0.0996 -0.9840  0.1244
14270TIP3    H164225   3.681   6.077   1.671 -0.6640 -0.0321  1.7470
14270TIP3    H264226   3.683   6.227   1.648  1.1201 -0.0963  1.3375
14271TIP3   OH264227   4.237   3.211   4.369  0.2126  0.0889 -0.2059
14271TIP3    H164228   4.272   3.126   4.345 -2.3299 -1.8596  2.2634
14271TIP3    H264229   4.142   3.197   4.376 -0.5309  3.5940 -1.2912
14272TIP3   OH264230   5.771   0.879   0.175  0.5507  0.0035 -0.5954
14272TIP3    H164231   5.775   0.970   0.145 -1.2907  0.3116 -0.0544
14272TIP3    H264232   5.794   0.884   0.267  0.1445 -0.0201 -0.4904
14273TIP3   OH264233   1.618   0.018  15.760 -0.1510 -0.1949  0.6415
14273TIP3    H164234   1.640  -0.043  15.690 -0.5106  1.6262 -1.1735
14273TIP3    H264235   1.570  -0.034  15.824 -0.4317 -1.7927 -0.8088
14274TIP3   OH264236   2.956   6.566   4.985 -0.0706  0.1777 -0.2031
14274TIP3    H164237   3.013   6.562   5.061 -0.0189  1.0527 -0.1858
14274TIP3    H264238   2.926   6.476   4.972  0.6411 -0.1355  0.2938
14275TIP3   OH264239   6.111   6.323  12.619 -0.1732 -0.5948 -0.0443
14275TIP3    H164240   6.195   6.342  12.578  1.3567 -2.1280  2.1732
14275TIP3    H264241   6.109   6.376  12.698 -0.3135 -2.1302  1.0193
14276TIP3   OH264242   0.904   3.079   0.686 -0.2718  0.0989  0.0117
14276TIP3    H164243   0.909   3.125   0.770  0.2621 -1.6266  0.9580
14276TIP3    H264244   0.959   3.001   0.697  0.6398  0.3287 -2.2886
14277TIP3   OH264245   0.249   6.172  13.686  0.0925 -0.4228  0.0678
14277TIP3    H164246   0.262   6.263  13.713 -2.0636  0.5261 -1.7958
14277TIP3    H264247   0.330   6.149  13.640 -0.1835  1.3580 -1.4146
14278TIP3   OH264248   1.980   6.228   4.769  0.2678 -0.4441 -0.2376
14278TIP3    H164249   2.043   6.286   4.727 -0.1035  0.4343  0.4035
14278TIP3    H264250   1.939   6.182   4.696  0.1347  0.5389 -0.8026
14279TIP3   OH264251   6.301   2.980  15.496  0.7498 -1.0166 -0.1232
14279TIP3    H164252   6.388   3.011  15.523  1.2609 -1.9241 -0.6760
14279TIP3    H264253   6.295   3.003  15.404  0.0561 -0.2080  0.1238
14280TIP3   OH264254   0.869   5.046  11.371 -0.9884  0.1461  0.0624
14280TIP3    H164255   0.807   5.116  11.353  1.3028  2.0401 -0.9411
14280TIP3    H264256   0.908   5.069  11.455 -1.3146 -0.8358  0.5058
14281TIP3   OH264257   4.176   4.714   2.878  0.1203  0.1124  0.3529
14281TIP3    H164258   4.252   4.727   2.822 -1.4530  1.1447 -1.6677
14281TIP3    H264259   4.143   4.628   2.854  1.0174 -0.6645  1.7680
14282TIP3   OH264260   3.886   5.723  12.196  0.1909 -0.2213 -0.0676
14282TIP3    H164261   3.870   5.715  12.290  0.7382 -0.1718  0.0304
14282TIP3    H264262   3.962   5.780  12.189 -0.0380  0.0341 -0.5533
14283TIP3   OH264263   1.182   4.719   2.225 -0.1907 -0.6317 -0.2151
14283TIP3    H164264   1.204   4.635   2.185 -0.0313 -1.0834  0.7850
14283TIP3    H264265   1.221   4.715   2.313 -2.8350 -0.8434  1.0566
14284TIP3   OH264266   2.068   4.784  15.464  0.3364  0.0262  0.5336
14284TIP3    H164267   2.007   4.852  15.438  0.0258  0.0386  1.2752
14284TIP3    H264268   2.108   4.755  15.382 -0.3834  0.2797  0.0860
14285TIP3   OH264269   3.031   0.989   5.753 -0.6605  0.1464  0.3435
14285TIP3    H164270   3.096   0.921   5.738 -1.1963 -0.1904 -0.5219
14285TIP3    H264271   2.966   0.976   5.684 -0.3384  2.0724 -0.3998
14286TIP3   OH264272   0.144   5.389   3.029  0.6151 -0.1302  0.1378
14286TIP3    H164273   0.094   5.467   3.004 -0.4221 -0.6497  0.5166
14286TIP3    H264274   0.170   5.405   3.120 -0.0373 -0.4143  0.3890
14287TIP3   OH264275   0.082   6.099   3.402 -0.1185 -0.2599  0.2050
14287TIP3    H164276   0.034   6.098   3.319  0.1602 -1.6378  0.0380
14287TIP3    H264277   0.014   6.093   3.469 -0.2853 -0.3735  0.0277
14288TIP3   OH264278   1.885   6.045  15.365  0.2429  0.2772 -0.0108
14288TIP3    H164279   1.810   6.035  15.306  0.8962  2.5118 -1.3389
14288TIP3    H264280   1.849   6.029  15.452 -1.6621  0.7045 -0.6755
14289TIP3   OH264281   4.422   5.868  12.418 -0.5858  0.0312  0.6216
14289TIP3    H164282   4.361   5.835  12.484 -1.0783 -0.3660 -0.0218
14289TIP3    H264283   4.477   5.792  12.397 -1.3118 -0.2319 -0.4044
14290TIP3   OH264284   2.304   0.849   4.182  0.0926 -0.3572 -0.7698
14290TIP3    H164285   2.342   0.777   4.233 -1.5079 -1.0507 -0.5052
14290TIP3    H264286   2.373   0.873   4.120  2.0496  0.3836  1.5336
14291TIP3   OH264287   2.863   2.408   5.379 -0.4084 -0.2082  0.2152
14291TIP3    H164288   2.946   2.360   5.384 -0.1419  0.2549  0.3625
14291TIP3    H264289   2.807   2.353   5.325 -0.3996 -1.0936  1.0705
14292TIP3   OH264290   2.678   2.600   2.610  0.1750 -0.3650  0.5855
14292TIP3    H164291   2.589   2.630   2.589  0.6735  0.3630 -0.5160
14292TIP3    H264292   2.734   2.643   2.546  1.4106 -0.3168  1.6684
14293TIP3   OH264293   3.921   3.367  16.195 -0.5616  0.5128  0.2560
14293TIP3    H164294   3.851   3.433  16.199 -0.8646  0.1561  1.5276
14293TIP3    H264295   3.908   3.323  16.112 -0.9164  1.4562 -0.2020
14294TIP3   OH264296   2.067   3.801  12.262 -0.0587 -0.0965  0.1732
14294TIP3    H164297   1.985   3.849  12.274 -0.1423  0.6806 -2.7792
14294TIP3    H264298   2.131   3.850  12.313 -1.4947 -1.4155  3.6060
14295TIP3   OH264299   5.920   4.850   4.501 -0.2975 -0.0028 -0.0777
14295TIP3    H164300   5.938   4.943   4.511 -0.9090 -0.0205  1.5172
14295TIP3    H264301   5.831   4.847   4.466  0.6619  0.0016 -2.7539
14296TIP3   OH264302   6.066   4.291  15.906 -0.2199  0.2508 -0.3199
14296TIP3    H164303   6.101   4.325  15.988  0.6589  1.0391 -0.9924
14296TIP3    H264304   5.982   4.336  15.895 -0.5781 -0.2313  0.3808
14297TIP3   OH264305   6.677   3.227  13.903 -0.1429  0.9972  0.0533
14297TIP3    H164306   6.717   3.305  13.866 -0.7177  0.9973 -0.5805
14297TIP3    H264307   6.635   3.257  13.984 -1.2453  1.5656 -0.7094
14298TIP3   OH264308   6.364   0.842  11.058 -0.7632  0.2653  0.4307
14298TIP3    H164309   6.326   0.854  10.971 -1.3893 -0.1633  0.6330
14298TIP3    H264310   6.447   0.798  11.042 -0.5357  0.8270  0.0051
14299TIP3   OH264311   3.632   0.020   5.810  0.3741  0.2743 -0.1269
14299TIP3    H164312   3.696   0.055   5.749  1.6756 -1.9074 -0.1166
14299TIP3    H264313   3.606   0.095   5.863  0.1092  1.9869 -2.5095
14300TIP3   OH264314   4.050   0.443  14.944 -0.0841 -0.0247 -0.0185
14300TIP3    H164315   4.047   0.462  14.850  0.1236 -0.2992 -0.0832
14300TIP3    H264316   4.088   0.521  14.983  0.1945 -0.0583 -0.2126
14301TIP3   OH264317   2.353   5.519  16.318 -0.0911 -0.2937  0.3667
14301TIP3    H164318   2.339   5.424  16.309 -0.5399 -0.1790 -0.2413
14301TIP3    H264319   2.301   5.557  16.247  0.8327  0.3584  0.0287
14302TIP3   OH264320   6.470   3.947   1.245 -0.2862 -0.1141 -0.0405
14302TIP3    H164321   6.529   4.006   1.198 -1.7288  0.7149 -0.9022
14302TIP3    H264322   6.475   3.865   1.196  1.4435 -0.6567  0.9408
14303TIP3   OH264323   4.481   4.003   6.234 -0.4487 -0.1290  0.1691
14303TIP3    H164324   4.466   4.098   6.240  0.2827 -0.0419  0.6574
14303TIP3    H264325   4.474   3.984   6.140 -1.1574  0.3071  0.1201
14304TIP3   OH264326   4.303   4.629  17.181 -0.2203 -0.0850 -0.0182
14304TIP3    H164327   4.322   4.717  17.213 -1.2730  0.0186  0.3570
14304TIP3    H264328   4.210   4.616  17.199  0.0316 -1.4798  0.4042
14305TIP3   OH264329   4.823   0.499  12.280  0.4270  0.0836  0.4816
14305TIP3    H164330   4.837   0.405  12.293 -0.8542 -0.2361 -0.3002
14305TIP3    H264331   4.738   0.517  12.321  1.1168  1.1205  1.5167
14306TIP3   OH264332   3.152   6.659  17.090 -0.0906  0.0329  0.9200
14306TIP3    H164333   3.218   6.674  17.158  0.8856 -0.2951  0.0602
14306TIP3    H264334   3.127   6.567  17.101  1.8736 -0.7488 -0.6929
14307TIP3   OH264335   0.830   1.871  17.297  0.4600 -0.2290  0.1587
14307TIP3    H164336   0.765   1.940  17.308 -1.9156 -1.7051 -3.0703
14307TIP3    H264337   0.845   1.837  17.385 -2.4078  0.8451  1.1550
14308TIP3   OH264338   1.721   4.694  17.127 -0.2277  0.5710 -0.3244
14308TIP3    H164339   1.731   4.700  17.222 -1.2233  0.3765 -0.1917
14308TIP3    H264340   1.809   4.676  17.094 -0.0470 -0.4467  0.6575
14309TIP3   OH264341   6.404   4.868   5.303 -0.0728 -0.0886  0.2944
14309TIP3    H164342   6.454   4.933   5.254  1.0463 -0.4584  0.9047
14309TIP3    H264343   6.465   4.838   5.371 -1.2430 -0.3301  1.2563
14310TIP3   OH264344   3.636   0.596  16.338  0.1635  0.1668  0.1038
14310TIP3    H164345   3.622   0.528  16.272 -0.7601  0.5477 -0.1102
14310TIP3    H264346   3.607   0.557  16.420 -0.9786  0.5046 -0.1233
14311TIP3   OH264347   6.412   2.085  15.276 -0.7405 -0.2544 -0.3160
14311TIP3    H164348   6.401   2.140  15.353  1.5270 -2.0179  1.4088
14311TIP3    H264349   6.499   2.106  15.243 -1.4434  0.0647 -2.1340
14312TIP3   OH264350   1.172   3.784   6.402  0.0382 -0.3738 -0.3833
14312TIP3    H164351   1.097   3.833   6.370 -0.0308  1.6449  2.5476
14312TIP3    H264352   1.150   3.761   6.492  1.4689 -3.0427 -0.5972
14313TIP3   OH264353   3.118   3.798   4.065  0.2990 -0.2613  0.2686
14313TIP3    H164354   3.160   3.884   4.059  0.8269 -0.5277  0.0080
14313TIP3    H264355   3.171   3.742   4.007 -0.8693 -0.4396 -0.6550
14314TIP3   OH264356   2.675   1.317   0.773 -0.0170  0.3149 -0.6478
14314TIP3    H164357   2.747   1.255   0.784 -0.6593 -0.2949  0.1978
14314TIP3    H264358   2.598   1.263   0.760 -0.5486  0.9336 -0.1530
14315TIP3   OH264359   6.427   6.330   3.953 -0.4083 -0.1753 -0.1517
14315TIP3    H164360   6.483   6.365   3.884 -0.2179 -0.2318 -0.0247
14315TIP3    H264361   6.429   6.235   3.939  0.1823 -0.2383  0.3568
14316TIP3   OH264362   3.412   1.758   4.513 -0.1756 -0.6125  0.4549
14316TIP3    H164363   3.431   1.669   4.544 -0.4650 -0.7262  0.3070
14316TIP3    H264364   3.331   1.749   4.463  0.4509 -0.5040 -0.6148
14317TIP3   OH264365   3.848   6.101  12.829  0.1131  0.7100  0.0948
14317TIP3    H164366   3.769   6.132  12.786  0.6586  2.5386  0.3040
14317TIP3    H264367   3.870   6.170  12.892  2.4026  0.7780 -0.6495
14318TIP3   OH264368   1.579   0.186  16.417  0.3270 -0.2324  0.0333
14318TIP3    H164369   1.642   0.217  16.482  0.9810 -0.8369 -0.3002
14318TIP3    H264370   1.494   0.218  16.448  0.6026 -0.6479  1.2765
14319TIP3   OH264371   0.716   5.963   4.002 -0.4642  0.1222 -0.3657
14319TIP3    H164372   0.762   5.884   3.972 -0.5099 -0.4215  0.9414
14319TIP3    H264373   0.730   5.965   4.096 -0.6769  1.5601 -0.3485
14320TIP3   OH264374   6.002   0.074  15.743 -0.1015 -0.4560  0.6753
14320TIP3    H164375   6.047  -0.006  15.717 -0.9646 -0.7264 -0.0528
14320TIP3    H264376   6.072   0.137  15.760  0.6646 -1.7951  2.8172
14321TIP3   OH264377   4.974   4.953   1.892  0.0561 -0.1595  0.3031
14321TIP3    H164378   5.022   4.875   1.866  0.5188 -0.2044  1.2774
14321TIP3    H264379   4.882   4.930   1.879  0.2482 -0.0753 -1.5517
14322TIP3   OH264380   5.501   5.339   2.969  0.2116 -0.4841  0.0726
14322TIP3    H164381   5.406   5.336   2.959  0.0714 -1.1570  1.3964
14322TIP3    H264382   5.534   5.288   2.895 -0.2960  1.7920 -1.8366
14323TIP3   OH264383   6.223   3.218   3.864  0.1444 -0.6630 -0.1839
14323TIP3    H164384   6.259   3.306   3.863  0.0735 -0.6193  0.5690
14323TIP3    H264385   6.298   3.160   3.856  0.1300 -0.5351 -1.4650
14324TIP3   OH264386   6.540   6.536  13.614 -0.2217 -0.2917  0.0484
14324TIP3    H164387   6.564   6.622  13.581  1.8147 -0.7550  0.1741
14324TIP3    H264388   6.475   6.503  13.552 -1.2823  1.4191  0.1771
14325TIP3   OH264389   3.212   6.130  14.064 -0.2162 -0.5300  0.6478
14325TIP3    H164390   3.284   6.141  14.125 -0.5611 -0.8322  1.1090
14325TIP3    H264391   3.229   6.046  14.021  0.9148  0.4305 -0.8738
14326TIP3   OH264392   4.274   2.137   4.136  0.5794 -0.4750  0.3817
14326TIP3    H164393   4.218   2.183   4.198 -2.9511 -1.5331 -1.7382
14326TIP3    H264394   4.317   2.206   4.086 -0.0409  0.4201  1.0634
14327TIP3   OH264395   5.287   5.393  17.391  0.9528  0.6486 -0.1003
14327TIP3    H164396   5.375   5.428  17.376  1.5937 -0.4089  0.9947
14327TIP3    H264397   5.237   5.419  17.314  1.7837  2.6221 -0.0256
14328TIP3   OH264398   1.605   3.803   6.120  0.5584  0.4836  0.0351
14328TIP3    H164399   1.621   3.750   6.199  0.3933 -0.6039 -0.6433
14328TIP3    H264400   1.511   3.796   6.105  0.8605 -1.0706 -1.4309
14329TIP3   OH264401   0.064   5.396  16.846  0.2025  0.7846 -0.3711
14329TIP3    H164402   0.042   5.305  16.829  1.0533  0.3905  0.5147
14329TIP3    H264403   0.143   5.411  16.793 -0.0814  1.0883 -0.7133
14330TIP3   OH264404   1.673   6.053  16.440  0.3315  0.4084 -0.3906
14330TIP3    H164405   1.655   6.127  16.498 -1.6007 -0.0125 -0.3677
14330TIP3    H264406   1.602   6.055  16.376 -0.2768 -1.8642  0.0908
14331TIP3   OH264407   2.923   4.219   5.847  0.0445 -0.2348  0.5961
14331TIP3    H164408   2.834   4.253   5.861 -1.2719 -3.4703  0.8670
14331TIP3    H264409   2.973   4.296   5.819 -3.5230  1.2937 -2.5737
14332TIP3   OH264410   4.015   5.526  16.263  0.4377 -0.4482 -0.1243
14332TIP3    H164411   3.965   5.594  16.218  0.9737  0.2191  0.2733
14332TIP3    H264412   4.066   5.484  16.193  1.8760  1.1079 -0.0810
14333TIP3   OH264413   1.164   6.029  11.636 -0.5387  0.3100 -0.7792
14333TIP3    H164414   1.236   5.974  11.608 -0.1158  0.1863  0.4853
14333TIP3    H264415   1.087   5.972  11.629 -0.2502 -0.1331 -0.4385
14334TIP3   OH264416   5.725   2.009   5.860  0.0375 -0.7465 -0.3731
14334TIP3    H164417   5.787   2.074   5.827  0.1521  0.4676  2.0202
14334TIP3    H264418   5.778   1.950   5.914 -0.5305 -1.1219 -0.2099
14335TIP3   OH264419   1.529   2.376  15.026 -0.0986 -0.1532  0.0079
14335TIP3    H164420   1.518   2.468  15.002 -3.1426 -0.0648  1.2590
14335TIP3    H264421   1.505   2.372  15.119  1.4291 -2.0140  0.3937
14336TIP3   OH264422   4.269   1.636   3.753 -0.4391  0.2508 -0.0652
14336TIP3    H164423   4.204   1.575   3.718 -0.4669  0.0399  0.3485
14336TIP3    H264424   4.227   1.722   3.747  0.8158  0.8049 -3.8281
14337TIP3   OH264425   6.222   2.917   3.282 -1.0319  0.1406  0.2870
14337TIP3    H164426   6.212   3.009   3.254 -1.2174 -0.1755 -0.7263
14337TIP3    H264427   6.134   2.889   3.306 -0.8877  0.3848  1.1069
14338TIP3   OH264428   6.467   0.483   2.125 -0.1140 -0.3391 -0.9361
14338TIP3    H164429   6.476   0.576   2.148 -1.8766  0.0504 -1.7106
14338TIP3    H264430   6.533   0.439   2.179  1.0415  1.3937 -0.8542
14339TIP3   OH264431   5.000   2.750  14.432  0.2545  0.4418  0.3454
14339TIP3    H164432   5.021   2.688  14.502 -0.6260 -0.1432  0.1052
14339TIP3    H264433   4.950   2.818  14.475  0.4608  0.5347  0.4419
14340TIP3   OH264434   0.785   3.328  11.111  0.3904 -0.6298  0.3284
14340TIP3    H164435   0.698   3.353  11.080  0.9617  1.2358  0.1253
14340TIP3    H264436   0.838   3.319  11.032  1.1695  1.4746  0.5490
14341TIP3   OH264437   6.436   6.612   0.100  0.5101  0.5508 -0.0996
14341TIP3    H164438   6.502   6.602   0.168  0.7149 -0.0225 -0.3762
14341TIP3    H264439   6.427   6.707   0.088  0.0778  0.6713  1.1007
14342TIP3   OH264440   0.780   1.103  16.205  0.0860  0.0450 -0.2813
14342TIP3    H164441   0.820   1.030  16.158 -0.6683 -0.6156  0.0905
14342TIP3    H264442   0.721   1.143  16.141 -0.6076 -0.5856 -0.0583
14343TIP3   OH264443   4.987   4.185   2.032 -0.5537 -0.3419  0.0519
14343TIP3    H164444   5.003   4.195   2.126 -0.8967 -0.7984  0.1636
14343TIP3    H264445   4.896   4.213   2.020 -0.8290 -1.2127  0.0203
14344TIP3   OH264446   4.539   4.564   3.248 -0.0791  0.0117 -0.2529
14344TIP3    H164447   4.617   4.614   3.225 -0.0625  0.8483  1.4981
14344TIP3    H264448   4.466   4.618   3.217 -0.1148  1.8155  2.5962
14345TIP3   OH264449   5.995   0.129  13.449 -0.6477  0.1551 -0.0138
14345TIP3    H164450   5.977   0.154  13.358 -1.4667 -0.3905 -0.0098
14345TIP3    H264451   6.071   0.071  13.443  0.3041  1.3836 -0.1756
14346TIP3   OH264452   1.174   2.397  17.318  0.2986 -0.1117  0.5332
14346TIP3    H164453   1.133   2.358  17.396 -1.2805  2.0746  0.8988
14346TIP3    H264454   1.131   2.482  17.309  0.3797 -0.3140 -2.8096
14347TIP3   OH264455   6.191   2.735   6.368 -0.1703  0.1068  0.0034
14347TIP3    H164456   6.171   2.754   6.277  0.4600 -0.5839 -0.2888
14347TIP3    H264457   6.281   2.765   6.381 -0.3029  0.3269  0.4333
14348TIP3   OH264458   4.837   2.946   1.378  0.0136 -0.1788  0.3064
14348TIP3    H164459   4.911   2.906   1.333  1.4096  0.0740  2.2753
14348TIP3    H264460   4.783   2.872   1.405  0.8396 -0.5438  0.9959
14349TIP3   OH264461   3.835   2.987  15.212  0.3267 -0.2766  0.1279
14349TIP3    H164462   3.832   3.065  15.157 -0.6564  0.5458  1.3122
14349TIP3    H264463   3.761   2.934  15.183 -0.5130  0.4024  0.9824
14350TIP3   OH264464   0.319   3.377  16.610  0.2461  0.0365 -0.4801
14350TIP3    H164465   0.248   3.338  16.661  0.4695 -0.2665 -0.3980
14350TIP3    H264466   0.285   3.382  16.521 -0.1598  0.6032 -0.2960
14351TIP3   OH264467   2.201   0.338  15.925 -0.1609 -0.0842 -0.9386
14351TIP3    H164468   2.167   0.268  15.980 -0.7912  0.5938 -0.4416
14351TIP3    H264469   2.209   0.299  15.838  0.5438 -1.0779 -0.4526
14352TIP3   OH264470   0.633   0.134  15.423  0.6457  0.2361 -0.2559
14352TIP3    H164471   0.594   0.129  15.510  1.4726 -0.0777  0.1118
14352TIP3    H264472   0.577   0.080  15.368  0.7048 -0.4203  0.3207
14353TIP3   OH264473   4.554   1.197  14.980  0.6736  0.7724  0.1267
14353TIP3    H164474   4.557   1.242  15.065  2.3804  1.7277 -0.3894
14353TIP3    H264475   4.585   1.262  14.917  2.9164 -0.9593 -0.6902
14354TIP3   OH264476   3.621   6.409   4.558  0.2777 -0.2478 -0.1026
14354TIP3    H164477   3.677   6.485   4.573  1.2234 -1.2152  1.5603
14354TIP3    H264478   3.546   6.422   4.615  1.1143 -1.1786  1.2755
14355TIP3   OH264479   0.413   4.919   5.617 -0.9783  0.1669  0.3028
14355TIP3    H164480   0.491   4.864   5.618 -1.5566 -0.8314 -2.0591
14355TIP3    H264481   0.371   4.902   5.701  1.3457  0.8331  1.7028
14356TIP3   OH264482   4.228   0.920  13.081 -0.2467 -0.7508 -0.0363
14356TIP3    H164483   4.295   0.949  13.018  0.1770 -1.0426  0.2770
14356TIP3    H264484   4.246   0.972  13.160  0.8327 -2.1878  0.7043
14357TIP3   OH264485   0.744   5.972  13.657 -0.4075  0.3702  0.3237
14357TIP3    H164486   0.686   6.012  13.591  1.6217  1.1491 -1.0762
14357TIP3    H264487   0.778   5.893  13.614  0.5403  0.6118  0.6115
14358TIP3   OH264488   1.728   6.164   7.107  0.7121 -0.0799 -0.7971
14358TIP3    H164489   1.647   6.114   7.099  1.3133 -0.8896 -2.2224
14358TIP3    H264490   1.741   6.204   7.021  2.8596 -1.6325 -1.2877
14359TIP3   OH264491   0.374   0.110  13.043  0.0463  0.6726  0.1828
14359TIP3    H164492   0.409   0.172  13.107 -1.5037 -0.1121  1.8809
14359TIP3    H264493   0.293   0.151  13.011  0.4587  0.7507 -0.8235
14360TIP3   OH264494   5.613   1.827   6.130 -0.1609 -0.0926  0.0367
14360TIP3    H164495   5.707   1.840   6.136  0.3828 -2.1755 -2.5043
14360TIP3    H264496   5.599   1.734   6.147 -1.3144 -0.5076 -2.6618
14361TIP3   OH264497   3.280   5.856   3.885  0.5326  0.1937 -0.2872
14361TIP3    H164498   3.191   5.854   3.922  0.0434  1.0369 -1.3473
14361TIP3    H264499   3.293   5.769   3.848  0.2562 -0.0283  0.1391
14362TIP3   OH264500   1.848   0.829   3.320 -0.0060  0.0896  0.1887
14362TIP3    H164501   1.869   0.736   3.333 -1.3847 -0.3226 -0.2391
14362TIP3    H264502   1.898   0.854   3.242 -2.0433 -1.2688 -1.7125
14363TIP3   OH264503   0.525   3.591   0.832 -0.6064  0.7338  0.0423
14363TIP3    H164504   0.435   3.575   0.858 -0.7532  0.5042 -0.5903
14363TIP3    H264505   0.523   3.593   0.736  0.3171 -0.8000 -0.0421
14364TIP3   OH264506   0.679   4.398  13.877 -0.3925 -0.2929 -0.2614
14364TIP3    H164507   0.735   4.469  13.907 -0.0674  0.1377 -1.7920
14364TIP3    H264508   0.600   4.442  13.843 -1.3497 -0.8427  1.1612
14365TIP3   OH264509   0.698   5.506  14.686  0.4835 -0.0446 -0.3282
14365TIP3    H164510   0.699   5.525  14.593 -0.1698  1.8542 -0.0002
14365TIP3    H264511   0.610   5.529  14.715  0.1722 -2.0704  0.5131
14366TIP3   OH264512   0.743   2.996  12.881 -0.3535  0.4584 -0.9199
14366TIP3    H164513   0.690   3.075  12.877 -0.2315  0.5721 -0.4014
14366TIP3    H264514   0.710   2.941  12.811  0.6061  1.6127 -2.3326
14367TIP3   OH264515   1.292   1.739  13.326  0.0377 -0.3046 -0.0856
14367TIP3    H164516   1.308   1.695  13.242  0.8818 -0.8844  0.3745
14367TIP3    H264517   1.197   1.732  13.338 -0.2535  0.6556 -1.4503
14368TIP3   OH264518   4.712   6.650   5.132  0.3764  0.7752  0.1075
14368TIP3    H164519   4.759   6.714   5.078  1.8980 -0.2803  0.1153
14368TIP3    H264520   4.710   6.689   5.219  2.7599  0.1452  0.4947
14369TIP3   OH264521   4.447   1.809  11.999  0.0657  0.3841  0.1161
14369TIP3    H164522   4.391   1.844  12.069  0.6190 -0.3063  0.9151
14369TIP3    H264523   4.390   1.748  11.952 -0.6051  1.5542 -0.6756
14370TIP3   OH264524   0.812   0.616   4.727  0.3097  0.5879  0.3797
14370TIP3    H164525   0.817   0.705   4.692 -1.1537  0.9358  1.0153
14370TIP3    H264526   0.893   0.574   4.696  0.7393  1.9456 -0.4197
14371TIP3   OH264527   5.683   6.398  10.991  0.3461  0.3666  0.5116
14371TIP3    H164528   5.689   6.340  10.915  0.9319  0.3278  0.5822
14371TIP3    H264529   5.626   6.352  11.052 -0.1768  0.4239  0.0751
14372TIP3   OH264530   6.348   1.318   4.819 -0.1158 -0.0276  0.0038
14372TIP3    H164531   6.366   1.408   4.847  0.5890 -1.0207  3.1672
14372TIP3    H264532   6.418   1.297   4.758 -1.3198  2.0696 -2.2799
14373TIP3   OH264533   6.018   3.184   0.710 -0.4411 -0.2709 -0.6765
14373TIP3    H164534   5.959   3.251   0.746  0.7372  0.0861  0.6595
14373TIP3    H264535   5.996   3.181   0.616 -0.4118  2.1078 -0.8124
14374TIP3   OH264536   1.052   3.671   0.806  0.2595  0.7752  0.4922
14374TIP3    H164537   0.978   3.698   0.750 -0.2056  1.4037  1.3702
14374TIP3    H264538   1.100   3.608   0.753 -0.0849  1.4449 -0.6701
14375TIP3   OH264539   2.190   0.691  15.372 -0.0097 -0.0950 -0.4340
14375TIP3    H164540   2.172   0.785  15.372 -0.2652 -0.1420 -0.6638
14375TIP3    H264541   2.188   0.665  15.464  1.1788  0.3335 -0.2780
14376TIP3   OH264542   3.048   5.329   4.776 -0.8253  0.3707 -0.1568
14376TIP3    H164543   2.992   5.268   4.824 -0.4747  1.1932  1.3576
14376TIP3    H264544   3.132   5.284   4.769 -1.1416 -0.1317 -0.8505
14377TIP3   OH264545   1.204   1.947   3.111  0.1123  0.8019 -0.0883
14377TIP3    H164546   1.233   1.922   3.023  0.8025  0.7929  0.1375
14377TIP3    H264547   1.274   1.916   3.169 -0.4113  0.6711  0.4812
14378TIP3   OH264548   1.808   6.172  14.763 -0.2764 -0.0688 -0.9596
14378TIP3    H164549   1.791   6.135  14.676  1.6818 -1.3044 -0.8828
14378TIP3    H264550   1.776   6.105  14.824  0.2932 -0.1754 -0.7724
14379TIP3   OH264551   5.304   6.005  14.208 -0.4071  0.5841  0.6143
14379TIP3    H164552   5.293   5.910  14.213 -2.0989  0.7646  1.0662
14379TIP3    H264553   5.304   6.033  14.299  2.8678  0.8222  0.6555
14380TIP3   OH264554   3.183   1.405  14.470  0.7600 -0.2045  0.4012
14380TIP3    H164555   3.222   1.470  14.410 -0.5052 -0.9144 -1.2766
14380TIP3    H264556   3.127   1.457  14.528 -0.0549  0.2749 -0.7681
14381TIP3   OH264557   5.197   1.361   0.191  0.4483 -0.3192  0.3716
14381TIP3    H164558   5.210   1.286   0.249  0.7061  0.6869  1.6846
14381TIP3    H264559   5.109   1.351   0.157  0.5788 -1.3521  0.2948
14382TIP3   OH264560   0.056   3.136   4.948 -0.1710 -0.2963 -0.8827
14382TIP3    H164561   0.134   3.190   4.933  0.1971 -0.0898  1.4522
14382TIP3    H264562   0.025   3.114   4.860  2.3487 -0.1499 -1.9004
14383TIP3   OH264563   2.818   4.867  15.174  0.5091 -0.5535 -0.4094
14383TIP3    H164564   2.786   4.779  15.151 -1.0634  0.0008 -0.5086
14383TIP3    H264565   2.796   4.876  15.267 -2.4543  0.9030 -1.1171
14384TIP3   OH264566   3.072   2.791   1.117  0.1370  0.2272  0.3169
14384TIP3    H164567   3.068   2.761   1.208  2.8931  0.5365  0.6044
14384TIP3    H264568   3.127   2.727   1.073  0.1288  0.9408 -0.7689
14385TIP3   OH264569   2.908   2.366  16.490  0.0563 -0.1735  0.2338
14385TIP3    H164570   2.913   2.388  16.397  2.4743  2.3940  0.8271
14385TIP3    H264571   2.867   2.280  16.492  0.9229 -0.8418 -3.2845
14386TIP3   OH264572   5.679   0.978  13.731 -0.0808 -0.5822  0.1293
14386TIP3    H164573   5.766   0.972  13.691 -1.5101 -0.7608 -3.2365
14386TIP3    H264574   5.656   1.071  13.725 -0.4239 -0.6476  0.3687
14387TIP3   OH264575   2.205   5.116   2.163 -0.0227 -0.3100  0.0803
14387TIP3    H164576   2.134   5.114   2.226 -0.5351 -0.4256 -0.4904
14387TIP3    H264577   2.273   5.061   2.202 -0.2609 -0.2432  0.6039
14388TIP3   OH264578   0.377   4.064  15.913 -0.4566 -0.0150  0.1525
14388TIP3    H164579   0.359   4.001  15.984 -0.6267  0.1576  0.2639
14388TIP3    H264580   0.325   4.141  15.936 -0.2586  0.1627  0.0088
14389TIP3   OH264581   6.733   6.207  15.497 -0.3097  0.1477  0.0661
14389TIP3    H164582   6.734   6.292  15.540 -1.3228 -0.1469  0.7013
14389TIP3    H264583   6.673   6.154  15.549  0.9583 -1.2327  0.1997
14390TIP3   OH264584   0.684   5.160  11.697  0.1170  0.1199  0.2073
14390TIP3    H164585   0.694   5.182  11.604 -0.6105 -0.9556 -0.1489
14390TIP3    H264586   0.595   5.124  11.703  0.8440 -1.6446  0.9312
14391TIP3   OH264587   4.082   4.129  14.357  0.3908  0.5716  0.0905
14391TIP3    H164588   4.128   4.045  14.350 -1.5726 -0.7119  1.2820
14391TIP3    H264589   4.148   4.191  14.385  1.7987 -0.6895 -0.2810
14392TIP3   OH264590   5.913   4.835  15.513  0.0281 -0.7698 -0.0183
14392TIP3    H164591   5.928   4.913  15.567  1.2133 -0.5505 -0.6200
14392TIP3    H264592   5.829   4.851  15.471  0.4206  0.3800 -0.4252
14393TIP3   OH264593   2.689   1.563   5.192  0.7585  0.0033 -0.3705
14393TIP3    H164594   2.767   1.610   5.162 -0.6144  1.8310 -1.2262
14393TIP3    H264595   2.703   1.552   5.287  2.4463 -0.5487 -0.6507
14394TIP3   OH264596   6.173   6.472   4.619  0.3044 -0.2267  0.0447
14394TIP3    H164597   6.171   6.532   4.544  0.2342 -1.0939 -0.6675
14394TIP3    H264598   6.086   6.481   4.658  0.3608  0.2747  0.0655
14395TIP3   OH264599   4.640   4.736  15.001  0.1523 -0.0047 -0.1910
14395TIP3    H164600   4.580   4.697  15.064  0.6516  0.5086  0.6180
14395TIP3    H264601   4.585   4.761  14.927 -0.7838  1.1786  0.8536
14396TIP3   OH264602   4.623   5.127   3.422  0.7531  0.5249 -0.4409
14396TIP3    H164603   4.717   5.118   3.405  0.8721  2.9189 -1.3969
14396TIP3    H264604   4.581   5.097   3.342  0.8214  1.4720 -0.8421
14397TIP3   OH264605   3.060   0.178  15.900  0.0438  0.0086 -0.1015
14397TIP3    H164606   3.068   0.175  15.995 -0.8259  2.2172  0.1094
14397TIP3    H264607   3.000   0.251  15.883  2.8825  2.0775 -2.4278
14398TIP3   OH264608   0.120   4.921  16.672  0.1585  0.1617 -0.7613
14398TIP3    H164609   0.168   5.003  16.680 -0.9088  1.1392 -3.2496
14398TIP3    H264610   0.150   4.884  16.589 -0.5312 -1.1813 -0.4368
14399TIP3   OH264611   4.100   5.359  15.337 -0.0869  0.2998  0.5994
14399TIP3    H164612   4.151   5.395  15.409  0.6016  1.5633 -0.4815
14399TIP3    H264613   4.136   5.400  15.259 -2.1571  0.5468 -0.2980
14400TIP3   OH264614   5.729   0.465   5.862 -0.6206  0.3642  0.1052
14400TIP3    H164615   5.770   0.525   5.924  0.3552  0.3214 -0.4774
14400TIP3    H264616   5.687   0.399   5.917  0.6159  0.0763  0.7324
14401TIP3   OH264617   6.341   6.629  15.604  0.1826  0.4697 -0.6494
14401TIP3    H164618   6.326   6.570  15.679 -0.5116  1.2414 -0.1596
14401TIP3    H264619   6.263   6.619  15.550 -0.1937  1.3292 -0.2850
14402TIP3   OH264620   3.580   3.423   4.135  0.0740  0.4988  0.3678
14402TIP3    H164621   3.614   3.426   4.046  0.7242  1.2780  0.6308
14402TIP3    H264622   3.497   3.473   4.131  0.0675  0.4736  0.1846
14403TIP3   OH264623   0.829   3.319   2.197 -0.2415 -0.0527 -0.2237
14403TIP3    H164624   0.861   3.408   2.208 -0.5859  0.0735 -0.2212
14403TIP3    H264625   0.882   3.266   2.256  0.2467  0.0833 -0.5277
14404TIP3   OH264626   0.788   5.781  14.218 -0.0474 -0.3499 -0.4754
14404TIP3    H164627   0.797   5.690  14.247  2.0848  0.0102  0.1954
14404TIP3    H264628   0.811   5.779  14.125  0.3779 -0.4657 -0.3724
14405TIP3   OH264629   0.613   2.760  16.955 -0.2908  0.1956  0.1576
14405TIP3    H164630   0.543   2.751  17.019  0.7276  0.1397  1.2902
14405TIP3    H264631   0.623   2.855  16.943 -1.8940  0.2075 -1.5581
14406TIP3   OH264632   2.887   1.114   0.715  0.3335  0.4427 -0.7229
14406TIP3    H164633   2.974   1.107   0.677  0.8416  2.6427 -0.1182
14406TIP3    H264634   2.898   1.086   0.806  0.6804  1.7321 -0.3511
14407TIP3   OH264635   5.035   4.911   3.074 -0.2247 -0.6128 -0.0245
14407TIP3    H164636   5.091   4.986   3.052  1.4816 -1.5164  0.9915
14407TIP3    H264637   5.003   4.879   2.990  1.1257 -0.2869 -0.6937
14408TIP3   OH264638   5.856   0.987   4.032  0.4524  0.2934 -0.0423
14408TIP3    H164639   5.805   0.909   4.010  1.0359  0.1474 -0.9225
14408TIP3    H264640   5.808   1.027   4.105 -0.4248 -0.3180 -0.2686
14409TIP3   OH264641   4.556   3.594  12.070  0.3720  0.0871  0.0366
14409TIP3    H164642   4.461   3.585  12.072  0.4562 -1.3834 -1.1164
14409TIP3    H264643   4.585   3.561  12.155 -0.0770 -0.3834  0.0078
14410TIP3   OH264644   3.958   1.846  12.187  0.1161 -0.1879 -0.0028
14410TIP3    H164645   3.929   1.767  12.140  0.8802 -0.5169  0.0564
14410TIP3    H264646   3.904   1.916  12.152  0.2660 -0.5326 -0.9560
14411TIP3   OH264647   2.823   1.779   6.564  0.7335 -0.7322 -0.3519
14411TIP3    H164648   2.735   1.812   6.585  0.1342 -3.0105  0.9929
14411TIP3    H264649   2.882   1.841   6.605 -0.2050  0.7586 -1.1346
14412TIP3   OH264650   3.177   5.573   4.705  0.2841  0.3285 -0.0508
14412TIP3    H164651   3.263   5.591   4.666 -0.2477  1.9695 -0.5213
14412TIP3    H264652   3.168   5.638   4.774 -0.2350 -0.3990  0.5891
14413TIP3   OH264653   4.387   1.161   0.743  0.1207  0.0816  0.1022
14413TIP3    H164654   4.342   1.223   0.686  1.9781 -0.0452 -1.6514
14413TIP3    H264655   4.478   1.163   0.713  0.3602 -3.1889  0.1913
14414TIP3   OH264656   6.162   5.343  12.880 -0.2416  0.0894  0.3500
14414TIP3    H164657   6.107   5.407  12.835 -2.0797 -0.4884  1.6288
14414TIP3    H264658   6.187   5.281  12.812  0.3079  1.3010 -0.6009
14415TIP3   OH264659   3.030   2.508   6.502 -0.2999  0.0083  0.3559
14415TIP3    H164660   3.002   2.564   6.575  0.7447  1.5329 -0.3449
14415TIP3    H264661   2.960   2.515   6.438 -0.3556  0.1923  0.4359
14416TIP3   OH264662   5.477   6.227  12.536  0.8114  0.6085  0.1722
14416TIP3    H164663   5.520   6.146  12.509 -0.0009  0.7746 -1.7385
14416TIP3    H264664   5.516   6.295  12.481 -0.0014  1.1834  0.2869
14417TIP3   OH264665   1.187   5.779  12.397  0.1895 -0.2108 -0.2618
14417TIP3    H164666   1.235   5.697  12.392  0.9695  0.0296  2.1159
14417TIP3    H264667   1.096   5.755  12.378  0.6570 -1.3120 -1.2048
14418TIP3   OH264668   0.862   2.304   6.324  0.0497  0.1218 -0.3551
14418TIP3    H164669   0.777   2.329   6.359 -0.4300 -0.1795 -1.2505
14418TIP3    H264670   0.892   2.232   6.380 -0.9958 -0.7917 -0.9166
14419TIP3   OH264671   5.370   4.395  11.226  0.3396 -0.6832 -0.4109
14419TIP3    H164672   5.422   4.472  11.250 -0.7420  0.4753 -1.7087
14419TIP3    H264673   5.436   4.330  11.201  1.2346  0.3920 -0.9795
14420TIP3   OH264674   0.921   5.526   0.813 -0.0959  0.3529 -0.2235
14420TIP3    H164675   0.954   5.458   0.754 -0.9443 -1.5267  1.3268
14420TIP3    H264676   0.979   5.523   0.888 -1.3138 -0.1044  0.7360
14421TIP3   OH264677   1.245   5.069  14.498 -0.0908 -0.2434 -0.0900
14421TIP3    H164678   1.188   5.026  14.561 -1.3371  0.5211 -0.6688
14421TIP3    H264679   1.334   5.046  14.526 -0.6564 -0.8468  1.2544
14422TIP3   OH264680   5.785   0.919   1.075 -0.0257 -0.2336 -0.7682
14422TIP3    H164681   5.833   0.984   1.125  1.3892 -0.9647 -1.1308
14422TIP3    H264682   5.770   0.847   1.136  0.8156 -0.6992 -1.0944
14423TIP3   OH264683   1.442   0.447   3.127  0.2936  0.0198  0.1570
14423TIP3    H164684   1.426   0.536   3.157  0.6115 -0.7861  3.0033
14423TIP3    H264685   1.369   0.396   3.162  0.2593 -0.9172 -1.1976
14424TIP3   OH264686   0.106   1.819   4.634 -0.9106 -0.5228 -0.5339
14424TIP3    H164687   0.045   1.785   4.699 -0.5158 -1.7778 -0.7917
14424TIP3    H264688   0.122   1.910   4.661 -1.4827 -0.7278  0.5582
14425TIP3   OH264689   2.771   1.260   1.996 -0.4471  0.4987 -0.0220
14425TIP3    H164690   2.702   1.205   2.031  0.5996 -0.2070  1.0211
14425TIP3    H264691   2.844   1.200   1.981 -0.1753  1.1540 -1.4772
14426TIP3   OH264692   2.195   4.428  15.110 -0.1806 -0.1054  0.0642
14426TIP3    H164693   2.120   4.430  15.169 -0.8123  1.5771 -0.7218
14426TIP3    H264694   2.164   4.472  15.030  1.6744  0.7953 -0.2065
14427TIP3   OH264695   6.101   6.377  13.908 -0.7520 -0.2387 -0.0167
14427TIP3    H164696   6.177   6.356  13.963  0.1119 -2.0438 -1.7600
14427TIP3    H264697   6.062   6.292  13.889 -0.8167  0.2522 -2.4042
14428TIP3   OH264698   5.924   3.731  12.814  0.1075 -0.4648  0.3098
14428TIP3    H164699   5.838   3.693  12.795 -0.4270  0.0165  1.6427
14428TIP3    H264700   5.917   3.823  12.787 -0.2137 -0.1194  1.5130
14429TIP3   OH264701   5.797   4.863   0.880  0.4496  0.0475  0.5647
14429TIP3    H164702   5.878   4.910   0.899  0.7952 -0.1485 -0.3425
14429TIP3    H264703   5.814   4.822   0.795 -0.8612  0.6187  0.0045
14430TIP3   OH264704   5.361   3.404   5.202  0.3312 -0.0475 -1.2364
14430TIP3    H164705   5.423   3.439   5.138 -0.1960  0.6227 -1.3854
14430TIP3    H264706   5.413   3.393   5.282  0.7508  0.0588 -1.4892
14431TIP3   OH264707   0.093   0.259  13.039 -0.4323 -0.1214 -0.3529
14431TIP3    H164708   0.047   0.340  13.017 -0.4940 -0.2862 -0.8373
14431TIP3    H264709   0.059   0.194  12.977 -0.3385 -0.5054 -0.0080
14432TIP3   OH264710   3.187   0.172   6.617  0.2731  0.2216  0.1096
14432TIP3    H164711   3.121   0.139   6.677 -0.5428  0.9907 -0.3474
14432TIP3    H264712   3.148   0.250   6.578  1.4447  0.6932 -0.1767
14433TIP3   OH264713   3.396   3.385  13.118 -0.3545 -0.1924  0.1849
14433TIP3    H164714   3.312   3.368  13.161 -0.1124 -1.1246  0.3191
14433TIP3    H264715   3.374   3.390  13.025 -0.4317 -1.5085  0.1102
14434TIP3   OH264716   0.693   2.195  11.929 -0.0189 -0.0631 -0.4593
14434TIP3    H164717   0.706   2.195  11.834  2.2838  0.2985 -0.1957
14434TIP3    H264718   0.770   2.150  11.964 -0.0103  1.2311  1.3215
14435TIP3   OH264719   3.315   0.474  15.889  0.1982 -0.2702  0.4447
14435TIP3    H164720   3.221   0.460  15.897 -0.0747  0.7451 -0.6570
14435TIP3    H264721   3.325   0.570  15.887  1.1457 -0.3685 -0.3824
14436TIP3   OH264722   2.478   4.122  14.067 -0.0319 -0.0866  0.5852
14436TIP3    H164723   2.494   4.206  14.024 -0.6807  0.0880  0.6780
14436TIP3    H264724   2.532   4.060  14.017  0.1044  0.3062  0.2336
14437TIP3   OH264725   3.993   4.514  14.409 -0.2682  0.0952  0.0740
14437TIP3    H164726   3.914   4.566  14.423  0.4465  0.8169  1.7566
14437TIP3    H264727   3.987   4.443  14.473  0.4294  0.1423  0.2011
14438TIP3   OH264728   3.861   5.817   0.559  0.5435 -0.1124  0.3539
14438TIP3    H164729   3.957   5.811   0.563  0.6195 -0.6362 -1.3458
14438TIP3    H264730   3.843   5.844   0.469 -0.9173 -0.1051  0.6277
14439TIP3   OH264731   0.866   1.875  14.083  0.0358  0.1791 -0.2840
14439TIP3    H164732   0.882   1.967  14.107  2.2825 -0.3397  0.4565
14439TIP3    H264733   0.942   1.828  14.118 -0.4976 -1.8080 -1.6583
14440TIP3   OH264734   0.693   0.731  16.785 -0.1818 -0.6108 -0.3939
14440TIP3    H164735   0.651   0.733  16.699 -0.1916  1.3004 -0.3908
14440TIP3    H264736   0.720   0.640  16.796 -1.5601 -1.2360 -1.7317
14441TIP3   OH264737   1.377   3.597   4.092  0.0225 -0.1288 -0.0955
14441TIP3    H164738   1.375   3.606   4.187 -1.6145 -0.5624 -0.0652
14441TIP3    H264739   1.382   3.687   4.059 -1.7948  0.1765  0.3908
14442TIP3   OH264740   5.411   3.773  15.781  0.0616  1.2689 -0.1246
14442TIP3    H164741   5.321   3.748  15.801  0.4275 -0.9395 -0.9314
14442TIP3    H264742   5.437   3.832  15.852 -1.6946  1.2028  0.6080
14443TIP3   OH264743   0.367   1.697  13.092 -0.3148  0.1551 -0.6633
14443TIP3    H164744   0.391   1.729  13.179 -0.4658 -1.3098 -0.0581
14443TIP3    H264745   0.274   1.720  13.084  0.1150  1.9065 -1.2209
14444TIP3   OH264746   4.891   2.634   0.458  0.4393  0.0338  0.3937
14444TIP3    H164747   4.918   2.545   0.477  1.7098 -0.0440 -1.5081
14444TIP3    H264748   4.971   2.678   0.429 -0.7550  0.8193 -1.9867
14445TIP3   OH264749   0.318   1.922   3.770  1.0989  0.2700  0.1498
14445TIP3    H164750   0.287   1.834   3.793  0.7554  0.2126 -0.5026
14445TIP3    H264751   0.286   1.936   3.681  0.3326  1.4304  0.5771
14446TIP3   OH264752   0.579   6.599  11.727  0.1768  0.7723 -0.1226
14446TIP3    H164753   0.500   6.594  11.673  0.2025 -2.1400 -0.0432
14446TIP3    H264754   0.559   6.547  11.804  1.9217  0.5602  0.2306
14447TIP3   OH264755   2.330   1.327   0.688  0.4449 -0.1309  0.2804
14447TIP3    H164756   2.256   1.306   0.632  0.2545 -2.2674  1.2603
14447TIP3    H264757   2.312   1.417   0.717 -1.1438 -0.1844 -0.4038
14448TIP3   OH264758   6.249   2.387   0.501  0.3034  0.1173  0.8300
14448TIP3    H164759   6.321   2.388   0.564 -0.6006 -1.6773  1.9792
14448TIP3    H264760   6.179   2.436   0.543  0.5176  1.0899  0.0954
14449TIP3   OH264761   1.620   1.705   2.444 -0.5651 -0.3636  0.4568
14449TIP3    H164762   1.539   1.655   2.455  0.6161 -2.8441 -1.1764
14449TIP3    H264763   1.673   1.683   2.521 -1.0343  0.4564  1.0218
14450TIP3   OH264764   5.893   4.613   0.983  0.2433  0.2532 -0.4586
14450TIP3    H164765   5.833   4.571   0.922 -0.2271  0.8314 -0.3984
14450TIP3    H264766   5.856   4.699   0.999  0.9128  0.4961 -0.1584
14451TIP3   OH264767   0.357   4.923   5.213 -0.1619  0.0290  0.2004
14451TIP3    H164768   0.412   4.872   5.153  0.2793 -0.8192  1.2800
14451TIP3    H264769   0.275   4.873   5.218 -0.7716  0.8819 -0.8060
14452TIP3   OH264770   2.538   3.115   2.754  0.6738  0.1676  1.0743
14452TIP3    H164771   2.444   3.105   2.772  0.6223  0.9021  1.2266
14452TIP3    H264772   2.552   3.063   2.675  0.0282  0.4679  0.7467
14453TIP3   OH264773   3.325   0.681  12.683  0.4482 -0.4490 -0.4086
14453TIP3    H164774   3.250   0.653  12.630 -0.4871  0.2006  0.5408
14453TIP3    H264775   3.351   0.765  12.644  0.1953 -0.3072 -0.2779
14454TIP3   OH264776   3.522   0.557  16.619 -0.1391  0.5205  0.4359
14454TIP3    H164777   3.497   0.477  16.573 -2.4967  1.4172  0.0354
14454TIP3    H264778   3.450   0.573  16.680  0.5234  2.0680  0.8612
14455TIP3   OH264779   1.957   2.391  12.241  0.2976  0.1987  0.3418
14455TIP3    H164780   2.040   2.426  12.209 -0.2900  0.2760 -1.1839
14455TIP3    H264781   1.935   2.322  12.179  0.6745 -1.9270  2.4072
14456TIP3   OH264782   4.226   1.186   6.378 -0.3984 -0.3219 -0.1590
14456TIP3    H164783   4.220   1.091   6.390 -0.7997 -0.6219 -2.3553
14456TIP3    H264784   4.138   1.219   6.395 -0.3616 -0.3968  0.1789
14457TIP3   OH264785   0.051   2.917  11.905  0.1793  0.1761 -0.2361
14457TIP3    H164786  -0.044   2.922  11.918 -0.2977 -0.8092 -2.7980
14457TIP3    H264787   0.071   2.991  11.849  0.1486 -1.8291 -3.0988
14458TIP3   OH264788   5.163   6.452  15.886 -0.3603  0.0872  0.2932
14458TIP3    H164789   5.161   6.372  15.834 -2.6058 -0.0353  0.4919
14458TIP3    H264790   5.193   6.423  15.973 -2.3695 -0.8436  0.7445
14459TIP3   OH264791   0.671   4.963   0.473 -0.1335  0.2531 -0.0028
14459TIP3    H164792   0.685   4.966   0.567  0.5878  1.2828 -0.1173
14459TIP3    H264793   0.581   4.994   0.461 -0.9884 -1.8772  0.4484
14460TIP3   OH264794   3.166   4.518  11.562 -0.3719  0.1893  0.8944
14460TIP3    H164795   3.086   4.482  11.600 -1.2409  0.3582 -0.7130
14460TIP3    H264796   3.231   4.508  11.632 -1.5831 -0.6548  1.9675
14461TIP3   OH264797   5.543   4.286   1.929  0.3898 -0.2534 -0.0645
14461TIP3    H164798   5.564   4.217   1.992  3.5357  0.8413  0.2566
14461TIP3    H264799   5.522   4.363   1.983  0.0693 -0.0980 -0.4005
14462TIP3   OH264800   2.677   1.171   2.366 -0.3962  0.4221 -0.3791
14462TIP3    H164801   2.612   1.238   2.389  0.5871  1.4836 -0.6509
14462TIP3    H264802   2.753   1.192   2.420  0.7603  0.9535 -2.1547
14463TIP3   OH264803   2.756   2.918  16.544  0.2689 -0.2401 -0.1549
14463TIP3    H164804   2.767   2.978  16.470 -0.8350  0.6949  0.4080
14463TIP3    H264805   2.845   2.888  16.563  0.9519  1.7016 -0.0667
14464TIP3   OH264806   0.410   2.517  14.078 -0.2240 -0.3181  0.3548
14464TIP3    H164807   0.450   2.486  13.997 -0.6558  1.0442 -0.4167
14464TIP3    H264808   0.461   2.475  14.148  0.9311 -0.5734 -0.6086
14465TIP3   OH264809   0.464   2.373  16.924 -0.4140 -0.1402 -0.8251
14465TIP3    H164810   0.549   2.402  16.958  0.0799 -0.7455 -1.5202
14465TIP3    H264811   0.437   2.444  16.865 -0.6933  0.3413 -0.1296
14466TIP3   OH264812   1.160   3.783  16.396 -0.6565 -0.2093  0.1822
14466TIP3    H164813   1.196   3.832  16.322 -1.3038  0.6530  0.4181
14466TIP3    H264814   1.149   3.849  16.465  0.1307 -1.0407  1.1238
14467TIP3   OH264815   2.303   2.144   5.054  0.3184  0.1444 -0.4093
14467TIP3    H164816   2.210   2.132   5.038 -0.1268 -1.3090  2.5110
14467TIP3    H264817   2.343   2.061   5.030  0.6625  0.2914 -0.3622
14468TIP3   OH264818   5.221   0.885  16.269  0.3404  0.0791  0.4397
14468TIP3    H164819   5.167   0.838  16.333  0.1432  2.4277  2.1207
14468TIP3    H264820   5.191   0.976  16.275  1.5692  0.6898 -1.7438
14469TIP3   OH264821   1.576   0.789   2.759 -0.1607 -0.6044  0.0717
14469TIP3    H164822   1.631   0.808   2.836 -2.1249  0.7208  1.2323
14469TIP3    H264823   1.589   0.695   2.744  1.6218 -0.5358  0.9163
14470TIP3   OH264824   4.032   5.312  15.733  0.5016 -0.7172 -0.8177
14470TIP3    H164825   3.960   5.356  15.778  1.3503  0.2960 -0.4396
14470TIP3    H264826   4.031   5.223  15.768 -0.4825 -0.6899 -0.7331
14471TIP3   OH264827   1.521   4.225   2.185  0.1986  0.3584  0.2656
14471TIP3    H164828   1.537   4.319   2.178  1.4315  0.2602  1.3479
14471TIP3    H264829   1.544   4.190   2.098  0.6961  0.9285  0.1648
14472TIP3   OH264830   5.152   1.798   0.291  0.3685  0.0442 -0.0651
14472TIP3    H164831   5.103   1.879   0.273  0.8084  0.3163 -0.0575
14472TIP3    H264832   5.226   1.801   0.230  0.3456 -0.3915 -0.1171
14473TIP3   OH264833   5.916   0.433   2.038  0.5347 -0.7621  0.5377
14473TIP3    H164834   5.986   0.488   2.002  0.7831 -1.3398  0.1297
14473TIP3    H264835   5.912   0.357   1.979 -1.2189 -0.1974 -0.1450
14474TIP3   OH264836   3.487   0.961  11.704  0.5763 -0.5252 -0.3156
14474TIP3    H164837   3.436   0.903  11.648 -0.2924 -1.5634  1.4749
14474TIP3    H264838   3.539   0.902  11.758  2.4228  0.4810 -0.8970
14475TIP3   OH264839   4.846   1.658  14.856 -0.0477 -0.2739  0.3280
14475TIP3    H164840   4.847   1.624  14.945 -3.1150 -1.2440  0.1065
14475TIP3    H264841   4.763   1.629  14.820 -0.4293  2.8805 -1.7681
14476TIP3   OH264842   2.556   0.047  15.702  0.0864 -0.5604  0.3206
14476TIP3    H164843   2.542   0.141  15.712 -1.5772 -0.8112  0.6261
14476TIP3    H264844   2.530   0.027  15.612 -2.1006 -1.0944  1.0061
14477TIP3   OH264845   5.535   5.026  11.714  0.1652 -0.8847  0.9525
14477TIP3    H164846   5.446   5.048  11.743 -0.5599 -0.1243 -1.5911
14477TIP3    H264847   5.592   5.058  11.783 -1.4424  0.4572  1.7114
14478TIP3   OH264848   4.185   3.715  12.364  0.2460  0.0739  0.0088
14478TIP3    H164849   4.177   3.800  12.320 -0.2620 -0.1214 -0.2870
14478TIP3    H264850   4.272   3.684  12.340 -0.4672 -0.5964 -1.9100
14479TIP3   OH264851   3.587   2.784  14.747 -0.1689 -0.2925 -0.3127
14479TIP3    H164852   3.557   2.861  14.699  0.2543 -0.1581 -0.3592
14479TIP3    H264853   3.682   2.790  14.747 -0.1625 -0.2756  0.5707
14480TIP3   OH264854   1.647   1.142   1.206 -0.1989  0.3675 -0.1493
14480TIP3    H164855   1.585   1.215   1.207  0.0563  0.5784  0.2124
14480TIP3    H264856   1.610   1.078   1.267  0.4056  0.8858  0.7836
14481TIP3   OH264857   5.951   6.114  11.078  0.6163  1.0458  0.2880
14481TIP3    H164858   5.974   6.023  11.058 -0.1259  0.5460  1.6008
14481TIP3    H264859   5.939   6.116  11.173 -1.8260  1.9121  0.0468
14482TIP3   OH264860   1.585   4.865  13.550  0.0452 -0.5395  0.5435
14482TIP3    H164861   1.630   4.931  13.602  0.5993 -1.9649  1.9858
14482TIP3    H264862   1.650   4.836  13.486  0.0565 -0.2056  0.4065
14483TIP3   OH264863   5.135   4.334  14.612  0.5191 -0.0618  0.2726
14483TIP3    H164864   5.094   4.372  14.690 -0.5844 -1.8424  0.6116
14483TIP3    H264865   5.070   4.272  14.579  2.0562 -1.3070 -0.5066
14484TIP3   OH264866   2.629   5.787   4.149  0.2051 -0.5160  0.1854
14484TIP3    H164867   2.548   5.823   4.113  0.3596 -1.0746 -0.7701
14484TIP3    H264868   2.660   5.855   4.209 -1.3667 -0.6368  1.1894
14485TIP3   OH264869   4.797   6.521   5.413  0.0225 -0.1739  1.1910
14485TIP3    H164870   4.827   6.607   5.385 -0.2171 -0.2777  0.5909
14485TIP3    H264871   4.789   6.528   5.508  3.0258 -0.5053  1.5377
14486TIP3   OH264872   5.713   6.406  12.160 -0.4952 -0.3026 -0.1032
14486TIP3    H164873   5.773   6.480  12.162 -2.6452  1.5378 -0.0673
14486TIP3    H264874   5.748   6.349  12.091  2.0667 -0.1017  0.9205
14487TIP3   OH264875   1.242   6.614   4.055  0.0382 -0.1252  0.2385
14487TIP3    H164876   1.153   6.647   4.066 -0.0674 -1.1791  3.8428
14487TIP3    H264877   1.297   6.692   4.050 -0.9085  0.5346 -0.1087
14488TIP3   OH264878   1.208   2.637  16.430 -0.0330 -0.6270  0.2322
14488TIP3    H164879   1.195   2.706  16.495  0.7208 -0.4439  0.1913
14488TIP3    H264880   1.221   2.558  16.483  3.3284 -0.0593  0.4586
14489TIP3   OH264881   4.457   1.293   2.283 -0.0310 -0.6823  0.1739
14489TIP3    H164882   4.420   1.219   2.234  0.1415 -0.1795 -0.7382
14489TIP3    H264883   4.394   1.309   2.352  0.1243 -1.9388  0.6408
14490TIP3   OH264884   5.057   0.522   2.056 -0.5443 -0.6925 -0.2476
14490TIP3    H164885   5.133   0.544   2.003 -0.1138 -2.6631 -0.5427
14490TIP3    H264886   5.011   0.605   2.068  1.7747  0.6139  0.1940
14491TIP3   OH264887   6.330   1.431   2.744 -0.3766  0.0632  0.1148
14491TIP3    H164888   6.257   1.385   2.702 -0.9676  2.2693 -1.4691
14491TIP3    H264889   6.405   1.414   2.687 -0.1348 -0.4528  0.5744
14492TIP3   OH264890   4.270   3.537  17.116 -0.3540  0.7146 -0.2490
14492TIP3    H164891   4.181   3.527  17.149  0.1107 -1.1175  0.6136
14492TIP3    H264892   4.300   3.620  17.153 -1.7699  1.5262 -0.8167
14493TIP3   OH264893   4.031   4.780   6.461  0.5003  0.0965  0.4905
14493TIP3    H164894   3.945   4.818   6.439  0.3800 -0.0237  0.7514
14493TIP3    H264895   4.092   4.853   6.449  0.2433  0.4368  1.1791
14494TIP3   OH264896   1.828   4.804  15.136 -0.4317 -0.5291 -0.5769
14494TIP3    H164897   1.843   4.714  15.109  0.7510 -0.4054 -0.4050
14494TIP3    H264898   1.794   4.848  15.058 -0.6393 -1.0314 -0.7707
14495TIP3   OH264899   5.284   2.284   3.336  0.0493  0.0294 -0.4811
14495TIP3    H164900   5.340   2.216   3.375  1.5759  1.7229  0.4676
14495TIP3    H264901   5.311   2.288   3.244 -0.4541 -1.0016 -0.6836
14496TIP3   OH264902   1.770   1.978  15.778 -0.5023  0.0595  0.0816
14496TIP3    H164903   1.812   1.898  15.809 -1.9166 -1.1744 -0.9944
14496TIP3    H264904   1.842   2.038  15.757  0.5631 -0.7079  1.4423
14497TIP3   OH264905   0.122   1.811  13.048 -0.1159  0.2153  0.2137
14497TIP3    H164906   0.138   1.905  13.061  0.4224  0.0803  0.5502
14497TIP3    H264907   0.108   1.802  12.954  1.6822  0.3730 -0.1072
14498TIP3   OH264908   4.440   1.926   1.346  0.0663  0.3398 -0.5619
14498TIP3    H164909   4.505   1.861   1.322  0.6967  1.5865 -2.3932
14498TIP3    H264910   4.357   1.879   1.344  0.7135 -0.8437  0.0464
14499TIP3   OH264911   0.367   2.602  16.793  0.1006  0.2714  0.1976
14499TIP3    H164912   0.321   2.569  16.715  0.5217  0.2834 -0.0619
14499TIP3    H264913   0.401   2.687  16.766  0.9872 -0.0976  0.1008
14500TIP3   OH264914   0.781   5.601   2.359 -1.1349  0.4301  0.6067
14500TIP3    H164915   0.752   5.509   2.362  0.4662 -0.1032  0.6869
14500TIP3    H264916   0.736   5.637   2.283 -0.7075 -0.8466 -0.3076
14501TIP3   OH264917   5.082   4.470  17.399 -0.1405 -0.1215  0.1448
14501TIP3    H164918   5.147   4.399  17.392  0.7979  0.7941 -0.6934
14501TIP3    H264919   5.134   4.550  17.403 -1.2243  0.6479 -0.6008
14502TIP3   OH264920   3.135   4.060  15.650 -0.3392  0.1000 -0.3458
14502TIP3    H164921   3.196   4.082  15.580  0.9641 -1.8716  0.0801
14502TIP3    H264922   3.185   4.070  15.731 -1.0667  0.0085  0.1288
14503TIP3   OH264923   4.665   6.003  15.646  0.0907  0.3602  0.3287
14503TIP3    H164924   4.668   5.951  15.726  2.5457  0.5869  0.4683
14503TIP3    H264925   4.737   6.065  15.655  0.8597 -0.0089 -2.2845
14504TIP3   OH264926   1.035   3.326  12.545  0.0747 -0.2558 -0.3445
14504TIP3    H164927   0.969   3.266  12.579  0.8062 -0.6521  0.4068
14504TIP3    H264928   1.041   3.304  12.452  1.3697 -2.3919  0.1772
14505TIP3   OH264929   5.238   5.472   1.792 -0.7284  0.5473 -0.2203
14505TIP3    H164930   5.159   5.423   1.813 -2.0754  2.7471  0.1125
14505TIP3    H264931   5.300   5.448   1.860 -1.6180 -0.0568  0.4010
14506TIP3   OH264932   0.780   5.722  13.559 -0.2186  0.1123  0.2452
14506TIP3    H164933   0.738   5.637  13.573 -0.4098  0.3300  1.0760
14506TIP3    H264934   0.859   5.702  13.510 -0.7754 -0.4259 -0.4548
14507TIP3   OH264935   5.794   5.146  12.415 -0.1102 -0.3796 -0.0362
14507TIP3    H164936   5.844   5.079  12.368 -1.4309 -1.0922 -0.4710
14507TIP3    H264937   5.764   5.101  12.494  1.5329  0.6170  1.2047
14508TIP3   OH264938   2.476   3.854   5.722  0.7038 -0.0107  0.5761
14508TIP3    H164939   2.505   3.796   5.792  2.4071  0.2062  0.1058
14508TIP3    H264940   2.385   3.830   5.707  1.0950 -1.9432  1.0070
14509TIP3   OH264941   4.877   3.538  15.482  0.2070 -0.3716 -0.2263
14509TIP3    H164942   4.934   3.508  15.411  1.7330  0.0692  0.7621
14509TIP3    H264943   4.932   3.536  15.560 -1.3909 -0.7330  0.9532
14510TIP3   OH264944   3.047   1.809  14.740 -0.1839  0.2137  0.4283
14510TIP3    H164945   2.987   1.882  14.756  1.1223  1.5197 -0.2959
14510TIP3    H264946   3.073   1.820  14.649 -0.8530 -1.9046 -0.0724
14511TIP3   OH264947   5.157   4.666   2.496 -0.1182 -0.5835 -0.2467
14511TIP3    H164948   5.175   4.646   2.588  1.9001 -0.9892 -0.6908
14511TIP3    H264949   5.065   4.640   2.484  0.1721 -2.4475  1.1199
14512TIP3   OH264950   1.471   1.947   5.290  0.3019  0.0220 -0.2101
14512TIP3    H164951   1.404   2.015   5.295 -0.2428 -0.2053 -2.8046
14512TIP3    H264952   1.423   1.865   5.294  0.4968 -0.1505 -1.0950
14513TIP3   OH264953   0.568   6.610   1.936  0.6487 -0.1339  0.1357
14513TIP3    H164954   0.654   6.653   1.931  0.2597  0.6180 -0.5600
14513TIP3    H264955   0.531   6.623   1.848  0.0599 -0.9531  0.2579
14514TIP3   OH264956   1.618   3.687  14.976 -0.2983  0.1673  0.0405
14514TIP3    H164957   1.562   3.757  14.945 -2.7637  0.1853  3.8634
14514TIP3    H264958   1.674   3.728  15.042  0.8561 -0.7852 -0.2996
14515TIP3   OH264959   6.717   1.042   1.966  0.2372  0.4849 -0.1463
14515TIP3    H164960   6.741   0.970   1.907  2.6950  0.5533  0.6409
14515TIP3    H264961   6.718   1.002   2.053  1.2432  1.3549  0.2610
14516TIP3   OH264962   3.884   6.201   1.928  0.1486  0.8075 -0.0553
14516TIP3    H164963   3.861   6.186   1.837 -0.8031  0.7532  0.1879
14516TIP3    H264964   3.887   6.296   1.938  0.1412  0.8130 -0.1110
14517TIP3   OH264965   4.732   1.649  17.356 -0.4031 -0.7949  1.0942
14517TIP3    H164966   4.789   1.722  17.332  1.2280 -2.1309  0.6955
14517TIP3    H264967   4.791   1.574  17.364 -1.8115 -1.7687  3.0215
14518TIP3   OH264968   0.861   3.923   5.235  0.2606 -0.2595  0.1470
14518TIP3    H164969   0.830   3.888   5.152  1.1601 -0.5162 -0.0871
14518TIP3    H264970   0.956   3.925   5.227  0.3035  0.9366  0.6775
14519TIP3   OH264971   0.696   6.008  10.738 -0.6702  0.2191 -0.3902
14519TIP3    H164972   0.651   5.928  10.711 -0.2066 -0.3955  0.6018
14519TIP3    H264973   0.627   6.062  10.777 -0.9644  0.2625 -0.9622
14520TIP3   OH264974   4.429   5.533  12.422  0.5303  0.0417  0.3178
14520TIP3    H164975   4.514   5.569  12.445  0.5906 -0.3442  0.7015
14520TIP3    H264976   4.441   5.438  12.426 -0.1388 -0.0096  1.1879
14521TIP3   OH264977   3.455   3.055  17.134  0.3983 -0.5593 -0.3487
14521TIP3    H164978   3.468   3.105  17.053  0.1307 -1.2374 -0.8135
14521TIP3    H264979   3.362   3.035  17.136  0.4625 -0.8418 -0.0485
14522TIP3   OH264980   4.460   2.281   1.967  0.2817  0.1280 -0.4473
14522TIP3    H164981   4.398   2.332   1.914  0.2102  1.2607  0.6835
14522TIP3    H264982   4.409   2.208   2.000  0.2926 -0.5251 -1.8037
14523TIP3   OH264983   6.177   4.851   5.895 -0.3129  0.1188 -0.0349
14523TIP3    H164984   6.171   4.931   5.947  1.0396  0.0461  0.2623
14523TIP3    H264985   6.176   4.780   5.959  0.8291  0.0065 -0.1365
14524TIP3   OH264986   3.847   0.691   3.599 -0.9939  0.0313  0.3239
14524TIP3    H164987   3.871   0.675   3.507 -0.6664  0.4967  0.3244
14524TIP3    H264988   3.809   0.779   3.598 -1.9199 -0.3652  0.4706
14525TIP3   OH264989   5.043   0.718  16.939 -0.2717 -0.5365 -0.0277
14525TIP3    H164990   5.084   0.797  16.971 -1.1308 -0.1514  0.1621
14525TIP3    H264991   5.032   0.663  17.017  2.4422 -1.8899 -0.4812
14526TIP3   OH264992   3.741   1.547   0.978 -0.0046  0.8277 -0.0074
14526TIP3    H164993   3.768   1.538   0.887  0.6320 -1.1165  0.3376
14526TIP3    H264994   3.750   1.459   1.015 -1.5267  1.2922  1.5903
14527TIP3   OH264995   0.263   5.573  11.571 -0.4757 -0.7559 -0.6825
14527TIP3    H164996   0.347   5.550  11.611  0.0852  0.6973 -0.9766
14527TIP3    H264997   0.286   5.602  11.482 -1.2345 -0.0078 -0.6455
14528TIP3   OH264998   2.701   3.118  13.970 -0.5995  0.2564  0.0255
14528TIP3    H164999   2.777   3.086  13.922 -1.8919  0.0955 -2.0619
14528TIP3    H265000   2.720   3.210  13.988  1.1991 -0.4322  2.0050
14529TIP3   OH265001   3.519   1.100  16.114 -0.3672 -0.5512 -0.2988
14529TIP3    H165002   3.587   1.167  16.127  0.6453 -1.5165 -0.4605
14529TIP3    H265003   3.538   1.064  16.027 -1.3113 -0.6088 -0.4919
14530TIP3   OH265004   0.131   5.012   5.542 -0.1280  0.2281  0.2362
14530TIP3    H165005   0.100   5.103   5.541 -0.9526 -0.0417 -0.0464
14530TIP3    H265006   0.211   5.014   5.594  0.8963  1.4334 -1.2982
14531TIP3   OH265007   3.267   6.425  13.402 -0.1605  0.1976  0.0517
14531TIP3    H165008   3.208   6.447  13.474  0.5684 -1.0599  1.0696
14531TIP3    H265009   3.344   6.388  13.445  1.4488  1.8804 -1.2323
14532TIP3   OH265010   4.074   5.886   4.033 -0.0284  0.1312  0.2264
14532TIP3    H165011   4.128   5.906   4.110  1.1866  0.1791 -0.6133
14532TIP3    H265012   4.136   5.881   3.961 -1.2497  1.0710 -0.9476
14533TIP3   OH265013   5.895   3.501  15.353  0.3550 -0.1420  0.2222
14533TIP3    H165014   5.831   3.532  15.418  0.2367 -1.2613  0.6592
14533TIP3    H265015   5.926   3.581  15.311  0.7155  0.6604  1.9126
14534TIP3   OH265016   6.083   0.308   5.979  0.1500  0.0305  0.2780
14534TIP3    H165017   6.038   0.259   5.911 -0.5499  1.0997 -0.0569
14534TIP3    H265018   6.058   0.264   6.061  0.3781 -0.7874 -0.0836
14535TIP3   OH265019   4.178   1.546  16.179  0.0252  0.5876  0.5112
14535TIP3    H165020   4.144   1.632  16.158  0.3586  0.9483  1.4241
14535TIP3    H265021   4.133   1.520  16.259  1.1215  0.6448  1.1706
14536TIP3   OH265022   2.913   1.128  14.395 -0.3558  0.7009 -0.0106
14536TIP3    H165023   2.882   1.191  14.330 -0.0262 -0.2315 -1.0907
14536TIP3    H265024   2.836   1.074  14.413 -0.2689  0.5485 -0.1056
14537TIP3   OH265025   2.797   5.040  14.564  0.1297 -0.0699  0.4578
14537TIP3    H165026   2.750   4.967  14.525 -1.0314  0.9707 -0.1863
14537TIP3    H265027   2.729   5.090  14.609  0.7959  0.8972  0.4132
14538TIP3   OH265028   4.886   4.583  15.033 -0.1032 -0.0246 -0.7368
14538TIP3    H165029   4.854   4.496  15.013  0.6580 -1.0747  2.1398
14538TIP3    H265030   4.809   4.639  15.029 -0.8089 -1.0306 -1.5247
14539TIP3   OH265031   6.146   5.041   4.211 -0.3765 -0.4793 -0.3479
14539TIP3    H165032   6.202   5.117   4.229 -1.4412  0.2268  0.1074
14539TIP3    H265033   6.187   4.969   4.258  0.6350 -0.1889 -0.7581
14540TIP3   OH265034   3.092   3.858   4.776 -0.1309 -0.2949  0.7373
14540TIP3    H165035   3.047   3.776   4.793 -1.3076 -0.1002 -1.0796
14540TIP3    H265036   3.078   3.874   4.682  0.7427  1.5693  0.8670
14541TIP3   OH265037   5.128   5.498  17.199  0.1533  0.0429  0.4274
14541TIP3    H165038   5.058   5.504  17.135 -0.5950 -0.4778  1.1665
14541TIP3    H265039   5.164   5.586  17.205  1.3922 -0.2177 -1.9166
14542TIP3   OH265040   1.225   1.296   0.017 -0.7511  0.3157 -0.1917
14542TIP3    H165041   1.237   1.257  -0.070 -1.8288  1.5606 -0.9378
14542TIP3    H265042   1.142   1.260   0.048 -0.9758  0.8060 -0.2152
14543TIP3   OH265043   2.853   4.998   0.288 -0.0400 -0.4904 -0.0488
14543TIP3    H165044   2.771   4.960   0.255 -0.3738 -0.8887  1.1997
14543TIP3    H265045   2.912   4.923   0.298  0.5220 -0.1927 -1.0312
14544TIP3   OH265046   2.298   6.279   1.412  0.2781  0.6511 -0.0134
14544TIP3    H165047   2.373   6.264   1.470  0.1964 -1.0888 -0.3222
14544TIP3    H265048   2.267   6.192   1.389 -1.3329  1.3343 -0.5783
14545TIP3   OH265049   1.734   2.798  11.806 -0.4656 -0.6196  0.2025
14545TIP3    H165050   1.642   2.824  11.798 -0.8307 -2.0744 -0.5828
14545TIP3    H265051   1.779   2.878  11.834 -2.0579 -0.0430  1.2380
14546TIP3   OH265052   5.168   5.494  12.166 -0.1720  0.1913 -0.1492
14546TIP3    H165053   5.116   5.414  12.173 -1.0283  0.8089  0.9139
14546TIP3    H265054   5.247   5.475  12.216  1.0825 -1.0403 -2.4376
14547TIP3   OH265055   5.176   3.703  14.213  0.3837 -0.0504 -0.2619
14547TIP3    H165056   5.214   3.616  14.225 -0.2509 -0.8567 -3.2802
14547TIP3    H265057   5.105   3.689  14.150 -1.1713  2.3477  0.8074
14548TIP3   OH265058   1.541   2.808   6.563  0.0534 -0.8087  0.1795
14548TIP3    H165059   1.625   2.763   6.551 -0.3025 -1.4774  0.1504
14548TIP3    H265060   1.537   2.828   6.656 -0.7605 -2.8468  0.6420
14549TIP3   OH265061   1.418   3.186  16.834 -0.4707 -0.1158  0.8610
14549TIP3    H165062   1.506   3.183  16.873 -1.4298 -0.8958  3.1533
14549TIP3    H265063   1.405   3.279  16.815  1.0647 -0.0638 -0.1090
14550TIP3   OH265064   6.526   3.103   0.259 -0.0383  0.0426  0.3603
14550TIP3    H165065   6.512   3.156   0.337  1.7618  1.5389 -0.2777
14550TIP3    H265066   6.621   3.100   0.249 -0.1958 -1.2244 -1.0499
14551TIP3   OH265067   5.957   1.987  14.753 -0.5103  0.2477  0.5976
14551TIP3    H165068   5.939   2.058  14.815 -1.0228  0.3858  0.2928
14551TIP3    H265069   5.994   2.030  14.676 -1.5906  0.2965  0.0793
14552TIP3   OH265070   1.920   0.862  14.126 -0.8337  0.3678 -0.1341
14552TIP3    H165071   1.991   0.821  14.076 -1.0475 -0.5301  0.2775
14552TIP3    H265072   1.927   0.823  14.213 -1.2284  1.0068  0.1873
14553TIP3   OH265073   4.874   1.752   2.248  0.4783 -0.5070 -0.2854
14553TIP3    H165074   4.875   1.845   2.271  0.1468 -0.5450 -0.1118
14553TIP3    H265075   4.950   1.715   2.293 -0.7280 -0.7922  1.6635
14554TIP3   OH265076   4.749   4.301   3.095  0.4384  0.4814 -0.0425
14554TIP3    H165077   4.731   4.227   3.038 -0.8513 -0.5787  1.6353
14554TIP3    H265078   4.708   4.376   3.052 -0.8647 -0.3687 -0.3394
14555TIP3   OH265079   1.899   1.864   1.536  0.0802 -0.0582 -0.0806
14555TIP3    H165080   1.870   1.951   1.565 -1.9795 -0.3707 -1.0324
14555TIP3    H265081   1.834   1.838   1.471 -0.1310 -2.9056  1.1448
14556TIP3   OH265082   2.737   5.101  12.276 -0.4486  0.4502 -0.0424
14556TIP3    H165083   2.822   5.135  12.305  0.0237  0.8195 -1.7277
14556TIP3    H265084   2.757   5.014  12.240 -0.6682  0.7632 -0.9508
14557TIP3   OH265085   3.950   1.950  16.259  0.3862 -0.0618 -0.1130
14557TIP3    H165086   4.042   1.931  16.278  0.5900  0.9971  0.0414
14557TIP3    H265087   3.935   1.913  16.172  0.9643 -0.2328 -0.1468
14558TIP3   OH265088   6.556   2.959   2.615 -0.8652  0.7238 -0.5102
14558TIP3    H165089   6.612   2.911   2.554 -0.9051  1.0072 -0.7706
14558TIP3    H265090   6.510   3.023   2.561 -0.3184  1.5128 -0.0592
14559TIP3   OH265091   3.976   6.201   5.913 -0.6765 -0.2640 -0.4338
14559TIP3    H165092   3.900   6.144   5.920 -0.1556 -0.7578  2.6627
14559TIP3    H265093   3.957   6.274   5.971  0.8440  0.0443 -0.2769
14560TIP3   OH265094   0.929   0.804  10.818  0.4143 -0.0629 -0.2433
14560TIP3    H165095   1.024   0.814  10.820  0.3472  1.2929  3.4294
14560TIP3    H265096   0.913   0.716  10.852  0.3315  0.1715  0.3249
14561TIP3   OH265097   4.744   5.529   1.381 -0.1748  0.1376  0.6793
14561TIP3    H165098   4.689   5.462   1.340  0.1914  0.9629 -1.2612
14561TIP3    H265099   4.756   5.498   1.471 -0.6613 -1.9843  0.0679
14562TIP3   OH265100   4.550   0.664   5.518  0.0812 -0.2110 -0.1642
14562TIP3    H165101   4.612   0.619   5.575 -1.1460  0.6580  1.9922
14562TIP3    H265102   4.479   0.602   5.506 -0.2888  0.0889  0.4225
14563TIP3   OH265103   4.409   0.279  14.931  0.3023 -0.0687 -0.0645
14563TIP3    H165104   4.321   0.281  14.894  0.3509  0.9838 -0.1655
14563TIP3    H265105   4.440   0.190  14.915 -0.8014 -0.5172  0.1296
14564TIP3   OH265106   0.675   0.012  16.319 -0.1649 -0.0827  0.2039
14564TIP3    H165107   0.737  -0.033  16.261 -0.2725  0.8753 -0.6942
14564TIP3    H265108   0.660  -0.050  16.391  2.5600  0.0239  0.9779
14565TIP3   OH265109   1.304   6.550  14.282  0.6923  0.3263  0.0141
14565TIP3    H165110   1.320   6.644  14.283 -0.2762  0.5099 -0.4093
14565TIP3    H265111   1.358   6.515  14.353  0.1223  1.3621  0.9850
14566TIP3   OH265112   5.935   5.787  12.689 -0.5202 -0.0929  0.4149
14566TIP3    H165113   5.951   5.878  12.664  0.3984 -0.4854 -0.5062
14566TIP3    H265114   5.840   5.779  12.695 -0.5802  1.2475  1.7910
14567TIP3   OH265115   3.860   4.475  11.508 -0.5741  0.5207  0.1279
14567TIP3    H165116   3.784   4.493  11.563 -1.6772 -1.2090 -0.7461
14567TIP3    H265117   3.890   4.388  11.536  2.4518  1.9727  1.9117
14568TIP3   OH265118   5.407   4.862  12.717  0.2882 -0.1324 -0.2043
14568TIP3    H165119   5.374   4.781  12.678 -0.6286  0.6056 -1.0220
14568TIP3    H265120   5.497   4.869  12.686  0.3557 -0.7970 -0.1755
14569TIP3   OH265121   4.376   1.771   6.154  0.3161 -0.0888  0.4095
14569TIP3    H165122   4.404   1.765   6.063 -0.4397  1.3322  0.0488
14569TIP3    H265123   4.353   1.863   6.166 -2.8360 -0.8343  1.0215
14570TIP3   OH265124   1.761   2.339  15.636  0.2936  0.2233  0.3487
14570TIP3    H165125   1.747   2.273  15.568 -0.0516  0.2072  0.4309
14570TIP3    H265126   1.704   2.311  15.708 -0.8862  1.3086 -0.1081
14571TIP3   OH265127   0.681   3.463  11.477  0.4524 -0.1414  0.4155
14571TIP3    H165128   0.700   3.550  11.512 -0.9427  0.0927  0.6440
14571TIP3    H265129   0.766   3.431  11.446  1.2393  0.7321  1.5789
14572TIP3   OH265130   4.565   4.509  16.365  0.5122 -0.0323 -0.1444
14572TIP3    H165131   4.490   4.567  16.371 -0.3331 -1.0481 -0.5117
14572TIP3    H265132   4.641   4.566  16.371 -0.2766  1.1973 -1.3086
14573TIP3   OH265133   6.337   3.075   5.448  0.1146  0.3662 -0.1518
14573TIP3    H165134   6.317   3.168   5.447  1.5436  0.6937 -0.6926
14573TIP3    H265135   6.386   3.062   5.530 -0.1514  0.0778 -0.0379
14574TIP3   OH265136   2.379   0.374  16.673  0.4475  0.7721  0.4181
14574TIP3    H165137   2.433   0.429  16.729 -1.4797  2.4379  0.7558
14574TIP3    H265138   2.340   0.435  16.610  0.0349 -0.5785 -0.6893
14575TIP3   OH265139   5.567   0.174  14.957 -0.1473  0.1206  0.0998
14575TIP3    H165140   5.662   0.165  14.957 -0.2219 -1.8987 -2.2756
14575TIP3    H265141   5.550   0.252  15.010  2.7860  0.4265  0.7708
14576TIP3   OH265142   6.322   0.806   0.674  0.4335  0.1617 -0.4804
14576TIP3    H165143   6.320   0.710   0.676  0.6711  0.1569  1.2297
14576TIP3    H265144   6.230   0.832   0.680  0.4502  0.0161  0.6269
14577TIP3   OH265145   0.890   2.321  13.081 -0.8404 -0.4627  0.0333
14577TIP3    H165146   0.809   2.364  13.054 -0.7003  0.3646  0.8624
14577TIP3    H265147   0.917   2.369  13.159 -1.0309 -2.5117  1.4239
14578TIP3   OH265148   3.778   2.227   0.668 -1.1227 -0.0526 -0.4299
14578TIP3    H165149   3.707   2.289   0.654 -0.9635  0.7278  1.8362
14578TIP3    H265150   3.853   2.282   0.691 -0.3565 -0.9811 -0.6493
14579TIP3   OH265151   1.453   6.325   5.051 -0.0411 -0.2450 -0.1738
14579TIP3    H165152   1.498   6.323   4.966 -1.0061 -1.7421 -0.6877
14579TIP3    H265153   1.363   6.299   5.031 -0.3604 -0.3222  1.2754
14580TIP3   OH265154   5.368   6.262   4.001 -0.6367 -0.4013 -0.3052
14580TIP3    H165155   5.331   6.323   3.937 -0.2937 -1.5192 -1.6219
14580TIP3    H265156   5.309   6.268   4.076  0.4271  2.9420  0.4537
14581TIP3   OH265157   0.090   1.760  14.617  0.9107  0.2190 -0.5974
14581TIP3    H165158   0.086   1.703  14.693  0.6926 -0.7033 -1.2834
14581TIP3    H265159   0.121   1.844  14.651  1.1583 -0.2836  0.4400
14582TIP3   OH265160   1.717   3.550  13.336  0.0920 -0.0851  0.3620
14582TIP3    H165161   1.733   3.585  13.248  0.1286 -1.0325 -0.0264
14582TIP3    H265162   1.736   3.622  13.395 -2.2205  1.3730 -0.5033
14583TIP3   OH265163   3.169   6.573  11.985 -0.3101 -0.1083 -0.0714
14583TIP3    H165164   3.185   6.649  12.041 -1.6907 -1.0308  1.6935
14583TIP3    H265165   3.256   6.533  11.974  0.2627  1.1060 -0.1169
14584TIP3   OH265166   3.767   0.926  11.402  0.0605 -0.4788 -0.5463
14584TIP3    H165167   3.743   0.920  11.310  2.0252 -0.6863 -1.0687
14584TIP3    H265168   3.735   0.844  11.441  2.0778 -1.9318 -1.7670
14585TIP3   OH265169   0.620   2.414   5.488 -0.0968 -0.1465  0.1507
14585TIP3    H165170   0.688   2.471   5.453 -0.9634 -0.0430 -1.4437
14585TIP3    H265171   0.654   2.385   5.573  2.2111 -0.6221 -0.8657
14586TIP3   OH265172   3.344   6.214   3.451 -0.1956  0.0527 -0.0641
14586TIP3    H165173   3.303   6.178   3.530  0.4039 -2.5013 -0.8243
14586TIP3    H265174   3.315   6.156   3.380  1.1624  0.8487 -1.3412
14587TIP3   OH265175   4.957   6.156  10.642 -0.0059  0.0561 -0.1185
14587TIP3    H165176   4.902   6.184  10.715  0.9612  1.0802  0.2372
14587TIP3    H265177   5.009   6.083  10.678 -0.7822 -0.6116 -0.3226
14588TIP3   OH265178   1.566   3.435   6.208  0.3343  0.0287  0.0068
14588TIP3    H165179   1.544   3.466   6.120  1.7650 -1.6385 -1.0169
14588TIP3    H265180   1.659   3.455   6.218 -0.3899  2.9262  2.4362
14589TIP3   OH265181   1.691   6.514  15.134  0.7116 -0.3393 -0.2644
14589TIP3    H165182   1.785   6.499  15.129  0.8340  0.6156 -1.0485
14589TIP3    H265183   1.656   6.478  15.052  0.3907 -0.6975  0.0257
14590TIP3   OH265184   0.067   3.494  11.604  0.4827 -0.3158 -0.5910
14590TIP3    H165185   0.087   3.416  11.551  0.9017  0.4533 -1.5972
14590TIP3    H265186   0.067   3.462  11.694 -0.2327 -1.6578 -1.0368
14591TIP3   OH265187   2.468   1.983  12.467 -0.7217  0.0713 -0.1743
14591TIP3    H165188   2.519   1.904  12.484 -0.3303  0.7307  2.0251
14591TIP3    H265189   2.381   1.963  12.501 -0.3828  0.8534  1.2154
14592TIP3   OH265190   5.984   4.584  15.120 -0.9281  0.6777  0.2193
14592TIP3    H165191   6.030   4.634  15.052 -0.4185  1.5145  1.1507
14592TIP3    H265192   6.048   4.574  15.190 -0.9531 -1.4953 -0.0012
14593TIP3   OH265193   6.120   5.719  15.472  0.5055  0.6517 -0.4934
14593TIP3    H165194   6.191   5.702  15.534 -1.1973  0.0913  1.3952
14593TIP3    H265195   6.136   5.658  15.400  1.2682 -0.3052  0.4606
14594TIP3   OH265196   0.829   2.947   1.949 -0.2824  0.3561 -0.1422
14594TIP3    H165197   0.785   2.873   1.990 -0.1380  0.7781  0.8029
14594TIP3    H265198   0.794   2.950   1.860 -1.2301 -0.0722  0.2062
14595TIP3   OH265199   6.655   6.527  14.017 -0.1694 -0.1609  0.6385
14595TIP3    H165200   6.603   6.511  14.096 -0.5364  1.3134  0.7179
14595TIP3    H265201   6.718   6.594  14.043 -1.7247  2.0033 -0.8457
14596TIP3   OH265202   1.018   0.789   3.849  0.3398 -0.6956 -0.4909
14596TIP3    H165203   1.030   0.800   3.944  0.3218  2.1689 -0.7065
14596TIP3    H265204   1.103   0.813   3.811 -0.1960  0.0655 -1.2458
14597TIP3   OH265205   0.985   0.856  11.678  0.0384  0.2263  0.6747
14597TIP3    H165206   0.959   0.865  11.770  1.0810 -1.0049  1.1212
14597TIP3    H265207   1.042   0.779  11.677  2.0792  1.6694 -0.5792
14598TIP3   OH265208   0.432   0.108  15.185  0.3701 -0.2226 -0.3169
14598TIP3    H165209   0.361   0.163  15.219  1.2232  0.4255  0.4381
14598TIP3    H265210   0.402   0.083  15.097 -1.0285 -0.4090  0.1852
14599TIP3   OH265211   5.997   1.278  15.759 -0.0279 -0.0342  0.2307
14599TIP3    H165212   5.985   1.235  15.674  1.6821  0.2759 -0.1970
14599TIP3    H265213   5.926   1.242  15.814 -0.2344 -1.3977 -0.8681
14600TIP3   OH265214   6.500   4.813   2.845  0.3667 -0.6899 -0.1657
14600TIP3    H165215   6.455   4.898   2.841 -2.3136 -1.9127  1.2358
14600TIP3    H265216   6.498   4.781   2.755 -0.0287  0.0508 -0.4342
14601TIP3   OH265217   2.537   6.183   1.565  0.6087 -0.4001 -0.2455
14601TIP3    H165218   2.528   6.110   1.505  0.9131  0.2777 -1.1376
14601TIP3    H265219   2.630   6.208   1.560  0.0656  1.5536 -1.7929
14602TIP3   OH265220   2.985   2.421   0.161 -0.2307  0.6252 -0.7336
14602TIP3    H165221   3.007   2.391   0.073 -0.3080 -0.0479 -0.5294
14602TIP3    H265222   2.966   2.514   0.150  1.6731  1.0018 -1.0773
14603TIP3   OH265223   5.163   5.357  12.957  0.1957 -0.2003  0.2686
14603TIP3    H165224   5.210   5.389  12.880  0.1460 -1.5050 -0.3218
14603TIP3    H265225   5.075   5.394  12.948  0.3886  0.2261  0.0778
14604TIP3   OH265226   3.661   4.557   4.649 -0.3811  0.0138  0.2749
14604TIP3    H165227   3.577   4.535   4.609 -1.2085  0.5628  1.6250
14604TIP3    H265228   3.726   4.529   4.586 -1.5813 -0.5170 -0.7662
14605TIP3   OH265229   0.358   6.486   0.650  0.4374 -0.2010 -0.4637
14605TIP3    H165230   0.420   6.556   0.671  0.6366 -0.4061 -0.3617
14605TIP3    H265231   0.381   6.414   0.709 -0.1961 -0.1148 -0.1136
14606TIP3   OH265232   0.422   0.947   5.647  0.3493 -0.4054  0.2175
14606TIP3    H165233   0.394   0.858   5.630  1.6192 -1.1563  1.8012
14606TIP3    H265234   0.347   0.988   5.692 -0.8689 -0.1016 -1.9596
14607TIP3   OH265235   4.935   6.086  14.704  0.3981 -0.4900  0.6032
14607TIP3    H165236   4.957   6.014  14.645  0.1400  1.0121 -1.4218
14607TIP3    H265237   4.856   6.058  14.748 -0.0496 -1.2175 -0.6154
14608TIP3   OH265238   5.824   3.110   0.557  0.3706  0.4870  0.8736
14608TIP3    H165239   5.818   3.197   0.517 -0.5063 -0.0833 -0.2786
14608TIP3    H265240   5.739   3.096   0.599  0.5377  0.2125  1.1293
14609TIP3   OH265241   4.166   0.494  17.182 -0.5013  0.0465 -0.0988
14609TIP3    H165242   4.073   0.480  17.168 -0.5010  1.7167 -2.5371
14609TIP3    H265243   4.209   0.438  17.117  0.2215 -0.7926  1.0769
14610TIP3   OH265244   4.229   3.160  17.449 -0.0282 -0.7705 -0.3756
14610TIP3    H165245   4.251   3.226  17.514 -0.8253 -0.0907 -0.7816
14610TIP3    H265246   4.188   3.208  17.377  1.8968 -1.3220 -1.9538
14611TIP3   OH265247   1.111   3.402   2.070 -0.0587  0.5709 -0.1493
14611TIP3    H165248   1.086   3.473   2.130 -0.2001  0.5546 -0.1878
14611TIP3    H265249   1.146   3.334   2.128 -0.8708  0.2625 -0.0103
14612TIP3   OH265250   0.585   1.482   6.127 -0.3379  0.0695  0.2437
14612TIP3    H165251   0.541   1.441   6.201  1.4819 -0.4853  1.0914
14612TIP3    H265252   0.608   1.569   6.158  1.2282 -0.4682  0.7462
14613TIP3   OH265253   1.696   0.392  12.035  0.1213 -0.0252  0.0532
14613TIP3    H165254   1.634   0.425  11.970  0.4075 -1.4017 -0.9491
14613TIP3    H265255   1.732   0.472  12.076 -0.9360  0.8266 -0.6266
14614TIP3   OH265256   5.870   4.499   1.243 -0.0968 -0.7539 -0.3606
14614TIP3    H165257   5.796   4.439   1.245  0.6813 -1.7757 -1.0589
14614TIP3    H265258   5.875   4.529   1.152  0.1727 -0.4699 -0.2558
14615TIP3   OH265259   3.147   0.894   3.468  0.2894 -0.3226 -0.4494
14615TIP3    H165260   3.211   0.899   3.540 -1.4476 -0.8407  1.2112
14615TIP3    H265261   3.110   0.806   3.475 -0.5067 -0.0838 -1.4564
14616TIP3   OH265262   3.529   5.998   3.050  0.1070  0.5800  0.2090
14616TIP3    H165263   3.437   5.978   3.069  0.4943 -0.5480  0.9979
14616TIP3    H265264   3.542   5.967   2.960  0.0622 -0.5666  0.5761
14617TIP3   OH265265   6.373   1.826   2.270  0.1264 -0.1451  0.7539
14617TIP3    H165266   6.293   1.878   2.268  0.2048 -0.0307  0.2091
14617TIP3    H265267   6.353   1.752   2.328 -0.5125 -0.3374  0.3064
14618TIP3   OH265268   1.127   5.112   0.998 -0.2128 -0.0290 -0.1580
14618TIP3    H165269   1.051   5.152   0.956  0.6525  2.4486  0.4017
14618TIP3    H265270   1.194   5.182   0.997  1.3107 -1.3717  1.2958
14619TIP3   OH265271   0.057   3.832   5.478 -0.3240  0.0607  0.0269
14619TIP3    H165272   0.125   3.894   5.502 -1.1967  0.2355  2.2634
14619TIP3    H265273   0.029   3.793   5.560 -0.9589 -2.1162 -1.1354
14620TIP3   OH265274   2.071   1.053   1.871  0.3450 -0.3682  0.3414
14620TIP3    H165275   2.037   1.103   1.945  1.1392  0.4363  0.1817
14620TIP3    H265276   2.116   1.118   1.817  1.7842 -1.3146  0.3427
14621TIP3   OH265277   5.218   5.284   2.897  0.2409 -0.0952 -0.0170
14621TIP3    H165278   5.198   5.377   2.906  0.9406  0.0088  0.5608
14621TIP3    H265279   5.159   5.253   2.829 -0.1421  0.7275 -0.0677
14622TIP3   OH265280   6.014   0.875   6.403  0.7437  0.3361 -0.2287
14622TIP3    H165281   6.077   0.903   6.336 -0.2031 -1.1070 -1.8050
14622TIP3    H265282   5.932   0.915   6.376  0.5242  0.5065  0.6506
14623TIP3   OH265283   2.528   1.834  13.592  0.5444 -0.0250 -0.5000
14623TIP3    H165284   2.578   1.753  13.598 -0.2997 -0.5151  0.1066
14623TIP3    H265285   2.519   1.864  13.683  0.6870  0.6453 -0.7011
14624TIP3   OH265286   5.309   0.560  12.374 -0.1532  0.1038  0.2589
14624TIP3    H165287   5.258   0.537  12.296 -0.8027  0.8103  0.4693
14624TIP3    H265288   5.375   0.491  12.380  0.8448  0.8129 -1.7570
14625TIP3   OH265289   4.585   6.639  12.227  0.3847  0.3143  0.4665
14625TIP3    H165290   4.597   6.625  12.321  0.8828 -1.8051  0.1374
14625TIP3    H265291   4.496   6.610  12.210  0.6484 -0.3196  0.1326
14626TIP3   OH265292   6.628   5.088  12.333 -0.1286  0.3404 -0.0509
14626TIP3    H165293   6.627   4.992  12.329  0.2613  0.2929  0.7911
14626TIP3    H265294   6.558   5.114  12.273 -0.3619 -0.4761 -0.1586
14627TIP3   OH265295   5.714   1.700   1.532  0.1833  0.0463  0.1128
14627TIP3    H165296   5.783   1.753   1.494  0.0893 -0.2991 -0.5744
14627TIP3    H265297   5.634   1.732   1.490 -0.1136  0.6406  1.1188
14628TIP3   OH265298   5.868   1.275   1.540  1.3775  0.1434  0.7245
14628TIP3    H165299   5.854   1.200   1.481 -0.3944 -0.0435  1.3177
14628TIP3    H265300   5.943   1.250   1.593  1.9745 -0.3971 -0.3352
14629TIP3   OH265301   3.348   5.966  10.696 -0.5005  0.3901 -0.0283
14629TIP3    H165302   3.344   5.872  10.711 -1.3246  0.2526 -0.9706
14629TIP3    H265303   3.257   5.992  10.680 -0.6448  1.7921  2.5866
14630TIP3   OH265304   3.100   1.497   5.451 -0.2100  0.9200 -0.2416
14630TIP3    H165305   3.087   1.524   5.541  0.4176  0.0455  0.1242
14630TIP3    H265306   3.038   1.426   5.437 -0.5037  1.2359 -0.6015
14631TIP3   OH265307   1.167   2.764   3.547  0.3045 -0.5029 -0.4727
14631TIP3    H165308   1.090   2.815   3.572  0.8873 -0.0023  0.3314
14631TIP3    H265309   1.230   2.829   3.518  1.5424 -0.5827  1.8212
14632TIP3   OH265310   0.369   3.487   0.288 -0.1716 -0.9284  0.2766
14632TIP3    H165311   0.296   3.426   0.301 -1.0922 -0.3863 -1.9137
14632TIP3    H265312   0.338   3.570   0.324 -1.0137 -0.4927 -1.3724
14633TIP3   OH265313   4.293   6.544  14.444 -0.4713  0.5672  0.5024
14633TIP3    H165314   4.208   6.589  14.442 -0.5367  0.4761  1.0450
14633TIP3    H265315   4.273   6.454  14.420 -0.4142  0.7113 -0.1006
14634TIP3   OH265316   2.494   1.099   4.674  0.7980  0.2011  0.1490
14634TIP3    H165317   2.445   1.179   4.693 -0.4036 -0.6779  0.9291
14634TIP3    H265318   2.522   1.067   4.759  0.4829 -0.6772 -0.0629
14635TIP3   OH265319   6.088   3.613  16.489  0.0142  0.1663  0.2900
14635TIP3    H165320   6.092   3.590  16.396  2.4233 -1.3101  0.6630
14635TIP3    H265321   6.060   3.532  16.532  2.1470 -0.2165  1.0761
14636TIP3   OH265322   2.662   6.138  12.940  0.0846 -1.2622  1.0265
14636TIP3    H165323   2.650   6.200  12.867 -2.4098 -0.7903  1.7557
14636TIP3    H265324   2.749   6.159  12.974 -0.9253  2.5458  1.7859
14637TIP3   OH265325   2.545   4.179   0.779  0.2915 -0.5892  0.1716
14637TIP3    H165326   2.639   4.189   0.794  0.0473  0.6258  1.0503
14637TIP3    H265327   2.516   4.120   0.848  0.1739  0.2133  0.8194
14638TIP3   OH265328   6.654   3.857   3.426 -0.0141 -0.0315 -0.0332
14638TIP3    H165329   6.647   3.896   3.338  1.4889 -0.2965 -0.2928
14638TIP3    H265330   6.581   3.796   3.430  0.8266 -1.2323 -1.7527
14639TIP3   OH265331   5.602   2.736  11.002  0.3543 -0.3291  0.6932
14639TIP3    H165332   5.524   2.751  10.949  1.5610 -0.3571 -1.1827
14639TIP3    H265333   5.651   2.819  10.998  0.7388 -0.5118  1.3292
14640TIP3   OH265334   3.283   5.161   4.216  0.0207 -0.4409 -0.1706
14640TIP3    H165335   3.250   5.238   4.169  0.6675 -0.3289 -0.4547
14640TIP3    H265336   3.310   5.194   4.301  1.3049 -0.1291 -0.6741
14641TIP3   OH265337   5.476   3.945   1.413  0.4772  0.2844 -0.7022
14641TIP3    H165338   5.383   3.927   1.399  0.5098 -1.0130  0.4969
14641TIP3    H265339   5.478   3.999   1.492  0.7206  0.4663 -0.8343
14642TIP3   OH265340   4.924   6.493  12.089 -0.4178  0.5660 -0.0717
14642TIP3    H165341   4.999   6.520  12.143 -0.9960 -0.2350  1.1920
14642TIP3    H265342   4.865   6.448  12.151 -0.9412 -0.7324 -1.4514
14643TIP3   OH265343   5.054   1.269   6.054 -0.3136  0.0677 -0.4086
14643TIP3    H165344   5.040   1.363   6.065  0.1055  0.2610 -1.4454
14643TIP3    H265345   5.111   1.262   5.978 -0.8163 -1.0606 -0.7005
14644TIP3   OH265346   4.594   0.978   4.690  0.2806 -0.2272  0.0037
14644TIP3    H165347   4.517   0.980   4.633 -1.1943 -1.9641  1.7863
14644TIP3    H265348   4.618   1.070   4.702 -1.4922  0.3615 -0.6512
14645TIP3   OH265349   0.934   2.094  12.581  0.0404 -0.3249  0.0769
14645TIP3    H165350   1.009   2.129  12.628  0.6417 -1.3445 -0.1063
14645TIP3    H265351   0.860   2.148  12.611  1.1200  2.0308 -1.2524
14646TIP3   OH265352   3.547   1.120  12.005 -0.6461  0.0795  1.0034
14646TIP3    H165353   3.516   1.202  11.965  0.7299  0.4819  0.7147
14646TIP3    H265354   3.494   1.110  12.083 -2.2375  0.1708 -0.0203
14647TIP3   OH265355   5.343   2.791   5.072  0.0957 -0.0467  0.3683
14647TIP3    H165356   5.294   2.713   5.099  1.1293 -0.0361  2.4083
14647TIP3    H265357   5.432   2.760   5.058  0.4890  0.7366  1.0741
14648TIP3   OH265358   6.380   0.095  15.298 -0.6295  0.6012 -0.9140
14648TIP3    H165359   6.424   0.174  15.267 -1.1393  0.3816 -2.2751
14648TIP3    H265360   6.326   0.124  15.371  0.2917  1.2224 -0.4548
14649TIP3   OH265361   5.266   3.054  12.559  0.2904  0.4126 -0.3399
14649TIP3    H165362   5.201   3.040  12.490 -1.4766  2.7391  0.7276
14649TIP3    H265363   5.232   3.004  12.634 -0.3098  1.6291  0.2181
14650TIP3   OH265364   6.636   4.412  15.174 -0.2197 -0.7544  0.3357
14650TIP3    H165365   6.634   4.508  15.173 -2.1804 -0.7597 -0.0857
14650TIP3    H265366   6.614   4.388  15.263 -0.6744 -0.8111  0.2097
14651TIP3   OH265367   4.314   3.563  16.138  0.0612 -0.5127 -0.1903
14651TIP3    H165368   4.400   3.565  16.097  0.4506  0.1553  0.6509
14651TIP3    H265369   4.331   3.562  16.232 -0.8454 -0.2411 -0.0113
14652TIP3   OH265370   1.397   3.042   2.409 -0.2189 -0.1829 -0.4932
14652TIP3    H165371   1.342   2.974   2.446  0.8418 -0.7919 -0.0089
14652TIP3    H265372   1.449   3.074   2.482  0.0383  0.4263 -0.9296
14653TIP3   OH265373   3.208   1.220   2.665  0.2171  0.0352  0.0403
14653TIP3    H165374   3.195   1.280   2.739  0.4156 -1.7247  1.5633
14653TIP3    H265375   3.120   1.211   2.627  0.1264  1.0162 -0.0184
14654TIP3   OH265376   4.498   5.443  11.833  0.0414 -0.1845 -0.5541
14654TIP3    H165377   4.411   5.468  11.802 -0.5788 -1.6069 -0.0330
14654TIP3    H265378   4.486   5.426  11.926  0.7783 -0.8732 -0.5799
14655TIP3   OH265379   5.290   4.858   1.654  0.1009  0.3544 -0.6254
14655TIP3    H165380   5.219   4.821   1.601  1.1090 -0.4758 -1.4408
14655TIP3    H265381   5.302   4.947   1.619  0.1332  0.1406 -1.1739
14656TIP3   OH265382   1.671   5.505  13.369  0.2023  0.3352 -0.2029
14656TIP3    H165383   1.580   5.536  13.368 -0.3466 -0.9939  1.6448
14656TIP3    H265384   1.722   5.581  13.397 -0.5011  0.7896 -0.1287
14657TIP3   OH265385   1.440   6.265   5.322  0.1209 -0.1370 -0.4698
14657TIP3    H165386   1.415   6.276   5.231 -2.1442 -0.9912 -0.0092
14657TIP3    H265387   1.382   6.325   5.370  2.4912  1.6822  0.3487
14658TIP3   OH265388   4.224   3.311   0.181  0.1062  0.0767  0.3148
14658TIP3    H165389   4.151   3.264   0.221 -0.2739  1.3284  1.1558
14658TIP3    H265390   4.288   3.322   0.252  0.4640  0.2762 -0.0323
14659TIP3   OH265391   6.578   4.198   3.046  0.6197 -0.1548  0.0345
14659TIP3    H165392   6.546   4.285   3.023  0.7294 -0.6850 -2.3991
14659TIP3    H265393   6.538   4.140   2.982 -0.5070 -2.1620  2.3686
14660TIP3   OH265394   2.567   5.541   5.739  0.3467 -0.2655  0.6542
14660TIP3    H165395   2.556   5.446   5.748  0.1539 -0.2281  0.8211
14660TIP3    H265396   2.480   5.577   5.754  0.3220 -0.0942  0.1108
14661TIP3   OH265397   5.170   3.991  14.139  0.2363 -0.0804 -0.4468
14661TIP3    H165398   5.153   3.897  14.142 -1.5155  0.1921 -1.0490
14661TIP3    H265399   5.224   4.008  14.216 -1.2622 -1.2465  0.9256
14662TIP3   OH265400   1.970   3.707  13.582  0.3225  0.4032 -0.9967
14662TIP3    H165401   2.018   3.765  13.641 -0.7072  0.6223 -0.3422
14662TIP3    H265402   1.888   3.689  13.629  0.2672 -0.8914 -1.5716
14663TIP3   OH265403   2.843   5.563   0.828  0.0995  0.2201 -0.1982
14663TIP3    H165404   2.860   5.604   0.743 -0.7655  0.5028 -0.2494
14663TIP3    H265405   2.807   5.634   0.882  0.3521 -0.0307  0.3077
14664TIP3   OH265406   4.464   4.478  11.022  0.1378 -0.0674  0.4275
14664TIP3    H165407   4.392   4.528  11.061  2.1953  2.5312  1.2475
14664TIP3    H265408   4.495   4.534  10.951  2.2655 -0.3245  1.0834
14665TIP3   OH265409   3.065   6.362   0.760 -0.3838  0.1806  0.0590
14665TIP3    H165410   2.985   6.312   0.741 -0.2644 -0.0265  0.0992
14665TIP3    H265411   3.054   6.391   0.850  0.2351 -1.0895  0.5663
14666TIP3   OH265412   0.841   3.552   3.604 -0.0649  0.5834  0.0396
14666TIP3    H165413   0.928   3.582   3.577  0.6125 -1.2408  0.0615
14666TIP3    H265414   0.808   3.504   3.528 -0.8116  0.7433  0.2559
14667TIP3   OH265415   1.780   2.901  16.467 -0.2593 -0.4404 -0.2944
14667TIP3    H165416   1.765   2.824  16.523  1.3449 -0.5946 -0.0453
14667TIP3    H265417   1.778   2.866  16.378 -0.7245 -0.5558 -0.2441
14668TIP3   OH265418   6.526   1.418  17.484  0.5004 -0.0917  0.2338
14668TIP3    H165419   6.551   1.489  17.424 -0.7252  0.9629  0.9033
14668TIP3    H265420   6.596   1.416  17.549 -0.0397  1.4143  0.9225
14669TIP3   OH265421   3.364   5.357  15.406 -0.1291 -0.2221 -0.3603
14669TIP3    H165422   3.361   5.340  15.312 -0.0213 -0.3753 -0.3360
14669TIP3    H265423   3.332   5.277  15.446 -0.0294 -0.2124 -0.2608
14670TIP3   OH265424   6.476   5.310  14.269 -0.1329 -0.3450 -0.3464
14670TIP3    H165425   6.448   5.325  14.359  0.5165 -0.9564 -0.0338
14670TIP3    H265426   6.406   5.348  14.215 -0.4927  0.0785  0.4109
14671TIP3   OH265427   0.511   1.622  12.855 -0.1757  0.2228  0.2817
14671TIP3    H165428   0.575   1.690  12.836 -0.9937  0.6805 -0.9459
14671TIP3    H265429   0.467   1.653  12.934 -0.2420  0.9024 -0.0140
14672TIP3   OH265430   4.321   4.736   3.200  0.1855  0.0492 -0.2328
14672TIP3    H165431   4.381   4.752   3.127  1.9709  0.5871  1.2858
14672TIP3    H265432   4.292   4.823   3.227  0.5375 -0.0439  0.4827
14673TIP3   OH265433   3.622   1.453  13.172 -0.2596 -0.1384  0.7587
14673TIP3    H165434   3.642   1.491  13.086 -2.0690  1.3235  0.9400
14673TIP3    H265435   3.674   1.373  13.175  1.6814  0.9931 -0.7097
14674TIP3   OH265436   0.046   2.316  15.583  0.1812 -0.0648  0.6911
14674TIP3    H165437   0.079   2.372  15.652  0.1870  0.6857  0.0907
14674TIP3    H265438  -0.018   2.259  15.626 -0.0230  0.5896  1.2527
14675TIP3   OH265439   1.338   5.054   3.093  0.3841  0.1861 -0.3313
14675TIP3    H165440   1.299   4.982   3.043  0.3989 -2.5117  3.1378
14675TIP3    H265441   1.428   5.059   3.060 -0.2644  0.2821 -2.2322
14676TIP3   OH265442   4.237   4.599  11.145 -0.1477 -0.1745  0.2956
14676TIP3    H165443   4.184   4.520  11.152 -1.8596  0.9473  0.8425
14676TIP3    H265444   4.220   4.632  11.057 -0.7844  0.4369  0.6308
14677TIP3   OH265445   5.810   6.726  16.835 -0.0442 -0.0657 -0.0370
14677TIP3    H165446   5.723   6.752  16.804  0.2383  1.2288  0.2166
14677TIP3    H265447   5.871   6.782  16.787  0.4766  1.0831  1.8775
14678TIP3   OH265448   0.390   4.112   3.575 -0.3328 -0.7130 -0.1007
14678TIP3    H165449   0.329   4.149   3.511  0.5841 -0.2234 -0.7117
14678TIP3    H265450   0.396   4.179   3.643  1.1473  0.2296 -1.0936
14679TIP3   OH265451   2.798   3.750  16.998  0.4792 -0.3169 -0.2000
14679TIP3    H165452   2.830   3.823  17.051  1.3944 -1.1140  0.3936
14679TIP3    H265453   2.815   3.776  16.908 -0.6496  0.8539 -0.1043
14680TIP3   OH265454   5.822   6.599   0.504 -0.6062 -0.0695 -0.2403
14680TIP3    H165455   5.855   6.549   0.430  1.6050 -0.0874  0.6901
14680TIP3    H265456   5.853   6.688   0.488  0.1751 -0.1408  0.8133
14681TIP3   OH265457   5.325   6.739   2.203  0.1915  0.1518 -0.1280
14681TIP3    H165458   5.300   6.796   2.275 -1.3845 -0.9470  0.2518
14681TIP3    H265459   5.249   6.682   2.190  0.9079 -0.4818 -1.8571
14682TIP3   OH265460   3.564   6.241  15.404  0.4975 -0.0094 -0.1366
14682TIP3    H165461   3.656   6.253  15.381  0.4692  0.3520 -0.0638
14682TIP3    H265462   3.548   6.148  15.387  1.4416 -0.6021  1.8279
14683TIP3   OH265463   2.550   4.160   4.308  0.2260 -0.4359 -0.4905
14683TIP3    H165464   2.621   4.105   4.276  0.8701  0.1368 -0.0746
14683TIP3    H265465   2.594   4.231   4.354 -0.6127  0.1198 -0.5327
14684TIP3   OH265466   2.517   1.124  13.458 -0.2041  0.4917 -0.3171
14684TIP3    H165467   2.521   1.029  13.465 -0.8852  0.4974  0.3144
14684TIP3    H265468   2.564   1.156  13.534  0.8342  0.6787 -1.0251
14685TIP3   OH265469   4.971   3.009  16.686 -0.5188  0.2927 -0.1904
14685TIP3    H165470   5.041   2.999  16.750 -1.2358  1.0226  0.7270
14685TIP3    H265471   4.998   3.083  16.632 -0.6122  0.6047  0.1919
14686TIP3   OH265472   5.006   5.214   4.878  0.1669 -0.3508  0.4230
14686TIP3    H165473   5.017   5.140   4.819 -1.2083 -0.3757  0.1665
14686TIP3    H265474   5.087   5.263   4.870  0.6484 -1.2328 -0.2472
14687TIP3   OH265475   3.392   4.547  14.150  0.6792  0.5604  1.3039
14687TIP3    H165476   3.372   4.497  14.071 -0.4214  1.6481  0.8615
14687TIP3    H265477   3.398   4.482  14.220 -0.1053 -0.2401  0.6368
14688TIP3   OH265478   4.024   2.757   3.855 -0.0270  0.1419 -0.0579
14688TIP3    H165479   4.119   2.758   3.863 -0.0644 -0.6012  0.6654
14688TIP3    H265480   4.003   2.835   3.804  0.9586  0.3691 -0.1374
14689TIP3   OH265481   0.471   2.156   2.960 -0.2973  0.0483 -0.1483
14689TIP3    H165482   0.421   2.140   3.040  0.5795 -1.1132  0.1915
14689TIP3    H265483   0.563   2.159   2.989 -0.0414  0.6034 -0.9736
14690TIP3   OH265484   3.371   5.583   1.196  0.4841 -0.3789 -0.0905
14690TIP3    H165485   3.315   5.576   1.119  0.3566  0.7502 -0.1179
14690TIP3    H265486   3.405   5.494   1.209 -0.9836 -1.0024 -0.3124
14691TIP3   OH265487   1.313   2.513  10.848  0.7523 -0.2126  0.4991
14691TIP3    H165488   1.351   2.450  10.910 -0.2175 -0.1739  1.1474
14691TIP3    H265489   1.245   2.463  10.803  1.9245 -0.4555 -1.0903
14692TIP3   OH265490   4.871   6.500  11.124 -0.2385  0.1026  0.2936
14692TIP3    H165491   4.782   6.468  11.140 -0.0080 -0.3012  0.7981
14692TIP3    H265492   4.860   6.594  11.111 -0.9436 -0.1965 -1.4560
14693TIP3   OH265493   5.514   0.351  12.938  0.1653 -0.4916 -0.6159
14693TIP3    H165494   5.472   0.423  12.984  2.0305  1.4682 -1.7798
14693TIP3    H265495   5.474   0.352  12.851  0.1536 -0.9145 -0.6183
14694TIP3   OH265496   5.747   0.709   4.269 -0.3682  0.0514  0.0953
14694TIP3    H165497   5.780   0.799   4.266 -0.4148  0.0817  0.4192
14694TIP3    H265498   5.653   0.718   4.282 -0.5002 -0.0377 -0.7837
14695TIP3   OH265499   5.250   0.341   5.308  0.7051  0.3691 -0.2112
14695TIP3    H165500   5.156   0.358   5.310  0.8035  1.0673 -0.9618
14695TIP3    H265501   5.284   0.384   5.386  0.3831  0.0299  0.1143
14696TIP3   OH265502   2.805   5.494  12.836 -0.0980  0.0178  0.2245
14696TIP3    H165503   2.750   5.421  12.809  1.0318  0.3002 -3.3255
14696TIP3    H265504   2.894   5.461  12.830  0.3529  1.1404  0.4270
14697TIP3   OH265505   0.121   1.593   1.547 -0.2549 -0.6035  0.5300
14697TIP3    H165506   0.036   1.634   1.530  0.4906  0.9468  0.3395
14697TIP3    H265507   0.144   1.621   1.636  0.4066 -0.3211  0.2802
14698TIP3   OH265508   1.712   1.984  14.952  0.1676  0.1524  0.4915
14698TIP3    H165509   1.657   1.906  14.947  0.7920 -0.2172 -3.1067
14698TIP3    H265510   1.660   2.053  14.910  1.4123  0.4145 -0.6972
14699TIP3   OH265511   4.809   1.514   5.724 -0.0032 -0.0197  0.3586
14699TIP3    H165512   4.796   1.543   5.634  2.5530 -2.3761 -0.9199
14699TIP3    H265513   4.766   1.429   5.729 -0.8149  0.4321  1.6642
14700TIP3   OH265514   2.267   4.186   2.943 -0.4692  0.1469 -0.0699
14700TIP3    H165515   2.189   4.131   2.945 -0.5027  0.1454  2.7000
14700TIP3    H265516   2.287   4.196   2.850 -2.8605 -1.0996 -0.8043
14701TIP3   OH265517   1.903   5.519  12.339  0.1400 -0.5050  0.2219
14701TIP3    H165518   1.956   5.599  12.336 -2.1319  1.2376  2.5225
14701TIP3    H265519   1.957   5.457  12.388  1.2505  0.1658 -0.1068
14702TIP3   OH265520   0.427   4.768  14.378 -0.4375  0.5210  0.0316
14702TIP3    H165521   0.483   4.715  14.320  0.9750  0.9392  0.9653
14702TIP3    H265522   0.340   4.730  14.368  0.2276 -0.9232 -0.5754
14703TIP3   OH265523   2.236   2.989   3.456 -0.1114  0.4416  0.0862
14703TIP3    H165524   2.176   2.926   3.416 -1.2592  2.1200 -1.0375
14703TIP3    H265525   2.201   3.003   3.544  0.8267 -1.2781  0.7700
14704TIP3   OH265526   3.413   3.242   0.249  0.1121 -0.6349  0.4954
14704TIP3    H165527   3.478   3.195   0.198 -0.8350  0.8332 -2.2282
14704TIP3    H265528   3.329   3.221   0.208 -0.6817  0.8423  1.2577
14705TIP3   OH265529   3.522   6.540   6.461 -0.5170 -0.0967  0.2226
14705TIP3    H165530   3.601   6.494   6.491 -1.2554 -0.9752  0.8772
14705TIP3    H265531   3.452   6.476   6.472 -1.4872  1.0062  0.6232
14706TIP3   OH265532   4.820   5.110  16.632 -0.5112  0.2073  0.2651
14706TIP3    H165533   4.742   5.075  16.589 -0.6316  1.5571 -0.6742
14706TIP3    H265534   4.893   5.075  16.581 -0.3525 -2.3331  2.0717
14707TIP3   OH265535   5.066   4.384  13.241  0.1120 -0.2280  0.4041
14707TIP3    H165536   5.053   4.454  13.178 -3.3631 -1.1619 -0.1297
14707TIP3    H265537   5.022   4.414  13.320 -0.6580 -1.3939  0.4483
14708TIP3   OH265538   6.348   2.603   4.152  0.1344  0.0845 -0.1420
14708TIP3    H165539   6.403   2.611   4.074  1.5199 -0.8099  0.6918
14708TIP3    H265540   6.270   2.653   4.132  0.9029  0.7118 -1.7127
14709TIP3   OH265541   6.094   3.888   5.201 -0.1580 -0.4935 -0.0500
14709TIP3    H165542   6.015   3.848   5.164 -0.7788  0.6931 -0.0610
14709TIP3    H265543   6.110   3.964   5.146  1.3863 -1.0646 -0.4325
14710TIP3   OH265544   5.314   1.731  15.170 -0.0452 -0.1529 -0.4447
14710TIP3    H165545   5.327   1.730  15.265 -1.2917  1.0162 -0.2313
14710TIP3    H265546   5.310   1.639  15.145  2.3026 -0.5376  0.2988
14711TIP3   OH265547   1.117   5.208   1.367 -0.4924  0.0523  0.0784
14711TIP3    H165548   1.192   5.150   1.381 -0.1703  0.6152  0.7710
14711TIP3    H265549   1.041   5.155   1.392 -0.4461 -0.8547 -1.5783
14712TIP3   OH265550   0.560   3.024   6.110  0.2136 -0.1527  0.0808
14712TIP3    H165551   0.545   2.934   6.136  2.4419 -0.4337  0.5662
14712TIP3    H265552   0.555   3.074   6.192 -1.4493  0.2839 -0.2403
14713TIP3   OH265553   5.704   1.929  16.740 -0.2971  0.1213  0.3700
14713TIP3    H165554   5.777   1.986  16.764 -0.2471  0.6264 -0.9237
14713TIP3    H265555   5.744   1.861  16.685 -0.4763 -0.7640  1.3010
14714TIP3   OH265556   5.948   5.464  16.323 -0.5459 -0.7380 -0.2804
14714TIP3    H165557   6.034   5.422  16.328 -0.2667 -0.0086  2.6447
14714TIP3    H265558   5.965   5.550  16.284  0.4137  0.0761  1.7958
14715TIP3   OH265559   5.720   6.428  11.405  0.4433 -0.0114  0.1647
14715TIP3    H165560   5.676   6.512  11.391 -0.3425 -0.3414  0.5662
14715TIP3    H265561   5.684   6.372  11.336  1.3885  0.1294 -0.4544
14716TIP3   OH265562   6.331   2.342   0.217 -0.7460  0.0179  0.1539
14716TIP3    H165563   6.396   2.282   0.254  0.4095  0.5047 -1.0191
14716TIP3    H265564   6.303   2.395   0.291  0.2032 -0.1957  0.6820
14717TIP3   OH265565   1.708   5.482  15.636 -0.6705  0.2214 -0.1455
14717TIP3    H165566   1.684   5.510  15.548  0.7636  0.6579 -0.4291
14717TIP3    H265567   1.749   5.396  15.623  1.3988  1.1587 -0.2149
14718TIP3   OH265568   5.992   6.580  14.060 -0.4840 -0.1814  0.0641
14718TIP3    H165569   5.905   6.592  14.021 -1.2195 -2.4566  0.8612
14718TIP3    H265570   6.044   6.541  13.989 -0.8048 -0.9758  0.2487
14719TIP3   OH265571   6.673   3.227  16.555 -0.5488  0.1806  0.2510
14719TIP3    H165572   6.733   3.163  16.517 -0.5116  0.3709 -0.0199
14719TIP3    H265573   6.662   3.293  16.486  0.3954  1.1163  0.9506
14720TIP3   OH265574   4.204   2.030   6.544 -0.2794 -0.1498 -0.1478
14720TIP3    H165575   4.267   1.964   6.518 -0.7909 -0.6882 -0.0423
14720TIP3    H265576   4.239   2.067   6.625  0.0972 -0.1658 -0.3038
14721TIP3   OH265577   5.821   2.408   5.446 -0.7495  0.2803 -0.3386
14721TIP3    H165578   5.758   2.377   5.510 -2.7497  2.7490 -0.9641
14721TIP3    H265579   5.806   2.502   5.441  2.2015  0.7892 -1.4271
14722TIP3   OH265580   3.115   5.939   1.962 -0.4673  0.0630 -0.3733
14722TIP3    H165581   3.031   5.936   1.916 -0.2124 -0.4991 -0.8264
14722TIP3    H265582   3.124   6.029   1.992 -0.7933  0.3635 -1.1603
14723TIP3   OH265583   3.247   6.724  15.581  0.6965  0.1512 -0.5749
14723TIP3    H165584   3.186   6.710  15.654  0.5653  2.0244 -0.2958
14723TIP3    H265585   3.206   6.680  15.507  0.9281 -1.9757  0.4651
14724TIP3   OH265586   4.605   5.272  12.962 -0.6398  0.1321 -0.3695
14724TIP3    H165587   4.634   5.255  12.873 -2.8925  0.6390 -1.2714
14724TIP3    H265588   4.542   5.203  12.981 -2.2099  1.5408 -0.2367
14725TIP3   OH265589   1.995   3.411  16.685  0.1477 -0.0744 -0.2837
14725TIP3    H165590   1.911   3.419  16.730 -0.4512 -1.8969 -0.9738
14725TIP3    H265591   2.056   3.383  16.753  0.2565  1.3411  0.2382
14726TIP3   OH265592   4.454   0.902   4.243  0.1515 -0.2607 -0.1449
14726TIP3    H165593   4.360   0.919   4.235  0.3134  1.1888  0.6085
14726TIP3    H265594   4.474   0.842   4.171 -1.1795  0.1317 -0.8845
14727TIP3   OH265595   0.411   2.364   1.548  0.0700 -0.0866  0.2558
14727TIP3    H165596   0.403   2.446   1.597  1.3568  0.3447 -0.2186
14727TIP3    H265597   0.497   2.330   1.572  2.0122  1.5162 -3.6605
14728TIP3   OH265598   4.515   2.516  11.706 -0.3395  0.2422  0.6693
14728TIP3    H165599   4.428   2.554  11.693 -1.3073 -1.9124  0.4319
14728TIP3    H265600   4.567   2.550  11.633 -1.8349 -0.7819 -0.9350
14729TIP3   OH265601   0.440   4.405  13.440  0.5505 -0.1290 -0.2615
14729TIP3    H165602   0.386   4.363  13.373  0.3010  1.4204 -1.0923
14729TIP3    H265603   0.513   4.345  13.454  0.7826 -0.3588 -2.1889
14730TIP3   OH265604   5.822   4.368  16.553 -0.7731 -0.0581 -0.2662
14730TIP3    H165605   5.772   4.365  16.472  0.9610 -2.7811 -1.4038
14730TIP3    H265606   5.832   4.461  16.573 -2.7027  0.6302 -2.2164
14731TIP3   OH265607   6.043   3.709   4.600 -0.0614  0.6314 -0.3372
14731TIP3    H165608   6.127   3.754   4.587 -0.1577  0.4186 -1.8922
14731TIP3    H265609   6.028   3.713   4.694  2.1990 -0.2066  0.1218
14732TIP3   OH265610   0.946   5.669  12.953  0.3606  0.2091 -0.5666
14732TIP3    H165611   0.988   5.583  12.965  0.3592  0.3427  0.5585
14732TIP3    H265612   0.899   5.683  13.036 -2.4005 -0.1835 -1.9471
14733TIP3   OH265613   6.427   6.003  13.538 -0.1422  0.2173 -0.0195
14733TIP3    H165614   6.435   6.034  13.448 -1.1205  0.1992 -0.1231
14733TIP3    H265615   6.444   6.081  13.591  3.2814 -0.3344 -0.0919
14734TIP3   OH265616   3.241   2.867   3.097  0.2877 -0.7045  0.5001
14734TIP3    H165617   3.253   2.883   3.190 -0.4184 -1.7893  0.7994
14734TIP3    H265618   3.323   2.897   3.057  1.4025 -1.9598  1.6960
14735TIP3   OH265619   1.404   2.692  13.115  0.0820 -0.4474 -0.2594
14735TIP3    H165620   1.430   2.775  13.073 -1.3681 -0.4903 -1.3105
14735TIP3    H265621   1.316   2.676  13.082 -0.2688 -1.6106  1.1890
14736TIP3   OH265622   3.768   5.031   3.430 -0.1760  0.4690  0.3535
14736TIP3    H165623   3.678   5.055   3.450  0.1715  2.2876 -0.0984
14736TIP3    H265624   3.815   5.046   3.512  0.0074  1.2070  0.1219
14737TIP3   OH265625   3.282   1.224  16.160  0.1813  0.4083 -0.5901
14737TIP3    H165626   3.271   1.251  16.068 -0.2223 -0.6590 -0.8630
14737TIP3    H265627   3.367   1.180  16.162  0.6496  1.2934 -0.2279
14738TIP3   OH265628   4.040   1.630   4.686  0.1814 -0.2571  0.1098
14738TIP3    H165629   3.963   1.615   4.741 -0.6366 -1.9808 -1.3970
14738TIP3    H265630   4.004   1.658   4.602  1.2463 -0.2012 -0.3393
14739TIP3   OH265631   2.199   2.091   3.926 -0.0592 -0.5337 -0.4559
14739TIP3    H165632   2.270   2.043   3.968  0.5440  1.2164  0.6315
14739TIP3    H265633   2.241   2.140   3.855 -0.0623  0.8313  0.4511
14740TIP3   OH265634   1.816   1.051   6.128 -0.3862 -0.3213 -0.2363
14740TIP3    H165635   1.850   1.137   6.154  0.2726 -0.6547  0.0367
14740TIP3    H265636   1.747   1.032   6.192 -0.6011  0.0462 -0.3577
14741TIP3   OH265637   3.317   6.433   1.922 -0.2547 -0.5620  0.4393
14741TIP3    H165638   3.400   6.413   1.878 -0.3497 -0.5155  0.2387
14741TIP3    H265639   3.338   6.427   2.015 -0.3264 -1.7783  0.3909
14742TIP3   OH265640   3.093   3.975   6.618  0.4663 -0.7146 -0.1361
14742TIP3    H165641   3.163   3.980   6.683  0.0586  3.4834  0.2348
14742TIP3    H265642   3.137   3.995   6.535  0.0653 -0.2388 -0.2333
14743TIP3   OH265643   2.331   4.101   4.464 -1.0037  0.4797  0.2195
14743TIP3    H165644   2.406   4.100   4.405  1.3428 -1.4401  2.9464
14743TIP3    H265645   2.267   4.043   4.422 -0.6099  1.3647 -1.7062
14744TIP3   OH265646   0.550   3.941   6.476 -0.1520 -0.0081  0.5413
14744TIP3    H165647   0.645   3.952   6.473  0.0156 -1.0895  1.1867
14744TIP3    H265648   0.517   4.026   6.506  0.3972  1.1138 -1.7890
14745TIP3   OH265649   1.017   6.366  14.905  0.2378 -0.1764 -0.1785
14745TIP3    H165650   0.935   6.345  14.861  1.5801 -0.3317 -2.7901
14745TIP3    H265651   1.078   6.384  14.834  2.3864  0.2904  1.6877
14746TIP3   OH265652   5.214   2.620   1.240  0.6502  0.5288 -0.0096
14746TIP3    H165653   5.215   2.638   1.146  2.9948  1.6043  0.1515
14746TIP3    H265654   5.263   2.538   1.250  0.0988  0.2236  0.2573
14747TIP3   OH265655   1.036   2.643   5.675  0.3092  0.5914  0.2271
14747TIP3    H165656   1.049   2.588   5.753 -0.6313  0.3100  0.1896
14747TIP3    H265657   0.942   2.658   5.671  0.3490  0.6298 -0.8506
14748TIP3   OH265658   0.867   4.957  16.023  0.4963 -0.0908 -0.0548
14748TIP3    H165659   0.801   4.979  16.088  0.0086 -0.2800 -0.4793
14748TIP3    H265660   0.827   4.981  15.939  1.9237  2.1659 -0.1716
14749TIP3   OH265661   3.029   1.406  12.852  0.0632 -0.2979  0.5276
14749TIP3    H165662   3.013   1.471  12.921 -0.4355 -0.3170  0.4393
14749TIP3    H265663   2.992   1.447  12.773 -1.0338 -1.0301  0.6353
14750TIP3   OH265664   0.361   5.530  12.001  0.3605  0.6816 -0.2180
14750TIP3    H165665   0.440   5.481  11.977  1.0153  1.0202  1.1664
14750TIP3    H265666   0.297   5.462  12.025  0.8827  0.4499  0.5646
14751TIP3   OH265667   4.587   6.734  16.573 -0.1336  0.0602 -0.1944
14751TIP3    H165668   4.534   6.803  16.533 -0.6749  0.4101  1.1023
14751TIP3    H265669   4.523   6.671  16.607  0.3155 -2.0369 -2.8517
14752TIP3   OH265670   3.434   5.151  11.312 -0.4164 -0.2856  0.2227
14752TIP3    H165671   3.379   5.182  11.239 -0.0872 -1.1495 -0.4051
14752TIP3    H265672   3.402   5.201  11.388 -1.6469 -0.3016 -0.2499
14753TIP3   OH265673   3.615   1.790   0.973 -0.6047 -0.2403  0.4848
14753TIP3    H165674   3.589   1.779   0.881 -0.0510  1.2833  0.1141
14753TIP3    H265675   3.663   1.710   0.994  0.7534  0.0989 -1.1178
14754TIP3   OH265676   2.053   0.099   5.444 -0.2062  0.0114 -0.0549
14754TIP3    H165677   2.065   0.010   5.477 -0.0913  0.7450  2.0055
14754TIP3    H265678   2.028   0.150   5.521 -1.8830  1.4674 -1.4811
14755TIP3   OH265679   0.452   0.351   5.037  0.3816  0.4709 -0.1192
14755TIP3    H165680   0.490   0.267   5.059  0.5921  0.8626  1.1328
14755TIP3    H265681   0.462   0.360   4.943 -0.3263 -1.2280 -0.3787
14756TIP3   OH265682   2.321   5.586   4.477 -0.2475  0.1671  0.0719
14756TIP3    H165683   2.301   5.678   4.492  0.7952  0.1308  1.9147
14756TIP3    H265684   2.236   5.542   4.480 -0.5061  0.7298  2.0754
14757TIP3   OH265685   3.160   6.214   2.011  0.1360  0.9006 -0.0866
14757TIP3    H165686   3.079   6.257   1.984  0.3893  2.1159  1.0078
14757TIP3    H265687   3.229   6.272   1.981  0.6391 -0.2108 -1.1554
14758TIP3   OH265688   2.294   1.666  17.294 -0.1786  0.1922 -0.7582
14758TIP3    H165689   2.375   1.685  17.247 -0.8925  1.0740 -1.6741
14758TIP3    H265690   2.262   1.752  17.323 -0.6680 -0.1680 -0.2131
14759TIP3   OH265691   0.025   2.042  13.697 -0.3524 -0.1123  0.2474
14759TIP3    H165692  -0.025   2.109  13.745  0.6631  0.5431  0.4279
14759TIP3    H265693  -0.030   1.964  13.702 -0.6150  0.1321  1.8693
14760TIP3   OH265694   1.404   3.217   4.560 -0.1769  0.0024 -0.2962
14760TIP3    H165695   1.479   3.158   4.562  1.1714  1.6247 -0.9257
14760TIP3    H265696   1.341   3.174   4.501 -0.0291 -1.6235  0.6464
14761TIP3   OH265697   4.974   1.618  11.542  0.0933 -0.3398 -0.0813
14761TIP3    H165698   4.943   1.681  11.478  1.2507  0.5992  0.2421
14761TIP3    H265699   4.985   1.537  11.493  3.0371  0.8665 -1.6966
14762TIP3   OH265700   4.027   3.791   2.180  0.2917 -0.5959 -0.2528
14762TIP3    H165701   3.982   3.821   2.259  0.6357 -4.1225  1.4921
14762TIP3    H265702   3.966   3.813   2.109  0.8435  4.5196  0.4716
14763TIP3   OH265703   2.540   5.867   5.778  0.1998  0.3589  0.3305
14763TIP3    H165704   2.459   5.918   5.779 -0.2453 -0.3381  0.6663
14763TIP3    H265705   2.582   5.891   5.696 -0.5728  0.3991 -0.0720
14764TIP3   OH265706   2.443   2.421  11.638 -0.0844  0.0706  0.7927
14764TIP3    H165707   2.490   2.363  11.697 -2.7687 -0.9804  2.0945
14764TIP3    H265708   2.467   2.510  11.666  0.7872 -0.4159  1.6240
14765TIP3   OH265709   0.292   3.808  13.829  0.1657 -0.1862 -0.1748
14765TIP3    H165710   0.270   3.728  13.782  2.6228 -1.0802  0.0335
14765TIP3    H265711   0.226   3.871  13.802  0.1462 -1.3047 -3.0794
14766TIP3   OH265712   0.038   5.962   1.279  0.1314  0.3179  0.1570
14766TIP3    H165713   0.021   5.880   1.233  0.5489  0.6404 -0.5987
14766TIP3    H265714   0.132   5.960   1.297  0.6052  1.5417 -1.7769
14767TIP3   OH265715   3.246   6.030  13.097 -0.0869  0.2529 -0.1555
14767TIP3    H165716   3.255   6.034  13.002 -0.4450 -0.5630 -0.2320
14767TIP3    H265717   3.217   5.940  13.115  0.4599  0.2451  0.7630
14768TIP3   OH265718   2.243   5.606   4.034 -0.0224  0.2985 -0.5819
14768TIP3    H165719   2.154   5.642   4.039 -0.8599 -1.7267  1.4226
14768TIP3    H265720   2.257   5.589   3.941 -1.7710  0.6613 -0.9520
14769TIP3   OH265721   2.280   3.829   3.459 -0.0169  0.2390  0.3705
14769TIP3    H165722   2.203   3.879   3.484  1.0824  1.4566  1.5144
14769TIP3    H265723   2.246   3.751   3.415 -1.8223  1.6219 -0.7992
14770TIP3   OH265724   4.187   2.154   4.794 -0.5455  0.2936 -0.4781
14770TIP3    H165725   4.115   2.217   4.789  0.1281  1.0619 -0.5979
14770TIP3    H265726   4.152   2.083   4.848 -0.8308  1.4435  0.9204
14771TIP3   OH265727   2.507   0.584  12.259  0.3152  0.1579 -0.7280
14771TIP3    H165728   2.463   0.584  12.344 -1.4445  0.6398 -1.6027
14771TIP3    H265729   2.596   0.554  12.279 -0.5388 -1.4175  1.0141
14772TIP3   OH265730   4.719   0.354   4.968 -0.1218  0.1465  0.0975
14772TIP3    H165731   4.629   0.325   4.984 -0.2442  1.0707  1.2472
14772TIP3    H265732   4.710   0.434   4.917  0.1851 -1.2728 -2.3246
14773TIP3   OH265733   3.553   2.192  17.025  0.2893  0.1167 -0.1539
14773TIP3    H165734   3.588   2.260  17.083  1.5788 -1.0839  0.5183
14773TIP3    H265735   3.543   2.237  16.940  0.0533  1.4228  0.5317
14774TIP3   OH265736   6.132   6.699   0.720 -0.4102  0.6387 -0.2039
14774TIP3    H165737   6.181   6.635   0.668 -0.4819  0.6465 -0.2814
14774TIP3    H265738   6.067   6.646   0.767  1.8573  0.1187  2.5948
14775TIP3   OH265739   2.611   1.263   1.389 -0.0025  0.4089  0.1055
14775TIP3    H165740   2.523   1.242   1.359  0.2834  1.5510 -1.6951
14775TIP3    H265741   2.613   1.358   1.393  0.4502  0.3434  2.4805
14776TIP3   OH265742   0.129   0.070  15.417  0.5757  0.1588  0.5323
14776TIP3    H165743   0.165   0.159  15.416 -0.0733  0.4213 -1.0057
14776TIP3    H265744   0.069   0.066  15.343 -2.3338 -0.4063  2.7386
14777TIP3   OH265745   0.779   3.470  17.456  0.0490 -0.5918  0.7705
14777TIP3    H165746   0.773   3.457  17.361 -0.7436 -0.1174  0.7452
14777TIP3    H265747   0.818   3.389  17.489  1.2265 -0.4005 -0.0552
14778TIP3   OH265748   5.902   5.307  12.016  0.2169 -0.0424 -0.1278
14778TIP3    H165749   5.847   5.372  12.060 -0.0998 -0.9297  0.8257
14778TIP3    H265750   5.989   5.318  12.056  0.5647  0.8422 -1.0906
14779TIP3   OH265751   1.750   1.607  16.872  0.1591 -0.5542  0.0602
14779TIP3    H165752   1.691   1.579  16.802 -1.0685 -2.3110  1.7033
14779TIP3    H265753   1.832   1.561  16.854 -0.5098 -1.9049  0.3528
14780TIP3   OH265754   2.899   3.053  11.628  0.0218  0.3754 -0.1583
14780TIP3    H165755   2.868   3.104  11.702  1.3245 -0.9572  1.3801
14780TIP3    H265756   2.986   3.088  11.609 -1.0560  2.0567 -2.4529
14781TIP3   OH265757   4.606   2.616   6.624 -0.0835  0.0680  0.5054
14781TIP3    H165758   4.614   2.632   6.718  2.4964 -1.4087  0.6242
14781TIP3    H265759   4.555   2.535   6.618 -2.3551  1.3981  0.4270
14782TIP3   OH265760   6.559   0.116  13.892  0.0360  0.2844  0.3523
14782TIP3    H165761   6.494   0.112  13.962  1.1661 -2.0483  1.3939
14782TIP3    H265762   6.507   0.124  13.812 -1.5564 -0.9794  1.1881
14783TIP3   OH265763   4.702   2.519   0.611  0.0427  0.1285  0.0656
14783TIP3    H165764   4.762   2.574   0.560 -0.6274 -0.3669 -1.2868
14783TIP3    H265765   4.723   2.429   0.585 -0.6292 -0.1050  0.3116
14784TIP3   OH265766   3.658   4.001  14.597 -0.6637 -0.3737  0.5661
14784TIP3    H165767   3.710   4.046  14.531 -1.9468  1.6319  0.8469
14784TIP3    H265768   3.599   3.945  14.547 -0.3972 -0.2540  0.1151
14785TIP3   OH265769   4.971   1.030   4.454 -0.5948  0.2095  0.2549
14785TIP3    H165770   4.924   0.977   4.519 -2.7014 -0.4863 -1.6946
14785TIP3    H265771   4.978   0.973   4.378  1.7700  1.0204 -0.2146
14786TIP3   OH265772   2.122   5.877  13.284 -0.5115 -0.2539  0.3940
14786TIP3    H165773   2.029   5.898  13.292 -0.4197 -0.4408  2.3882
14786TIP3    H265774   2.162   5.956  13.247 -1.1743  0.5554  1.3689
14787TIP3   OH265775   5.368   1.029   0.966  0.1383  0.0017  0.2234
14787TIP3    H165776   5.321   1.014   1.048 -1.2966  1.3980 -0.2753
14787TIP3    H265777   5.455   1.058   0.993 -0.1568 -0.0232  1.2415
14788TIP3   OH265778   3.902   3.655   4.496  0.6089 -0.1405  1.2344
14788TIP3    H165779   3.910   3.561   4.478  1.4258 -0.2053  1.8830
14788TIP3    H265780   3.951   3.668   4.578 -0.6032  0.6270  1.8694
14789TIP3   OH265781   5.391   4.095   3.030 -0.6182 -0.4022  0.3212
14789TIP3    H165782   5.484   4.103   3.050 -0.1796 -1.2904 -1.2092
14789TIP3    H265783   5.347   4.102   3.114  0.6724  2.0840  0.8646
14790TIP3   OH265784   1.354   2.631  16.861  0.1788  0.3726  0.0054
14790TIP3    H165785   1.409   2.705  16.835  1.2397 -1.1609 -2.4337
14790TIP3    H265786   1.417   2.563  16.886 -0.7807  0.4868  3.1611
14791TIP3   OH265787   0.941   3.666   4.749  0.1976 -0.5894  0.0353
14791TIP3    H165788   1.024   3.639   4.789 -0.2355 -1.8366  0.1240
14791TIP3    H265789   0.929   3.606   4.676 -0.0155  0.3955 -0.7559
14792TIP3   OH265790   6.677   5.117   0.115  0.4838  0.3742 -0.9856
14792TIP3    H165791   6.687   5.164   0.198  2.5205 -1.3334 -0.1627
14792TIP3    H265792   6.640   5.181   0.055 -0.2002  1.9237  1.0058
14793TIP3   OH265793   6.081   2.243  11.853 -0.7961  0.4671  0.1352
14793TIP3    H165794   6.114   2.210  11.770  0.2299  0.6859  0.4404
14793TIP3    H265795   6.082   2.338  11.844  0.9821  0.5755  0.9693
14794TIP3   OH265796   2.194   6.534   3.894 -0.1167  0.6105 -0.6502
14794TIP3    H165797   2.275   6.573   3.929  0.6581 -2.6307  1.6035
14794TIP3    H265798   2.218   6.506   3.806  1.4344 -0.6142  0.0951
14795TIP3   OH265799   4.231   6.092  12.963 -0.2668  0.3891 -0.5387
14795TIP3    H165800   4.288   6.146  13.019  0.0505 -0.5363  0.0559
14795TIP3    H265801   4.221   6.143  12.883  1.5198  0.5364 -0.7149
14796TIP3   OH265802   4.646   4.363  16.102  0.1208 -0.3364 -0.8109
14796TIP3    H165803   4.609   4.381  16.188  0.3852  0.2825 -0.8243
14796TIP3    H265804   4.651   4.448  16.059  1.8178 -0.3399 -0.7012
14797TIP3   OH265805   4.162   5.037  13.931 -0.0035  0.2753 -0.0761
14797TIP3    H165806   4.145   5.126  13.899  0.1201  0.5447  0.6103
14797TIP3    H265807   4.173   5.046  14.025 -0.1603 -0.4966  0.0244
14798TIP3   OH265808   3.807   0.735  15.596  0.2415 -0.0629  0.0582
14798TIP3    H165809   3.826   0.661  15.654 -0.6734  1.0392  1.8514
14798TIP3    H265810   3.719   0.716  15.562 -0.3958  0.6000  1.2613
14799TIP3   OH265811   1.373   6.734  15.017 -0.2335 -0.3823 -0.1190
14799TIP3    H165812   1.295   6.773  14.977 -0.3791 -0.4456  0.1028
14799TIP3    H265813   1.445   6.786  14.983 -0.4064 -0.0760 -0.0208
14800TIP3   OH265814   4.305   5.048  12.499 -0.0461 -0.5764 -0.1219
14800TIP3    H165815   4.328   4.975  12.440  2.7705  1.1131 -1.3130
14800TIP3    H265816   4.262   5.006  12.573 -0.4880 -3.1924 -1.7194
14801TIP3   OH265817   2.691   1.942  14.804 -0.4477  0.0986 -0.4255
14801TIP3    H165818   2.746   1.866  14.824 -0.4821 -0.2629 -1.6132
14801TIP3    H265819   2.684   1.989  14.887  0.7223 -0.4505  0.0109
14802TIP3   OH265820   5.728   1.405   1.238  0.6067  0.7653 -0.0892
14802TIP3    H165821   5.756   1.364   1.156  0.2273  0.5703 -0.1197
14802TIP3    H265822   5.788   1.369   1.304  0.3641  0.2678 -0.1371
14803TIP3   OH265823   6.117   4.458  14.764 -0.4041 -0.8108 -0.8979
14803TIP3    H165824   6.093   4.381  14.817  0.3433  0.4685  1.4610
14803TIP3    H265825   6.034   4.499  14.742 -0.7665  0.4158  2.2455
14804TIP3   OH265826   6.712   5.466  17.389 -0.6719 -0.4043 -0.6007
14804TIP3    H165827   6.713   5.515  17.307  1.0787  0.5734 -0.0473
14804TIP3    H265828   6.657   5.519  17.447 -0.5520 -0.2078 -0.6622
14805TIP3   OH265829   1.364   6.059  15.990 -0.2436 -0.0835 -0.7109
14805TIP3    H165830   1.381   6.023  15.903  0.1624  2.3930 -1.7365
14805TIP3    H265831   1.340   6.151  15.974  1.7377  1.0044  1.8899
14806TIP3   OH265832   6.515   1.802   1.894  0.4295  0.5912  0.1585
14806TIP3    H165833   6.556   1.754   1.822  0.2953  1.3735 -0.4514
14806TIP3    H265834   6.438   1.749   1.917  0.2980  0.4940 -0.4791
14807TIP3   OH265835   4.887   5.735   1.703  0.2342  0.5727 -0.0291
14807TIP3    H165836   4.911   5.659   1.651  0.1174  0.0734  0.6351
14807TIP3    H265837   4.887   5.807   1.640  1.8389  0.3169 -0.3796
14808TIP3   OH265838   1.448   5.550   4.250  0.1500  0.2751 -0.3293
14808TIP3    H165839   1.378   5.601   4.210  0.3696  1.6959  0.9771
14808TIP3    H265840   1.529   5.592   4.220  0.3295  0.9409  0.9958
14809TIP3   OH265841   0.347   2.488   2.563  0.2584  0.5891  0.2972
14809TIP3    H165842   0.323   2.400   2.591 -1.3520  0.5772 -0.9161
14809TIP3    H265843   0.273   2.543   2.590  0.0464  1.0821 -1.1765
14810TIP3   OH265844   1.551   5.744  13.055  0.2402  0.1591  0.2820
14810TIP3    H165845   1.484   5.675  13.052  0.0354  0.3712 -0.0463
14810TIP3    H265846   1.544   5.787  12.970  2.6958 -1.6056 -0.9375
14811TIP3   OH265847   6.466   6.051  16.974 -0.2082 -0.6815  0.1833
14811TIP3    H165848   6.391   5.991  16.965  0.2396 -1.0212 -1.6792
14811TIP3    H265849   6.511   6.021  17.053 -1.9533 -0.5356  1.2878
14812TIP3   OH265850   1.096   6.361  16.215  0.6966 -0.2900 -0.2887
14812TIP3    H165851   1.103   6.405  16.131 -0.4456  2.4509  0.9310
14812TIP3    H265852   1.018   6.306  16.208 -0.3840  1.2071 -0.5571
14813TIP3   OH265853   0.302   2.383   3.607 -0.0803 -0.3364  0.0812
14813TIP3    H165854   0.360   2.455   3.584  0.0709  0.2001  1.9534
14813TIP3    H265855   0.222   2.426   3.638  0.0902 -0.9154  1.4302
14814TIP3   OH265856   6.708   3.833  10.887 -0.7924 -0.7590 -0.0372
14814TIP3    H165857   6.789   3.838  10.837  0.2453 -0.0954  1.6067
14814TIP3    H265858   6.650   3.897  10.847 -0.1103 -0.4773 -0.5903
14815TIP3   OH265859   4.154   4.652  13.471 -0.3770 -0.5647  0.1095
14815TIP3    H165860   4.232   4.628  13.520 -1.3720 -2.1199  1.0181
14815TIP3    H265861   4.170   4.742  13.443  1.5145 -0.6834  0.6737
14816TIP3   OH265862   4.957   3.612  14.011  0.0319 -0.4453 -0.2602
14816TIP3    H165863   4.911   3.544  14.060 -0.9376 -0.4734 -1.1716
14816TIP3    H265864   4.889   3.651  13.955  0.1765  2.2997  1.2935
14817TIP3   OH265865   1.927   6.647  11.340  0.1964 -0.1218  0.4358
14817TIP3    H165866   1.856   6.706  11.314 -0.6484 -0.7957  1.1965
14817TIP3    H265867   1.888   6.560  11.342  0.5286 -0.2830  2.6975
14818TIP3   OH265868   6.163   0.744  13.767  0.1626  0.5594  0.2409
14818TIP3    H165869   6.170   0.650  13.784  0.2913  0.5065 -0.0968
14818TIP3    H265870   6.158   0.751  13.672  2.1912  1.0107  0.1136
14819TIP3   OH265871   3.717   2.540  14.348  0.4322 -0.2895 -0.1363
14819TIP3    H165872   3.762   2.456  14.349 -1.7059 -1.5282  0.1974
14819TIP3    H265873   3.755   2.588  14.275  2.3797 -1.1387  0.2749
14820TIP3   OH265874   4.356   1.492  14.238  0.1035 -0.0631 -0.2883
14820TIP3    H165875   4.319   1.424  14.294  0.5189  0.2874  0.4281
14820TIP3    H265876   4.330   1.467  14.150 -1.5508  0.0059  0.1532
14821TIP3   OH265877   1.197   3.801  12.467 -0.3393 -0.2114  0.9187
14821TIP3    H165878   1.270   3.744  12.491 -0.3322 -0.0933  1.1761
14821TIP3    H265879   1.172   3.845  12.548 -0.5184 -0.0450  0.7759
14822TIP3   OH265880   5.496   1.826  13.303  0.6833  0.4741  0.2260
14822TIP3    H165881   5.574   1.789  13.263  1.4201  0.1773  1.8378
14822TIP3    H265882   5.479   1.906  13.253  1.9021  0.4443 -0.2743
14823TIP3   OH265883   4.680   3.134   2.609 -0.2169 -0.2676 -0.0402
14823TIP3    H165884   4.651   3.201   2.547  0.3098  1.0111  1.0488
14823TIP3    H265885   4.772   3.153   2.624 -0.2232 -0.8297  0.7873
14824TIP3   OH265886   4.539   3.652   3.735 -0.1235 -0.2339 -0.0413
14824TIP3    H165887   4.481   3.698   3.796  0.6561  0.3075  0.3171
14824TIP3    H265888   4.627   3.674   3.766  0.3158  0.9307 -1.9917
14825TIP3   OH265889   2.215   4.717  16.834  0.2498  0.2446  0.3041
14825TIP3    H165890   2.283   4.678  16.890 -1.0420 -0.5694  1.3658
14825TIP3    H265891   2.208   4.657  16.760  1.0592  0.6381 -0.1107
14826TIP3   OH265892   4.462   2.954  13.747  1.0466 -0.2434 -0.5133
14826TIP3    H165893   4.382   2.986  13.788  0.6400  0.3331 -1.7074
14826TIP3    H265894   4.510   2.912  13.818  1.4128  2.5896  1.0913
14827TIP3   OH265895   1.276   1.937  15.288  0.1798  0.0235 -0.1228
14827TIP3    H165896   1.308   1.852  15.259  1.2398  0.2483  0.3629
14827TIP3    H265897   1.352   1.995  15.284 -0.8693  1.3792 -1.9979
14828TIP3   OH265898   1.159   6.242   6.047  0.1529 -0.5008 -0.0138
14828TIP3    H165899   1.171   6.217   6.139 -2.4656 -0.2466  0.4842
14828TIP3    H265900   1.079   6.294   6.047  1.8851  2.4422 -1.9864
14829TIP3   OH265901   6.339   1.271  17.342 -0.0694  0.0899 -0.2689
14829TIP3    H165902   6.389   1.334  17.394  2.1375 -2.1187  0.4681
14829TIP3    H265903   6.274   1.235  17.404  1.6959 -1.5794  0.7389
14830TIP3   OH265904   3.418   4.298  16.077 -0.9625 -0.3821  0.4110
14830TIP3    H165905   3.376   4.384  16.086 -0.0869  0.2234 -0.9866
14830TIP3    H265906   3.491   4.314  16.018 -1.2414 -2.2677 -0.4814
14831TIP3   OH265907   3.477   5.163  15.209 -0.3106  0.4673  0.2489
14831TIP3    H165908   3.530   5.231  15.251 -0.1002 -0.1997  1.1050
14831TIP3    H265909   3.471   5.190  15.118  1.7363  0.4480  0.0576
14832TIP3   OH265910   3.877   2.811  14.327 -0.0628  0.0598 -0.0394
14832TIP3    H165911   3.947   2.746  14.318  1.7831  2.0432 -0.8879
14832TIP3    H265912   3.821   2.796  14.251  2.1846  1.4419 -2.1242
14833TIP3   OH265913   2.863   3.326   4.682 -0.3190  0.8511  0.2098
14833TIP3    H165914   2.847   3.332   4.588  1.2918  0.8085 -0.0967
14833TIP3    H265915   2.780   3.352   4.722 -0.5728  2.4001 -1.2014
14834TIP3   OH265916   4.288   2.976  11.610 -0.0374 -0.1878 -0.0966
14834TIP3    H165917   4.354   2.998  11.545 -0.2293 -1.0889 -0.6233
14834TIP3    H265918   4.241   3.057  11.626  0.5217  0.2203 -0.4992
14835TIP3   OH265919   5.835   2.844   4.185 -0.4704  0.1000  0.9612
14835TIP3    H165920   5.800   2.848   4.097  1.5453  2.0992  0.1425
14835TIP3    H265921   5.908   2.782   4.179 -0.7854 -0.3233  1.4227
14836TIP3   OH265922   5.938   6.380   5.947  0.3042  0.5142 -0.7189
14836TIP3    H165923   5.877   6.383   5.873 -1.0909  1.1479  0.4005
14836TIP3    H265924   5.888   6.416   6.020  1.5828 -0.2452  0.5797
14837TIP3   OH265925   5.263   6.081  10.742 -0.1655  0.3625  0.0080
14837TIP3    H165926   5.329   6.067  10.810  1.6178 -0.6006 -1.8063
14837TIP3    H265927   5.181   6.095  10.790  0.7898 -1.3302  2.3248
14838TIP3   OH265928   0.286   4.801  13.314 -0.5967 -0.0887 -0.3692
14838TIP3    H165929   0.264   4.879  13.366  1.8904  1.2870 -1.1951
14838TIP3    H265930   0.274   4.830  13.223 -0.0030 -0.8054 -0.6771
14839TIP3   OH265931   3.589   2.393  12.564 -0.3147  0.2062  0.0488
14839TIP3    H165932   3.531   2.382  12.489  0.0016 -0.6748 -0.0759
14839TIP3    H265933   3.605   2.488  12.568  0.8864  0.1567 -1.9696
14840TIP3   OH265934   1.936   2.056   3.847  0.0943  0.1626 -0.7199
14840TIP3    H165935   1.991   2.086   3.919 -0.7666  1.4016 -0.5551
14840TIP3    H265936   1.918   1.964   3.866 -0.7890  0.6742  1.0996
14841TIP3   OH265937   6.213   0.368  14.149 -0.1182 -0.1636 -0.0331
14841TIP3    H165938   6.189   0.444  14.201  0.1642  0.7790 -1.2444
14841TIP3    H265939   6.284   0.399  14.092  0.7722 -1.6243  0.2085
14842TIP3   OH265940   2.113   4.703  17.099  0.4215  0.0232  0.4677
14842TIP3    H165941   2.181   4.725  17.164  1.0177  2.6519 -0.9262
14842TIP3    H265942   2.140   4.749  17.020 -2.3555  0.1290 -0.5107
14843TIP3   OH265943   0.789   6.743   1.842  0.2065  0.4537 -0.0088
14843TIP3    H165944   0.808   6.837   1.841  0.4436  0.4046 -1.0956
14843TIP3    H265945   0.871   6.703   1.870  0.8405  0.4421 -1.7644
14844TIP3   OH265946   2.871   5.006   1.662  0.6008  0.0059  0.4686
14844TIP3    H165947   2.888   4.915   1.639  0.3743  0.1125 -0.1445
14844TIP3    H265948   2.957   5.042   1.683  0.9421  0.1249 -1.0480
14845TIP3   OH265949   0.455   0.807   0.121  0.5847  0.2400  0.1215
14845TIP3    H165950   0.428   0.861   0.047  0.7851  0.8658  0.4968
14845TIP3    H265951   0.435   0.718   0.094 -0.3920  0.5544 -0.2389
14846TIP3   OH265952   0.041   5.657  12.025  0.5535  0.6467  0.3273
14846TIP3    H165953   0.126   5.655  11.980 -0.4423 -0.1987 -1.6789
14846TIP3    H265954   0.052   5.721  12.095  3.0401  0.0511  0.5856
14847TIP3   OH265955   5.103   5.129   3.913 -0.0696  0.7736  0.5504
14847TIP3    H165956   5.098   5.142   4.008 -1.0895  1.2664  0.4391
14847TIP3    H265957   5.185   5.172   3.888  0.7083 -0.2044  1.3256
14848TIP3   OH265958   0.207   1.742   5.622 -0.4821 -0.1458  0.3892
14848TIP3    H165959   0.195   1.651   5.647  1.2962 -0.6202 -0.3223
14848TIP3    H265960   0.123   1.783   5.640 -0.5358 -1.2853  3.2919
14849TIP3   OH265961   2.142   1.424   6.101 -0.1413 -0.0507 -0.3971
14849TIP3    H165962   2.172   1.503   6.056 -0.9815 -0.3931 -1.5961
14849TIP3    H265963   2.210   1.359   6.083  0.6778  0.4266  0.7978
14850TIP3   OH265964   5.626   2.893  15.272 -0.1631  0.1656 -0.6419
14850TIP3    H165965   5.573   2.945  15.333 -0.6170 -0.5921 -0.3731
14850TIP3    H265966   5.597   2.802  15.287  1.5604 -0.3400 -0.1155
14851TIP3   OH265967   4.219   4.664  12.156  0.0811  0.4223 -0.2390
14851TIP3    H165968   4.130   4.688  12.128 -0.3914  1.7355  2.1684
14851TIP3    H265969   4.207   4.619  12.240  1.7596  2.3202  1.1061
14852TIP3   OH265970   1.789   5.304  13.525  0.3029  0.3025  0.3712
14852TIP3    H165971   1.721   5.267  13.582 -0.5109  2.0724  0.6036
14852TIP3    H265972   1.747   5.379  13.483  1.8133  0.8152 -0.2847
14853TIP3   OH265973   2.571   2.958   5.369 -0.5575  0.0334  0.1738
14853TIP3    H165974   2.585   3.040   5.323  0.4717  0.5778  1.3855
14853TIP3    H265975   2.656   2.914   5.366 -0.9762 -0.7795 -0.0636
14854TIP3   OH265976   0.485   3.978  12.810 -0.4378 -0.3253 -0.2295
14854TIP3    H165977   0.470   3.971  12.904  0.3301  0.1843 -0.0631
14854TIP3    H265978   0.530   4.062  12.799 -1.2090 -0.0046 -1.1395
14855TIP3   OH265979   0.079   5.086  16.364 -0.4745 -0.3986 -0.3127
14855TIP3    H165980   0.157   5.036  16.389 -0.6580 -0.5889 -0.1269
14855TIP3    H265981   0.015   5.020  16.339 -1.1081 -0.3058  1.0279
14856TIP3   OH265982   4.056   2.165   2.069 -0.3684 -0.1440  0.7456
14856TIP3    H165983   4.049   2.178   2.164 -0.4253  2.2016  0.4987
14856TIP3    H265984   3.982   2.215   2.033  0.9347  0.9017 -0.6006
14857TIP3   OH265985   4.804   6.176   0.385 -0.2160 -0.1421 -0.4086
14857TIP3    H165986   4.823   6.088   0.419  0.2060  0.4263  0.8752
14857TIP3    H265987   4.708   6.180   0.383 -0.2377 -0.6061 -0.3851
14858TIP3   OH265988   1.666   5.703  14.079 -0.3799  0.0890 -0.0981
14858TIP3    H165989   1.603   5.761  14.036  0.2795  0.0660 -1.1306
14858TIP3    H265990   1.735   5.761  14.110 -0.5844  0.0438  0.4510
14859TIP3   OH265991   0.777   2.634   2.516 -0.1465  0.0518 -0.2139
14859TIP3    H165992   0.846   2.630   2.583  0.0280  1.6426 -0.2548
14859TIP3    H265993   0.825   2.637   2.433 -0.2933  0.2452 -0.2915
14860TIP3   OH265994   6.429   1.118   5.434 -0.6702 -0.4748 -0.3810
14860TIP3    H165995   6.427   1.159   5.347  0.2040  1.7229  0.5551
14860TIP3    H265996   6.455   1.027   5.417  0.4027  0.1358 -2.3417
14861TIP3   OH265997   3.222   3.769  17.300  0.7342 -0.0278 -0.8014
14861TIP3    H165998   3.148   3.829  17.311 -0.1472 -1.4175  1.6689
14861TIP3    H265999   3.297   3.817  17.334  0.8646  1.0485 -2.4732
14862TIP3   OH266000   5.506   1.116  12.456  0.3515  0.1101  0.2353
14862TIP3    H166001   5.535   1.080  12.540 -0.3962  0.2954  0.5805
14862TIP3    H266002   5.410   1.107  12.458  0.3359  0.0531 -0.6248
14863TIP3   OH266003   4.452   4.529  12.086 -0.1562 -0.3814  0.0183
14863TIP3    H166004   4.455   4.436  12.061  0.8340 -0.1634 -0.7387
14863TIP3    H266005   4.358   4.548  12.094 -0.3769 -1.4356  0.1738
14864TIP3   OH266006   6.697   5.277   4.170 -0.4083  0.2498 -0.2677
14864TIP3    H166007   6.729   5.280   4.080 -0.8738 -0.6366 -0.4777
14864TIP3    H266008   6.685   5.184   4.188  0.5358  0.3624  1.0347
14865TIP3   OH266009   5.682   2.458  17.485 -0.1972 -0.1835  0.8052
14865TIP3    H166010   5.735   2.439  17.562  1.7811  0.8596 -0.2319
14865TIP3    H266011   5.630   2.534  17.509  1.7829  1.3120  0.5537
14866TIP3   OH266012   2.485   4.660  13.656 -0.0663 -0.5533 -0.5588
14866TIP3    H166013   2.409   4.711  13.684 -0.2046 -0.7354 -0.5981
14866TIP3    H266014   2.553   4.725  13.638  1.0006 -0.4784  2.9450
14867TIP3   OH266015   1.742   0.490  13.815  0.0685  0.2634  0.1444
14867TIP3    H166016   1.801   0.457  13.747  0.3913 -2.1310  1.4844
14867TIP3    H266017   1.749   0.427  13.887 -1.1706  2.0316  1.9532
14868TIP3   OH266018   4.439   6.730  14.586  0.2693 -0.8115 -0.2211
14868TIP3    H166019   4.363   6.768  14.631  0.3445  0.8844 -1.4286
14868TIP3    H266020   4.408   6.644  14.556 -1.7423  0.4346 -1.9969
14869TIP3   OH266021   4.000   0.972  11.871 -0.0360  0.0192 -0.4801
14869TIP3    H166022   3.938   0.995  11.940 -0.7070  1.4493 -1.5117
14869TIP3    H266023   3.946   0.933  11.802  0.4446 -0.2951 -0.6794
14870TIP3   OH266024   0.285   0.831   4.275 -0.1824 -0.1252 -0.1478
14870TIP3    H166025   0.366   0.856   4.319  0.2072 -2.6217  0.6923
14870TIP3    H266026   0.241   0.914   4.258  1.1526  1.1479  2.0647
14871TIP3   OH266027   1.394   3.574   0.391  0.1928 -0.7902 -0.1986
14871TIP3    H166028   1.402   3.482   0.416 -0.2659 -0.6414  0.5108
14871TIP3    H266029   1.394   3.573   0.295 -0.2379 -1.5668 -0.1967
14872TIP3   OH266030   4.428   5.570  13.840  0.1994 -0.2201 -0.3727
14872TIP3    H166031   4.501   5.535  13.789  0.5027  0.3372 -0.3237
14872TIP3    H266032   4.361   5.501  13.836  0.5790 -0.5733 -0.7340
14873TIP3   OH266033   6.281   2.341   5.050 -0.1360  0.1302  0.0276
14873TIP3    H166034   6.265   2.433   5.072 -0.9270  0.5011 -1.8964
14873TIP3    H266035   6.301   2.299   5.134 -0.3513  1.9357  1.0210
14874TIP3   OH266036   4.965   2.547   0.898 -0.3263  0.2505  0.0814
14874TIP3    H166037   4.929   2.466   0.861  1.8572  0.3915 -2.6743
14874TIP3    H266038   5.025   2.518   0.967 -2.1015 -0.2052  1.5048
14875TIP3   OH266039   3.212   5.667   5.204 -0.0721 -0.1606 -0.0933
14875TIP3    H166040   3.184   5.649   5.293  0.3686 -0.1058  0.0586
14875TIP3    H266041   3.263   5.590   5.178  1.3656  0.5865  0.3694
14876TIP3   OH266042   0.312   6.299   5.742  0.0406 -0.2191  0.1504
14876TIP3    H166043   0.258   6.373   5.713  1.2118  0.9974  0.9919
14876TIP3    H266044   0.401   6.323   5.717  0.3108 -1.9570 -0.7136
14877TIP3   OH266045   0.235   1.016  17.067 -0.3397  0.1302  0.4919
14877TIP3    H166046   0.295   1.068  17.121  2.3840 -2.5477  0.3025
14877TIP3    H266047   0.200   0.951  17.128 -0.4977 -0.3479 -0.1078
14878TIP3   OH266048   2.462   0.789   6.214 -0.3759 -0.3814  0.5158
14878TIP3    H166049   2.547   0.829   6.236 -0.1258 -1.1082  0.9061
14878TIP3    H266050   2.477   0.695   6.223 -0.3421 -0.7635 -2.4767
14879TIP3   OH266051   1.184   1.580   5.033  0.4609  0.3099  0.2543
14879TIP3    H166052   1.145   1.512   5.088 -1.3683 -0.8251 -2.2636
14879TIP3    H266053   1.269   1.544   5.006  1.1857  0.7039  1.9127
14880TIP3   OH266054   4.398   0.549  15.401  0.1098 -0.2906 -0.9069
14880TIP3    H166055   4.391   0.462  15.363 -3.2232 -0.6726  0.2421
14880TIP3    H266056   4.420   0.606  15.328  2.2150 -2.0196 -1.7005
14881TIP3   OH266057   6.374   1.108  15.190 -0.1282  0.6713 -0.2767
14881TIP3    H166058   6.294   1.096  15.242 -0.7008 -2.4213 -1.6330
14881TIP3    H266059   6.343   1.149  15.109 -0.4523 -0.6935 -0.8784
14882TIP3   OH266060   5.292   0.347  15.099  0.0850 -0.0687 -0.3631
14882TIP3    H166061   5.373   0.383  15.135 -0.9182 -0.1929  2.3126
14882TIP3    H266062   5.244   0.424  15.067  0.5999  0.1916 -0.5195
14883TIP3   OH266063   4.993   2.383   5.127  0.2777 -0.0150  0.1413
14883TIP3    H166064   4.974   2.418   5.040 -0.5470  2.6158  1.2865
14883TIP3    H266065   4.910   2.345   5.156  0.0665  0.6920  0.4646
14884TIP3   OH266066   0.130   3.839  12.337 -0.2844  0.1441  0.0228
14884TIP3    H166067   0.164   3.877  12.256  0.9903  2.3898  1.5148
14884TIP3    H266068   0.184   3.762  12.351  0.3317  0.4392 -0.6216
14885TIP3   OH266069   0.676   3.200   0.283 -0.2314  0.3535 -0.2167
14885TIP3    H166070   0.674   3.143   0.360  0.7488 -0.5484 -0.8461
14885TIP3    H266071   0.615   3.160   0.221 -1.0618  1.1100  0.0936
14886TIP3   OH266072   2.088   1.097   3.571 -0.0504 -0.1071  0.2064
14886TIP3    H166073   2.183   1.099   3.579 -0.1197  0.4777  0.8784
14886TIP3    H266074   2.072   1.108   3.477  0.5531 -0.7791  0.0136
14887TIP3   OH266075   2.246   5.804   0.331  0.2922  0.0491  0.4140
14887TIP3    H166076   2.322   5.786   0.275 -0.0677  2.7484 -1.0993
14887TIP3    H266077   2.281   5.804   0.420  1.7849 -0.1115 -0.1515
14888TIP3   OH266078   5.959   6.293   3.330 -0.2151  0.0689 -0.1010
14888TIP3    H166079   5.874   6.256   3.354  0.6399 -0.2315  2.8738
14888TIP3    H266080   6.014   6.218   3.310 -0.5722  0.2608 -1.9764
14889TIP3   OH266081   5.988   3.706  12.451  0.2409  0.0096  0.1605
14889TIP3    H166082   6.081   3.692  12.473  0.8932 -0.7230 -2.7290
14889TIP3    H266083   5.943   3.630  12.487  0.7867  0.1517  1.2004
14890TIP3   OH266084   6.043   2.772  13.486 -0.2786 -0.1949 -0.0028
14890TIP3    H166085   6.064   2.784  13.394 -0.0654  1.8744  0.2724
14890TIP3    H266086   6.075   2.851  13.529  0.3580 -1.4489  1.9963
14891TIP3   OH266087   0.270   1.960  14.327  0.4907  0.5352 -0.0278
14891TIP3    H166088   0.275   1.865  14.326  0.5980  0.5362  0.2746
14891TIP3    H266089   0.360   1.989  14.310  0.3893  0.5880 -0.5043
14892TIP3   OH266090   5.331   4.716  11.585 -0.2238  0.3158 -0.0276
14892TIP3    H166091   5.378   4.764  11.516  0.5714 -0.1560  0.1897
14892TIP3    H266092   5.239   4.722  11.558 -0.0968  1.5247 -0.2770
14893TIP3   OH266093   5.843   2.130  14.246  0.1150 -0.6776 -0.3750
14893TIP3    H166094   5.795   2.211  14.228  4.4858  2.6013  0.9424
14893TIP3    H266095   5.888   2.109  14.164 -0.9445 -1.8073 -0.6897
14894TIP3   OH266096   3.886   5.093  13.184 -0.0814  0.5322 -0.9339
14894TIP3    H166097   3.848   5.011  13.215  0.7269 -0.4731 -2.4786
14894TIP3    H266098   3.816   5.158  13.196 -0.9293 -0.4818 -0.2115
14895TIP3   OH266099   3.580   5.155  13.904 -0.0700  0.5126  0.0831
14895TIP3    H166100   3.552   5.088  13.966 -0.9681  2.0679  1.4209
14895TIP3    H266101   3.648   5.204  13.950 -0.1352  1.1506 -0.4823
14896TIP3   OH266102   0.429   2.042   2.566 -0.1128  0.4338 -0.1403
14896TIP3    H166103   0.515   2.032   2.606 -0.2994 -0.4058  0.0799
14896TIP3    H266104   0.438   2.000   2.480 -1.1063 -2.5158  1.0683
14897TIP3   OH266105   2.363   3.142   3.275  0.4727 -0.2399 -0.5865
14897TIP3    H166106   2.339   3.081   3.344 -1.9035  0.4315 -0.7361
14897TIP3    H266107   2.286   3.147   3.218  0.6476  2.6381 -0.7547
14898TIP3   OH266108   2.108   5.241   1.785  0.2792 -0.4225  0.0992
14898TIP3    H166109   2.040   5.292   1.740 -1.2889 -2.4062  0.0700
14898TIP3    H266110   2.131   5.294   1.861  0.1504  1.1978 -0.9250
14899TIP3   OH266111   4.390   4.529  14.718 -0.1656 -0.4140  0.5420
14899TIP3    H166112   4.338   4.454  14.747  0.6244 -0.9774  0.5280
14899TIP3    H266113   4.403   4.514  14.625 -0.6875  0.1683  0.3686
14900TIP3   OH266114   2.596   3.920  10.833  0.4095  0.2891 -0.7520
14900TIP3    H166115   2.542   3.928  10.911  0.6377 -1.6377 -0.3451
14900TIP3    H266116   2.533   3.921  10.760  0.1837  1.9140 -0.5741
14901TIP3   OH266117   0.905   6.229  13.759 -0.6854 -0.6724  0.7134
14901TIP3    H166118   0.828   6.171  13.755 -1.6694  0.4291  2.3492
14901TIP3    H266119   0.969   6.188  13.702 -1.7905 -2.7068  0.8419
14902TIP3   OH266120   5.465   4.965  17.131 -0.1696 -0.0508  0.1851
14902TIP3    H166121   5.500   4.879  17.153 -0.5316 -0.5741 -1.1818
14902TIP3    H266122   5.483   5.019  17.208  1.6175 -0.8899  0.3991
14903TIP3   OH266123   5.177   5.542   2.988  0.2268  0.1434  0.1473
14903TIP3    H166124   5.185   5.621   3.042  0.8494 -0.8407  1.5407
14903TIP3    H266125   5.085   5.518   2.994 -0.0140  0.8701 -0.4633
14904TIP3   OH266126   6.248   1.102  11.582  0.1316 -0.3146 -0.1384
14904TIP3    H166127   6.324   1.054  11.549 -0.2431 -0.2438 -1.1453
14904TIP3    H266128   6.174   1.043  11.567 -0.2676  0.3739 -0.9431
14905TIP3   OH266129   3.535   0.329  12.536 -0.2881  0.0949  0.5807
14905TIP3    H166130   3.574   0.244  12.555  1.5077  0.8500  0.4484
14905TIP3    H266131   3.473   0.344  12.608 -0.8816 -1.4492  0.4157
14906TIP3   OH266132   5.408   1.688   2.373  0.0699 -0.0273  0.9792
14906TIP3    H166133   5.352   1.705   2.449 -1.2222 -1.4077  0.4025
14906TIP3    H266134   5.354   1.713   2.298  1.3661  1.4222  0.4811
14907TIP3   OH266135   2.096   5.971  11.204 -0.5790 -0.0908 -0.1898
14907TIP3    H166136   2.090   6.031  11.279  0.7233 -0.1129 -0.0344
14907TIP3    H266137   2.033   6.005  11.141 -0.5540  0.8720  0.2884
14908TIP3   OH266138   5.715   3.053  12.888  0.0959 -0.0983  0.0571
14908TIP3    H166139   5.737   3.071  12.979  1.2320 -1.7602  0.1476
14908TIP3    H266140   5.728   3.137  12.843  1.1891  0.3258  1.1247
14909TIP3   OH266141   4.465   2.910   0.455  0.0043 -0.1826 -0.0541
14909TIP3    H166142   4.456   2.837   0.394  0.4382 -0.4940  0.2456
14909TIP3    H266143   4.456   2.988   0.401  0.9781 -0.4451 -0.6309
14910TIP3   OH266144   5.473   4.014   0.615 -0.5446  0.0307  0.0334
14910TIP3    H166145   5.460   4.077   0.544  0.3544 -0.8180 -0.9259
14910TIP3    H266146   5.555   4.041   0.656 -0.0981 -0.5790 -0.4549
14911TIP3   OH266147   3.686   4.329  15.988  0.1838  0.7363  0.4808
14911TIP3    H166148   3.706   4.236  16.001 -1.5912  0.1678 -0.3933
14911TIP3    H266149   3.693   4.368  16.075  1.4202 -0.1104  0.7822
14912TIP3   OH266150   3.633   6.670  16.704  0.0945 -0.0986 -0.6852
14912TIP3    H166151   3.677   6.669  16.789  1.6397  0.8508 -1.4404
14912TIP3    H266152   3.542   6.644  16.724  0.5347 -0.3734  1.1609
14913TIP3   OH266153   5.371   4.632   0.401  0.5308  0.4956  0.3162
14913TIP3    H166154   5.297   4.582   0.435 -0.2906 -0.3209 -2.4620
14913TIP3    H266155   5.341   4.723   0.399  0.4259  0.4897  1.2241
14914TIP3   OH266156   3.111   3.525   4.329  0.3688  0.2344  0.4343
14914TIP3    H166157   3.088   3.531   4.236  0.6832 -2.4999  0.1165
14914TIP3    H266158   3.206   3.517   4.329  0.3285 -0.2170  0.9686
14915TIP3   OH266159   0.854   3.165  16.320  0.5300 -0.5906  0.3140
14915TIP3    H166160   0.759   3.153  16.329  0.2149  0.5824 -1.0628
14915TIP3    H266161   0.882   3.194  16.406 -1.0430  2.7712 -0.1201
14916TIP3   OH266162   6.162   0.719  16.113 -0.5516 -0.3049 -0.0040
14916TIP3    H166163   6.074   0.686  16.131  0.4280 -1.7087  3.0184
14916TIP3    H266164   6.169   0.800  16.164 -0.0173 -0.4030  0.0912
14917TIP3   OH266165   2.158   4.428   4.870  0.4093 -0.3290  0.4624
14917TIP3    H166166   2.151   4.332   4.876  1.3113 -0.5778 -1.5070
14917TIP3    H266167   2.198   4.443   4.784  0.8768  1.8001  1.0027
14918TIP3   OH266168   1.060   3.716   1.591 -0.2875  0.1129 -0.0956
14918TIP3    H166169   1.110   3.795   1.573  0.0073  0.3934  1.6936
14918TIP3    H266170   0.970   3.747   1.603 -0.2168  0.1617  0.3480
14919TIP3   OH266171   6.447   5.211  13.729  0.3417  0.5987 -0.3403
14919TIP3    H166172   6.487   5.228  13.815 -2.5009  0.5683  1.1333
14919TIP3    H266173   6.485   5.129  13.700  0.6289  0.0698  1.4139
14920TIP3   OH266174   2.593   6.238   2.302  0.1191 -0.8777 -0.0079
14920TIP3    H166175   2.573   6.309   2.240  0.0221  0.4542  1.4991
14920TIP3    H266176   2.673   6.266   2.346 -0.7146 -0.9741  1.6422
14921TIP3   OH266177   4.559   3.111   2.842  0.3681  0.2321 -0.1416
14921TIP3    H166178   4.544   3.205   2.853 -1.9079 -0.2694  2.0616
14921TIP3    H266179   4.607   3.104   2.759  0.8305  3.3150 -0.2651
14922TIP3   OH266180   3.025   5.153   2.230 -0.6469  0.4645 -0.0124
14922TIP3    H166181   2.977   5.071   2.219 -0.2142  0.1967  0.0916
14922TIP3    H266182   2.966   5.220   2.195 -0.2624 -0.0928 -1.8114
14923TIP3   OH266183   5.026   2.451  10.984 -0.5204  0.4904 -0.4289
14923TIP3    H166184   4.973   2.432  10.907  0.5873 -0.3868 -1.0029
14923TIP3    H266185   4.965   2.492  11.046 -1.1103  2.7032 -2.3379
14924TIP3   OH266186   1.697   5.718   0.359  0.1697  0.6726  0.3288
14924TIP3    H166187   1.611   5.760   0.365 -0.0142  0.1291  3.5218
14924TIP3    H266188   1.760   5.791   0.365 -0.1019  0.8826  0.6644
14925TIP3   OH266189   2.689   1.435  12.382  0.2020 -0.5236 -0.7707
14925TIP3    H166190   2.644   1.498  12.326  0.3700 -0.2913 -0.6465
14925TIP3    H266191   2.779   1.469  12.389  0.3524 -0.8916 -0.8795
14926TIP3   OH266192   3.802   1.791   2.013 -0.5837 -0.3078 -0.3230
14926TIP3    H166193   3.729   1.766   2.070 -1.0333 -0.8144 -1.1056
14926TIP3    H266194   3.808   1.721   1.949  0.6733 -0.3262 -0.2075
14927TIP3   OH266195   1.728   3.946   2.351  0.0671  0.0303 -0.4537
14927TIP3    H166196   1.742   4.041   2.345 -1.4220  0.5483  2.3334
14927TIP3    H266197   1.816   3.910   2.362  0.7892  0.8767 -2.9589
14928TIP3   OH266198   4.559   6.631   0.143  1.3379  0.2121 -0.5911
14928TIP3    H166199   4.612   6.557   0.174  0.3696 -0.4533 -0.4799
14928TIP3    H266200   4.597   6.654   0.058  2.1453  0.1130 -0.2676
14929TIP3   OH266201   3.222   3.412  14.786  0.2205  0.5298  0.5699
14929TIP3    H166202   3.134   3.407  14.824 -0.1843  0.3682 -0.3596
14929TIP3    H266203   3.209   3.394  14.693  1.3049  0.0622  0.4961
14930TIP3   OH266204   2.750   2.862   1.195  0.1226 -0.2845  0.4699
14930TIP3    H166205   2.785   2.774   1.208 -0.6724 -0.3191  2.6953
14930TIP3    H266206   2.659   2.857   1.224 -0.0875  1.1563  0.1431
14931TIP3   OH266207   5.412   0.650  16.491  0.1109  0.1520 -0.5377
14931TIP3    H166208   5.503   0.671  16.511  0.7949 -0.8591 -2.3497
14931TIP3    H266209   5.367   0.653  16.576  1.7182  1.1278  0.3134
14932TIP3   OH266210   3.456   2.534   2.232  0.1896  0.2024  0.1179
14932TIP3    H166211   3.442   2.628   2.242 -2.7957 -0.2115  0.8364
14932TIP3    H266212   3.433   2.498   2.318  1.2391 -1.2060 -0.1689
14933TIP3   OH266213   3.683   6.425   2.812 -0.0274 -0.5396  0.0217
14933TIP3    H166214   3.657   6.337   2.842  0.4567 -1.6293 -2.5101
14933TIP3    H266215   3.769   6.413   2.772 -0.4806  0.8229 -1.4801
14934TIP3   OH266216   0.418   5.738   4.015  0.0523 -0.1138 -0.1159
14934TIP3    H166217   0.472   5.755   4.092  0.6392 -0.5967 -0.4050
14934TIP3    H266218   0.329   5.732   4.048  0.0151  1.7606  0.2299
14935TIP3   OH266219   5.492   0.732   2.016  0.1425 -0.4914  0.1701
14935TIP3    H166220   5.495   0.661   2.080  0.7935 -0.5867  0.0358
14935TIP3    H266221   5.575   0.726   1.969 -0.1301 -0.1241 -0.3648
14936TIP3   OH266222   1.717   3.560  15.986  0.1205  0.1090 -0.0686
14936TIP3    H166223   1.778   3.489  15.966  1.2659  1.1925 -0.5506
14936TIP3    H266224   1.659   3.524  16.053  0.9274 -1.1414 -0.0211
14937TIP3   OH266225   6.423   4.226  15.531 -0.1770 -0.5394  0.1767
14937TIP3    H166226   6.442   4.154  15.592 -2.4953 -0.7310  0.7634
14937TIP3    H266227   6.370   4.287  15.582 -0.1265  0.4980 -0.9831
14938TIP3   OH266228   1.036   0.565   1.935  0.6511  0.1710  0.1670
14938TIP3    H166229   1.021   0.555   2.029  1.7291  2.1211  0.5849
14938TIP3    H266230   0.969   0.627   1.906 -0.4364 -1.3139 -0.6350
14939TIP3   OH266231   6.547   1.140   0.282 -0.4755 -0.1906 -0.1190
14939TIP3    H166232   6.476   1.198   0.255  0.6949  1.2271 -0.2888
14939TIP3    H266233   6.507   1.081   0.346 -1.6858  0.8599  0.1278
14940TIP3   OH266234   4.443   2.121  11.911  0.5261 -0.6180 -0.6702
14940TIP3    H166235   4.496   2.046  11.940  0.5660 -0.0534  0.7955
14940TIP3    H266236   4.353   2.090  11.915  0.1646  0.3169  3.3916
14941TIP3   OH266237   3.326   0.485  12.115 -0.2188 -0.5396 -0.1585
14941TIP3    H166238   3.317   0.456  12.024 -0.9281 -1.6661  0.2543
14941TIP3    H266239   3.345   0.579  12.108 -0.0065 -0.6587 -1.4697
14942TIP3   OH266240   5.570   4.826  13.506  0.3328  0.2109  0.5424
14942TIP3    H166241   5.545   4.912  13.471 -1.3475 -1.0360 -1.6072
14942TIP3    H266242   5.665   4.831  13.515  0.2884  2.2740  0.4256
14943TIP3   OH266243   6.401   6.635   2.618  0.8392  0.4401 -0.3929
14943TIP3    H166244   6.350   6.583   2.680  0.6775 -1.0677 -1.7246
14943TIP3    H266245   6.407   6.722   2.658 -0.5721 -0.0568  0.9797
14944TIP3   OH266246   3.100   4.014   3.611 -0.2103  0.1039  0.2469
14944TIP3    H166247   3.081   3.943   3.672  2.3717 -1.1391 -0.2745
14944TIP3    H266248   3.089   3.975   3.524 -0.0463  0.7284 -0.0641
14945TIP3   OH266249   1.665   0.008  11.303 -0.1414  0.6175 -0.7097
14945TIP3    H166250   1.654   0.064  11.226 -1.1869  0.2138 -0.8749
14945TIP3    H266251   1.576  -0.020  11.325  0.3302 -0.7285 -0.4432
14946TIP3   OH266252   3.776   0.549   0.777  1.2495 -0.2102  0.4904
14946TIP3    H166253   3.863   0.541   0.737  0.6049 -0.7962 -0.8517
14946TIP3    H266254   3.716   0.512   0.712  0.1638 -1.4006  2.0880
14947TIP3   OH266255   5.642   6.180   0.287 -0.2317 -0.7130 -0.2435
14947TIP3    H166256   5.653   6.233   0.209 -1.4578 -0.6398 -0.3779
14947TIP3    H266257   5.657   6.241   0.360 -4.5586  0.7218 -0.2878
14948TIP3   OH266258   6.146   6.391   1.062 -0.3991 -0.3486  0.3519
14948TIP3    H166259   6.119   6.480   1.037 -1.1593 -0.6486  0.0670
14948TIP3    H266260   6.201   6.403   1.139  0.0273  0.4194 -0.0603
14949TIP3   OH266261   2.966   6.595   5.954 -0.2876  0.2251  0.5134
14949TIP3    H166262   2.972   6.552   6.039  1.8575 -0.5824  0.0272
14949TIP3    H266263   2.997   6.530   5.891 -0.1740  1.3733 -0.6759
14950TIP3   OH266264   0.873   1.786   0.507 -0.3063  0.0396  0.1173
14950TIP3    H166265   0.888   1.871   0.549 -0.0248  0.7831 -1.4305
14950TIP3    H266266   0.916   1.793   0.422  1.4650 -2.3850  0.7225
14951TIP3   OH266267   1.304   6.490   3.524 -0.2580  0.4284  0.0476
14951TIP3    H166268   1.213   6.467   3.508 -0.3901  0.6685  0.4379
14951TIP3    H266269   1.310   6.496   3.620 -0.2347  2.0681 -0.0309
14952TIP3   OH266270   1.967   4.695   1.746 -0.0939 -0.5062 -0.0080
14952TIP3    H166271   1.948   4.789   1.749 -0.0881 -0.5391  1.8866
14952TIP3    H266272   2.049   4.689   1.696 -1.3907  0.2253 -2.3776
14953TIP3   OH266273   3.903   4.291  17.013 -0.3070  0.4252  0.6961
14953TIP3    H166274   3.841   4.339  16.958  1.4122  1.7627 -0.1657
14953TIP3    H266275   3.898   4.334  17.098  0.3830  1.4215  0.2509
14954TIP3   OH266276   6.139   4.114  17.087  0.9089  0.2518  0.1768
14954TIP3    H166277   6.097   4.143  17.006 -0.1424 -0.5862  0.4039
14954TIP3    H266278   6.071   4.065  17.133  1.4930  0.7153  1.5714
14955TIP3   OH266279   2.625   4.589  11.672 -0.1653 -0.2224  0.0697
14955TIP3    H166280   2.685   4.646  11.624 -1.7479  0.6648 -0.9296
14955TIP3    H266281   2.621   4.509  11.620  1.6566 -1.1188  1.2016
14956TIP3   OH266282   1.453   4.470  16.114  0.4850  0.8699  0.3741
14956TIP3    H166283   1.376   4.513  16.078  0.9294  1.4938  0.1518
14956TIP3    H266284   1.423   4.433  16.197 -0.9584 -1.8762 -1.2285
14957TIP3   OH266285   4.751   5.171  14.980 -0.3359 -0.4695 -0.1999
14957TIP3    H166286   4.723   5.248  14.930  0.0717 -0.3765 -0.2915
14957TIP3    H266287   4.784   5.206  15.062  1.9794 -0.3037 -1.1209
14958TIP3   OH266288   1.734   3.643  12.798 -0.0848  0.4267  0.0731
14958TIP3    H166289   1.752   3.601  12.714 -0.2640 -0.7657  0.6012
14958TIP3    H266290   1.779   3.727  12.793  0.4670  0.0927 -0.9582
14959TIP3   OH266291   4.490   4.207   4.882 -0.4081 -0.2050  0.0698
14959TIP3    H166292   4.439   4.132   4.851 -0.9213 -0.1977  0.8613
14959TIP3    H266293   4.571   4.203   4.832 -0.8891 -0.6359 -0.6980
14960TIP3   OH266294   0.226   0.938   6.138  0.4493 -0.2633 -0.0192
14960TIP3    H166295   0.184   1.016   6.101  1.7865  1.6992  2.3451
14960TIP3    H266296   0.318   0.949   6.117  1.1741  0.6381  3.1455
14961TIP3   OH266297   5.202   6.379  17.188 -0.0983  0.1853 -0.1170
14961TIP3    H166298   5.201   6.458  17.134 -1.3521  1.4544  1.6319
14961TIP3    H266299   5.254   6.404  17.265 -2.7828  0.3386  1.7712
14962TIP3   OH266300   0.256   3.139   5.513 -0.1220  0.0284  0.1199
14962TIP3    H166301   0.235   3.150   5.420  0.8012 -1.1248 -0.2450
14962TIP3    H266302   0.318   3.066   5.515  0.0925  0.2285  1.6208
14963TIP3   OH266303   0.277   3.441  13.090 -0.4425 -0.2951 -0.1685
14963TIP3    H166304   0.262   3.347  13.106 -0.6505 -0.0697  1.0557
14963TIP3    H266305   0.193   3.482  13.113 -0.2210  0.2333 -0.3032
14964TIP3   OH266306   4.936   3.296  14.745 -0.1040 -0.1330 -0.0220
14964TIP3    H166307   4.971   3.347  14.673 -0.5352 -0.1317 -0.2365
14964TIP3    H266308   4.926   3.359  14.817  0.2648 -0.1217  0.0204
14965TIP3   OH266309   1.512   6.463  16.395 -0.3123  0.3417  0.3190
14965TIP3    H166310   1.452   6.422  16.333 -0.4427  0.1714  0.5560
14965TIP3    H266311   1.462   6.468  16.477  0.0755 -0.0119  0.5800
14966TIP3   OH266312   5.810   0.017   2.650  0.0714  0.1858  0.3768
14966TIP3    H166313   5.796  -0.071   2.686 -1.5302 -0.5242 -1.7869
14966TIP3    H266314   5.904   0.020   2.630  0.3483 -0.6141  1.4434
14967TIP3   OH266315   4.570   2.051  13.360 -0.2329 -0.1786  0.7358
14967TIP3    H166316   4.541   1.970  13.317 -2.0493  1.5801 -1.6286
14967TIP3    H266317   4.603   2.105  13.288 -1.5285  2.1911  1.8199
14968TIP3   OH266318   0.485   5.826   1.962  0.3127  0.6449 -0.1179
14968TIP3    H166319   0.394   5.807   1.938  0.4292 -0.2930  0.1169
14968TIP3    H266320   0.504   5.910   1.921 -0.8768  1.1920  0.3881
14969TIP3   OH266321   4.811   1.609   1.063 -0.0615  0.2320  0.2350
14969TIP3    H166322   4.846   1.652   0.985 -1.5999 -1.0084 -1.2272
14969TIP3    H266323   4.888   1.581   1.111  0.9406  0.9821 -0.8683
14970TIP3   OH266324   2.441   1.750  14.106 -0.6524 -0.2099 -0.3179
14970TIP3    H166325   2.355   1.792  14.100 -0.2758  0.5567 -0.4825
14970TIP3    H266326   2.502   1.818  14.078  0.3729  0.4732  3.1040
14971TIP3   OH266327   5.899   0.257   6.483 -0.0843  0.4587  0.3115
14971TIP3    H166328   5.978   0.311   6.493  0.7874 -0.7810  0.3228
14971TIP3    H266329   5.898   0.201   6.561  1.0792 -2.0754 -1.3621
14972TIP3   OH266330   0.337   5.928   1.315  0.0645 -0.6113  0.1046
14972TIP3    H166331   0.381   5.912   1.231 -1.7970 -2.4220 -0.5944
14972TIP3    H266332   0.357   5.850   1.367 -0.9249 -0.6826  0.3818
14973TIP3   OH266333   1.739   2.128  11.828  0.0178 -0.1671  0.5530
14973TIP3    H166334   1.783   2.138  11.744 -0.9039  1.5166  0.2075
14973TIP3    H266335   1.756   2.038  11.854  0.5507 -0.6513 -1.3102
14974TIP3   OH266336   4.679   0.782   3.381 -0.7388  0.1635 -0.1618
14974TIP3    H166337   4.693   0.853   3.318 -0.0535  1.5143  1.4088
14974TIP3    H266338   4.585   0.766   3.379 -1.0184  1.6194 -0.1071
14975TIP3   OH266339   2.462   1.965  13.130 -0.4351 -0.3933 -0.0233
14975TIP3    H166340   2.523   1.899  13.099 -0.9539 -0.4481 -1.0071
14975TIP3    H266341   2.437   1.938  13.218  0.3166 -0.8150  0.0576
14976TIP3   OH266342   6.125   2.599   1.886 -0.2020 -0.3652 -0.6113
14976TIP3    H166343   6.184   2.589   1.961 -0.3488 -0.9550 -0.5689
14976TIP3    H266344   6.053   2.652   1.919 -0.4281 -0.8979 -0.2356
14977TIP3   OH266345   3.932   6.014  13.471 -0.1732 -0.1772 -0.5961
14977TIP3    H166346   3.893   6.037  13.556  0.0138 -1.7978 -0.0427
14977TIP3    H266347   4.020   5.984  13.493  0.2835  0.4600 -1.5055
14978TIP3   OH266348   4.549   0.012  11.970 -0.5559 -0.4524  0.2857
14978TIP3    H166349   4.583  -0.002  12.059  1.2910  1.0468 -0.1056
14978TIP3    H266350   4.572  -0.068  11.923  1.5376  0.0370  0.3562
14979TIP3   OH266351   2.269   2.132  13.916 -0.2199 -0.0483 -0.1499
14979TIP3    H166352   2.295   2.214  13.958 -0.7953  0.7979 -1.3734
14979TIP3    H266353   2.350   2.096  13.882 -0.0682  0.4459 -0.3279
14980TIP3   OH266354   3.971   5.636  15.572  0.0062  0.3645  0.3706
14980TIP3    H166355   4.064   5.621  15.585  0.0483 -1.0308 -1.2376
14980TIP3    H266356   3.929   5.593  15.647  0.6285  0.9990  1.0971
14981TIP3   OH266357   6.708   0.971  13.887  0.2652  0.3292 -0.0013
14981TIP3    H166358   6.708   1.065  13.875 -0.0671  0.3491  0.1219
14981TIP3    H266359   6.792   0.951  13.930  0.7475  0.4457 -0.8834
14982TIP3   OH266360   6.365   5.963  16.286  0.7889 -0.9152  0.4166
14982TIP3    H166361   6.355   5.868  16.293  0.2953 -0.7650  2.4970
14982TIP3    H266362   6.325   5.985  16.202 -1.1822 -2.3366  0.8861
14983TIP3   OH266363   4.098   1.345   5.810  0.5073 -0.4163  0.0239
14983TIP3    H166364   4.104   1.364   5.717 -1.9961  0.1846 -0.0911
14983TIP3    H266365   4.084   1.250   5.814 -0.6106 -0.2871 -0.3403
14984TIP3   OH266366   1.733   2.964   5.176 -0.0095 -0.2184  0.3817
14984TIP3    H166367   1.792   2.893   5.201 -0.8544 -1.6990 -1.5444
14984TIP3    H266368   1.746   2.974   5.081 -0.5021  1.6715  0.4694
14985TIP3   OH266369   5.907   1.803  13.824 -0.2991 -1.0030  0.2761
14985TIP3    H166370   5.854   1.854  13.762  0.4509 -0.4960  0.0463
14985TIP3    H266371   5.933   1.726  13.774  1.1884 -0.0919 -0.4145
14986TIP3   OH266372   2.795   2.138  10.851 -0.3381 -0.3697 -0.0208
14986TIP3    H166373   2.839   2.086  10.783 -0.4845 -1.4373  0.6776
14986TIP3    H266374   2.702   2.131  10.828 -0.2901  0.3678 -0.4552
14987TIP3   OH266375   4.766   3.027   4.140 -0.3402 -0.0191  0.3541
14987TIP3    H166376   4.706   2.973   4.191  1.2859 -0.7312  1.6207
14987TIP3    H266377   4.838   2.969   4.118 -0.1615  0.7624 -1.2685
14988TIP3   OH266378   3.763   2.265   4.393 -0.0067  0.1196 -1.1431
14988TIP3    H166379   3.784   2.283   4.301  0.9381 -0.8463 -1.1425
14988TIP3    H266380   3.678   2.222   4.390 -0.3671  0.8468 -1.4916
14989TIP3   OH266381   4.447   3.648  12.364  0.2137 -0.1383  0.0423
14989TIP3    H166382   4.540   3.645  12.382  0.3760  2.3095 -0.0903
14989TIP3    H266383   4.413   3.564  12.398  2.6217 -1.7636 -1.2860
14990TIP3   OH266384   5.960   3.322   5.802  0.2597  0.1117  0.0355
14990TIP3    H166385   5.873   3.286   5.783  0.0725  0.6513 -0.1365
14990TIP3    H266386   6.018   3.245   5.800 -0.2782 -0.3190  0.6036
14991TIP3   OH266387   5.971   1.370   2.045 -0.4015 -0.1462  0.5987
14991TIP3    H166388   5.892   1.376   1.992  0.0831 -0.4718 -0.1820
14991TIP3    H266389   5.954   1.298   2.105 -0.3420 -0.8431 -0.2008
14992TIP3   OH266390   2.320   0.855   3.339 -0.2342  0.0550 -0.2338
14992TIP3    H166391   2.279   0.939   3.360  2.3394  1.2295  0.3713
14992TIP3    H266392   2.282   0.830   3.255  0.3258  2.7709 -1.3742
14993TIP3   OH266393   1.238   1.272   2.200 -0.8479  0.2424 -0.0973
14993TIP3    H166394   1.329   1.262   2.228 -1.3826  0.5392  1.9622
14993TIP3    H266395   1.241   1.274   2.105  1.2579 -0.0688 -0.0701
14994TIP3   OH266396   1.685   3.375  12.818 -0.0551  0.0148  0.1774
14994TIP3    H166397   1.704   3.366  12.912 -0.6512  0.6658  0.3648
14994TIP3    H266398   1.636   3.456  12.811  1.1345  0.6760 -0.8718
14995TIP3   OH266399   5.528   2.722  16.463 -0.4134  0.0410  0.2357
14995TIP3    H166400   5.504   2.640  16.506 -0.7829 -0.4966 -0.9621
14995TIP3    H266401   5.471   2.788  16.503  0.0956 -0.1987  1.4211
14996TIP3   OH266402   0.561   5.921  12.690 -0.1421  0.4218  0.0592
14996TIP3    H166403   0.591   5.881  12.609 -0.1383 -0.7085  0.6043
14996TIP3    H266404   0.514   6.000  12.662  0.8626  0.6795 -0.9619
14997TIP3   OH266405   5.078   3.082  13.293  0.0011 -0.0819  0.2717
14997TIP3    H166406   5.098   3.069  13.200  0.6416  0.1812  0.3682
14997TIP3    H266407   5.043   2.998  13.322  1.1519 -0.6267  0.1323
14998TIP3   OH266408   6.291   2.702   0.711  0.0347  0.3981  0.1338
14998TIP3    H166409   6.366   2.752   0.680  1.0563 -1.0924  0.1020
14998TIP3    H266410   6.285   2.724   0.804  0.9712 -0.0061  0.3011
14999TIP3   OH266411   0.186   1.884  11.544 -0.0467  0.2613  0.2562
14999TIP3    H166412   0.228   1.969  11.530  0.5224 -0.2354 -1.1333
14999TIP3    H266413   0.258   1.821  11.548 -0.5218 -0.2952  0.2822
15000TIP3   OH266414   3.734   2.466  13.245  0.0178 -0.6609  0.1365
15000TIP3    H166415   3.687   2.390  13.209 -1.1927  1.2496 -2.6743
15000TIP3    H266416   3.665   2.521  13.282  0.6406 -0.0316  0.3858
15001TIP3   OH266417   2.131   3.289  17.398 -0.2062  0.0746 -0.0003
15001TIP3    H166418   2.123   3.362  17.460  1.2385  0.1395  0.1513
15001TIP3    H266419   2.225   3.272  17.393 -0.3977 -0.7801 -1.2113
15002TIP3   OH266420   1.581   1.605   0.786 -0.2231  0.1366 -0.2218
15002TIP3    H166421   1.674   1.590   0.770 -0.3301  0.4787 -1.2440
15002TIP3    H266422   1.578   1.661   0.863  0.3632 -0.8428  0.5418
15003TIP3   OH266423   1.625   3.898  11.328 -0.2571 -0.1728  0.5380
15003TIP3    H166424   1.714   3.912  11.294  0.1270 -2.3291  0.4749
15003TIP3    H266425   1.596   3.817  11.285 -2.7202  1.0418 -0.2841
15004TIP3   OH266426   2.462   4.465  15.977 -0.3297  0.1196  0.1332
15004TIP3    H166427   2.382   4.450  16.027 -1.1667  0.1356 -1.1702
15004TIP3    H266428   2.478   4.383  15.931 -0.0939  0.4043 -0.2998
15005TIP3   OH266429   6.434   3.290   2.606 -0.7193 -0.2934  0.2281
15005TIP3    H166430   6.522   3.294   2.568 -0.4778  0.0381  0.8089
15005TIP3    H266431   6.412   3.197   2.604  0.3206 -0.5989  1.5546
15006TIP3   OH266432   4.136   5.423   2.741  0.2603  0.0355  0.1874
15006TIP3    H166433   4.105   5.426   2.651  2.5202  1.4489 -0.6473
15006TIP3    H266434   4.174   5.336   2.751 -0.5859 -0.3590  0.0078
15007TIP3   OH266435   0.763   1.121   5.656  0.4491 -0.6279 -0.2813
15007TIP3    H166436   0.846   1.126   5.704 -1.3193 -0.5273  3.0224
15007TIP3    H266437   0.754   1.028   5.634  0.4354 -1.0215  1.2979
15008TIP3   OH266438   3.390   4.492   2.917 -0.2047  0.3179  0.0548
15008TIP3    H166439   3.311   4.541   2.898 -0.0497  0.1797 -1.0165
15008TIP3    H266440   3.460   4.538   2.870  0.2681  0.1428  0.5630
15009TIP3   OH266441   5.881   3.726  16.637  0.0836  0.1417 -0.0896
15009TIP3    H166442   5.959   3.685  16.600  0.2947 -0.2922  0.7977
15009TIP3    H266443   5.858   3.795  16.575  0.8991 -0.0299 -0.5965
15010TIP3   OH266444   0.904   5.265   1.973 -0.2801  0.1175 -0.0474
15010TIP3    H166445   0.835   5.321   1.940  1.4257  2.1245 -0.4264
15010TIP3    H266446   0.870   5.230   2.056 -2.5565 -0.7882 -1.2854
15011TIP3   OH266447   2.038   5.148   0.488  0.1891  0.1762  0.5210
15011TIP3    H166448   2.130   5.122   0.486  0.4675  1.1012 -1.7121
15011TIP3    H266449   2.040   5.243   0.502 -0.3780  0.2734  0.0149
15012TIP3   OH266450   4.115   6.045  13.704  0.1998  0.2763  0.3776
15012TIP3    H166451   4.205   6.027  13.731 -0.2646 -0.5927  1.4169
15012TIP3    H266452   4.062   5.991  13.762 -0.8744 -1.6666 -2.2149
15013TIP3   OH266453   6.143   1.206   1.932 -0.1855 -0.1441 -0.1314
15013TIP3    H166454   6.231   1.243   1.928  0.3197 -1.2048  0.7158
15013TIP3    H266455   6.090   1.276   1.969 -0.2084  1.3176 -2.7173
15014TIP3   OH266456   0.918   1.912   3.226 -0.1117  0.7451 -0.0601
15014TIP3    H166457   1.007   1.939   3.249  0.7925 -1.9978  0.0033
15014TIP3    H266458   0.928   1.863   3.144 -1.8532  1.8205 -0.9740
15015TIP3   OH266459   3.480   1.820  12.012 -0.2742  0.7206 -0.3220
15015TIP3    H166460   3.495   1.759  11.940 -1.0948  1.4320 -1.1231
15015TIP3    H266461   3.385   1.818  12.026 -0.0047 -0.5893  1.8352
15016TIP3   OH266462   0.276   5.370   4.485 -0.1675 -0.2329 -0.5472
15016TIP3    H166463   0.314   5.302   4.430  1.2127  1.6070 -2.0246
15016TIP3    H266464   0.185   5.378   4.455 -0.4526 -1.5907 -0.1187
15017TIP3   OH266465   0.731   5.892  15.071 -0.0875  0.5084 -0.3622
15017TIP3    H166466   0.729   5.884  14.976  1.1538 -0.0043 -0.3598
15017TIP3    H266467   0.709   5.804  15.103  0.2133  0.4936 -0.1882
15018TIP3   OH266468   4.535   6.091   6.171 -0.2381 -0.0768  0.2796
15018TIP3    H166469   4.482   6.021   6.134  1.9308 -1.7964  0.2285
15018TIP3    H266470   4.474   6.143   6.223 -2.3952 -0.5127 -1.6909
15019TIP3   OH266471   1.176   6.514  12.517 -0.1673 -0.4403  0.3775
15019TIP3    H166472   1.099   6.545  12.470  0.4181  0.1689 -0.2036
15019TIP3    H266473   1.202   6.434  12.470 -0.5808 -0.7916  0.7314
15020TIP3   OH266474   1.950   4.975   1.675 -0.1833  0.5521  0.1708
15020TIP3    H166475   2.019   4.946   1.616 -1.3332 -1.8412 -0.1337
15020TIP3    H266476   1.992   5.039   1.733  2.5960 -1.6586  0.7754
15021TIP3   OH266477   2.669   5.488  13.453 -0.4771 -0.5062  0.6296
15021TIP3    H166478   2.667   5.393  13.454  0.4428 -0.5393  0.2242
15021TIP3    H266479   2.693   5.511  13.363  0.4680  0.0708  1.0169
15022TIP3   OH266480   5.304   2.532   1.712  0.4049  0.1945 -0.0535
15022TIP3    H166481   5.222   2.519   1.664  1.1681  0.0327 -1.3643
15022TIP3    H266482   5.281   2.520   1.804 -1.0787  0.3660 -0.3867
15023TIP3   OH266483   0.256   5.008  14.115 -0.3640 -0.0696  0.0036
15023TIP3    H166484   0.203   4.977  14.042  1.0438 -2.4036 -0.1150
15023TIP3    H266485   0.254   4.936  14.178 -0.7642  1.5037  1.8904
15024TIP3   OH266486   2.027   4.003   1.572  0.6581 -0.8007 -0.3268
15024TIP3    H166487   2.033   4.028   1.480 -0.8558 -1.5862 -0.6770
15024TIP3    H266488   1.974   4.073   1.612  1.8696 -0.1101  0.1147
15025TIP3   OH266489   3.725   1.580  15.110 -0.4985 -0.0391 -0.2952
15025TIP3    H166490   3.717   1.656  15.052 -1.3171  0.4229  0.4100
15025TIP3    H266491   3.773   1.516  15.057 -1.4874  0.2435 -1.6048
15026TIP3   OH266492   3.464   5.602  11.344  0.1872  0.1627  0.3838
15026TIP3    H166493   3.369   5.595  11.336  0.2230 -1.9208  1.0133
15026TIP3    H266494   3.498   5.552  11.269  0.7177 -1.0499  1.3925
15027TIP3   OH266495   4.586   3.899  12.779 -0.1601 -0.2310  1.0007
15027TIP3    H166496   4.616   3.934  12.863  2.1813 -1.3844  0.7353
15027TIP3    H266497   4.666   3.876  12.732 -1.4162 -0.1605 -1.3429
15028TIP3   OH266498   0.937   0.191   0.481 -0.6814 -0.2144 -0.2175
15028TIP3    H166499   0.969   0.234   0.401 -1.0871  2.6105  1.0388
15028TIP3    H266500   0.934   0.098   0.458  1.8779  0.1478 -2.5794
15029TIP3   OH266501   2.015   1.294   4.014  0.3070  0.0850  0.0567
15029TIP3    H166502   2.025   1.310   4.108 -0.5169 -0.7179  0.2913
15029TIP3    H266503   1.932   1.337   3.991 -0.4155 -1.2453  0.0842
15030TIP3   OH266504   3.059   2.753   5.698  0.4624 -0.1831 -0.4799
15030TIP3    H166505   3.148   2.720   5.706  0.4150 -0.3539 -0.6404
15030TIP3    H266506   3.062   2.840   5.736  0.3523 -0.7588  0.9239
15031TIP3   OH266507   6.307   3.334   5.291 -0.6267 -0.1292 -0.0102
15031TIP3    H166508   6.232   3.376   5.250  0.2779  0.7530 -0.8009
15031TIP3    H266509   6.367   3.406   5.310  0.1239 -0.8503  0.3944
15032TIP3   OH266510   1.191   1.897   0.305  0.0674 -0.0701  0.3045
15032TIP3    H166511   1.170   1.804   0.297 -0.0247 -0.0439  0.2320
15032TIP3    H266512   1.151   1.923   0.388  1.2055 -0.3891  0.9664
15033TIP3   OH266513   0.986   6.198   2.410  0.0406  0.2943 -0.0760
15033TIP3    H166514   0.900   6.176   2.375 -0.3644  1.4314  0.1400
15033TIP3    H266515   0.971   6.208   2.504 -0.3412  3.4895 -0.3420
15034TIP3   OH266516   0.953   5.465   2.927 -0.1064 -0.2443  0.4411
15034TIP3    H166517   0.901   5.544   2.941  0.0589 -0.1845  0.7414
15034TIP3    H266518   0.969   5.462   2.833  0.1609  0.2516  0.4692
15035TIP3   OH266519   6.194   4.358  12.717 -0.2706 -0.0214  0.0167
15035TIP3    H166520   6.142   4.422  12.669 -0.4187  1.1339  1.6642
15035TIP3    H266521   6.172   4.274  12.675  0.1801  0.9744 -2.3930
15036TIP3   OH266522   2.706   6.367   5.388 -0.1829 -0.2313 -0.2958
15036TIP3    H166523   2.655   6.449   5.389  0.0805 -0.0690  0.4242
15036TIP3    H266524   2.711   6.341   5.479 -0.2001 -1.0263 -0.5144
15037TIP3   OH266525   6.175   6.490   1.628 -0.4829  0.1373  0.7605
15037TIP3    H166526   6.158   6.584   1.619  1.0735  0.2714 -2.0635
15037TIP3    H266527   6.123   6.450   1.558  1.8805 -0.5838 -0.7102
15038TIP3   OH266528   4.746   2.570  14.629 -0.4626 -0.2394  0.6042
15038TIP3    H166529   4.707   2.621  14.558 -1.5848  0.3842  1.6421
15038TIP3    H266530   4.724   2.479  14.608 -1.4806  0.0104  0.5623
15039TIP3   OH266531   5.778   1.314   0.999  0.1682  0.5394 -0.2794
15039TIP3    H166532   5.871   1.334   0.988  0.2975 -0.9768 -2.3398
15039TIP3    H266533   5.742   1.319   0.911 -1.6274  0.5646  0.4182
15040TIP3   OH266534   2.998   0.008  11.251  0.4467 -0.3335  0.1359
15040TIP3    H166535   3.017  -0.042  11.172  0.4558  0.5323 -0.4283
15040TIP3    H266536   2.981   0.097  11.220  1.3383  0.2410  1.1793
15041TIP3   OH266537   3.224   5.239  13.340  0.3630  0.3314  0.5647
15041TIP3    H166538   3.274   5.320  13.346 -0.6180  0.9413  0.6345
15041TIP3    H266539   3.133   5.267  13.329  0.0964 -0.7571 -0.1266
15042TIP3   OH266540   3.851   0.710  17.048 -0.7238 -0.0463  0.5766
15042TIP3    H166541   3.866   0.624  17.010 -0.9559  0.6825 -1.2419
15042TIP3    H266542   3.757   0.726  17.035 -0.4176  1.0731 -0.4726
15043TIP3   OH266543   5.471   0.458  13.844  0.3201 -0.4700  0.1355
15043TIP3    H166544   5.532   0.489  13.911  0.6670  0.4962 -0.6082
15043TIP3    H266545   5.494   0.507  13.766  0.2022 -1.8864 -0.8241
15044TIP3   OH266546   3.116   3.407   2.147 -0.2259 -0.6564 -0.2378
15044TIP3    H166547   3.196   3.427   2.098 -1.1914  1.1128 -1.1936
15044TIP3    H266548   3.045   3.438   2.090 -1.6054 -2.1015  0.6223
15045TIP3   OH266549   5.622   4.955  16.149  0.1835  0.0951  0.2082
15045TIP3    H166550   5.664   4.871  16.167  0.3770 -0.1256 -1.1317
15045TIP3    H266551   5.691   5.008  16.109 -0.4786  0.1475 -0.9039
15046TIP3   OH266552   4.918   6.354  17.103 -0.3647 -0.0247 -0.0033
15046TIP3    H166553   4.886   6.404  17.178 -1.1815  1.1554 -1.0929
15046TIP3    H266554   5.013   6.357  17.111 -0.4159  1.1841  0.2842
15047TIP3   OH266555   3.170   0.792   1.375 -0.5005 -0.1252 -0.6933
15047TIP3    H166556   3.260   0.815   1.350 -0.3801 -0.4308 -0.5361
15047TIP3    H266557   3.117   0.858   1.331 -0.1606  0.3917 -0.3421
15048TIP3   OH266558   6.029   0.799   4.531 -0.0320  0.4502 -0.4056
15048TIP3    H166559   6.104   0.780   4.586 -0.0309  2.6558  0.4540
15048TIP3    H266560   5.953   0.766   4.580  0.1574  0.5531 -0.0417
15049TIP3   OH266561   3.571   3.382  11.722  0.1661  0.6490  0.1050
15049TIP3    H166562   3.511   3.310  11.738  1.5248 -1.3347 -2.7054
15049TIP3    H266563   3.531   3.431  11.650  1.1690  0.0989 -0.8749
15050TIP3   OH266564   2.240   3.565   5.541  0.2225  0.1035  0.0379
15050TIP3    H166565   2.295   3.491   5.517 -1.9102 -0.9958 -1.8149
15050TIP3    H266566   2.174   3.569   5.473 -1.2171  2.1784  1.4349
15051TIP3   OH266567   5.881   5.418   0.146 -0.0768  0.1540 -0.4892
15051TIP3    H166568   5.812   5.464   0.194  0.7450  0.9419 -0.0238
15051TIP3    H266569   5.895   5.471   0.068  0.7769  0.6410 -0.0217
15052TIP3   OH266570   1.504   1.383   1.255 -0.1415 -0.0552  0.1788
15052TIP3    H166571   1.502   1.474   1.284 -1.2355 -0.0775  0.1965
15052TIP3    H266572   1.530   1.334   1.333 -0.2574  0.1675  0.3592
15053TIP3   OH266573   2.931   4.219   1.382 -0.2307 -0.3727 -0.1737
15053TIP3    H166574   2.971   4.143   1.340 -0.2213 -0.9733  0.8743
15053TIP3    H266575   2.984   4.234   1.460 -0.3820  0.5622 -0.2397
15054TIP3   OH266576   2.673   1.445  16.640 -0.1058  0.0258 -0.2753
15054TIP3    H166577   2.578   1.452  16.649 -0.2238  2.2527 -2.2501
15054TIP3    H266578   2.708   1.496  16.713 -0.3768 -1.1030  0.6704
15055TIP3   OH266579   2.194   0.256   2.635  0.4286 -0.4316 -0.1545
15055TIP3    H166580   2.229   0.272   2.548  0.6294 -0.7846 -0.1399
15055TIP3    H266581   2.159   0.167   2.631  0.8636 -0.6250  0.2591
15056TIP3   OH266582   6.709   1.848  17.145 -0.2992 -0.2494  0.7560
15056TIP3    H166583   6.796   1.869  17.179 -0.4400  0.3686  0.7458
15056TIP3    H266584   6.665   1.933  17.137  0.2417 -0.1616 -2.4017
15057TIP3   OH266585   2.151   1.008   2.849 -0.3424  0.1451  0.0338
15057TIP3    H166586   2.191   0.930   2.889 -0.9356  1.3325  3.1701
15057TIP3    H266587   2.076   0.974   2.801 -0.1136 -1.2945  0.6337
15058TIP3   OH266588   2.199   2.299   2.832 -0.2358  0.2741  0.4471
15058TIP3    H166589   2.252   2.294   2.912 -0.5160 -0.3874  0.6035
15058TIP3    H266590   2.117   2.256   2.856 -0.8357  1.2508  0.1970
15059TIP3   OH266591   3.358   2.298   2.096 -0.6312 -0.0045 -0.1034
15059TIP3    H166592   3.404   2.369   2.141  2.1975  0.7169 -3.6938
15059TIP3    H266593   3.285   2.341   2.051  0.7075  0.6086 -1.7648
15060TIP3   OH266594   3.558   5.262  14.917  0.1872 -0.0181  0.2009
15060TIP3    H166595   3.638   5.235  14.873  0.3591 -0.5540  0.8253
15060TIP3    H266596   3.502   5.184  14.916 -1.1507  0.8874 -1.9815
15061TIP3   OH266597   4.179   4.700  14.504  0.6350  0.0839  0.4073
15061TIP3    H166598   4.172   4.694  14.599  0.3096 -0.3310  0.3579
15061TIP3    H266599   4.104   4.651  14.471 -0.2440  1.6727 -0.0457
15062TIP3   OH266600   3.296   3.784   3.445  0.2847  0.3518  0.3448
15062TIP3    H166601   3.204   3.768   3.428  0.5898 -0.0261 -1.0888
15062TIP3    H266602   3.306   3.879   3.444  0.3401  0.3805 -2.2187
15063TIP3   OH266603   1.170   0.075  15.201  0.2534  0.2229 -0.4500
15063TIP3    H166604   1.245   0.016  15.206  0.4934  0.6135  1.4059
15063TIP3    H266605   1.208   0.163  15.203 -0.1520  0.4663 -2.1569
15064TIP3   OH266606   2.444   2.103   5.804  0.3173 -0.2181  0.2805
15064TIP3    H166607   2.427   2.093   5.710 -0.0798 -2.1417  0.5102
15064TIP3    H266608   2.360   2.130   5.841  0.3957  0.2455  0.1200
15065TIP3   OH266609   0.613   6.101   4.550  0.2608 -0.3510 -0.3281
15065TIP3    H166610   0.539   6.132   4.499  0.2582 -1.0282 -0.7456
15065TIP3    H266611   0.577   6.033   4.607 -0.1355  1.6503  1.9852
15066TIP3   OH266612   3.933   3.788  12.463 -0.0959  0.3918  0.2692
15066TIP3    H166613   3.879   3.788  12.384 -0.7115 -0.8315  0.6693
15066TIP3    H266614   4.012   3.741  12.439 -0.0273  0.5344  0.2154
15067TIP3   OH266615   6.111   0.648  16.648 -0.5507  0.1356  0.0602
15067TIP3    H166616   6.015   0.649  16.646 -0.5884 -0.4560  1.1974
15067TIP3    H266617   6.134   0.658  16.740  0.4205 -2.2013  0.1544
15068TIP3   OH266618   1.507   3.230  11.267 -0.3554  0.0041 -0.1999
15068TIP3    H166619   1.601   3.218  11.278 -0.3767 -0.8934 -0.8840
15068TIP3    H266620   1.499   3.286  11.190 -0.3930 -0.4012 -0.4914
15069TIP3   OH266621   4.979   1.480   1.958 -0.0851  0.3727 -0.1312
15069TIP3    H166622   4.925   1.556   1.979 -0.4357  0.3128 -0.8051
15069TIP3    H266623   5.037   1.510   1.888 -2.0997 -0.7224 -2.4147
15070TIP3   OH266624   2.511   2.842  14.148 -0.5992  0.0967 -0.3778
15070TIP3    H166625   2.551   2.825  14.063 -0.9208 -0.6036 -0.3997
15070TIP3    H266626   2.465   2.925  14.137 -0.2810  0.2257 -0.7549
15071TIP3   OH266627   0.461   4.740   3.608 -0.1711 -0.0290 -0.0986
15071TIP3    H166628   0.472   4.649   3.637 -0.1456 -0.0812 -0.2696
15071TIP3    H266629   0.535   4.755   3.549 -0.5351 -0.1043 -0.5767
15072TIP3   OH266630   2.321   0.539   5.582  0.0320  0.3919  0.6988
15072TIP3    H166631   2.407   0.577   5.560  0.1871  0.4341  1.3540
15072TIP3    H266632   2.340   0.448   5.602 -0.1412  0.3013  0.4540
15073TIP3   OH266633   2.103   3.709  15.153 -0.3713 -0.2201  0.1564
15073TIP3    H166634   2.169   3.776  15.141 -0.7361  0.1826  0.3575
15073TIP3    H266635   2.151   3.633  15.185  0.0154  0.0077  0.1240
15074TIP3   OH266636   3.277   5.676   2.870  0.0652 -0.5864  0.1502
15074TIP3    H166637   3.343   5.611   2.843 -0.0814 -0.7053  0.0768
15074TIP3    H266638   3.274   5.738   2.797  1.6517  0.6349  1.0619
15075TIP3   OH266639   3.955   4.345   5.669 -0.5202 -0.5017 -0.0379
15075TIP3    H166640   3.884   4.373   5.612 -0.5421 -0.3868  0.0459
15075TIP3    H266641   3.963   4.251   5.652  0.0851 -0.2986 -0.8993
15076TIP3   OH266642   6.094   2.280   4.378  0.0670 -0.0227 -0.1161
15076TIP3    H166643   6.141   2.340   4.321  0.3362  0.2261  0.3659
15076TIP3    H266644   6.156   2.209   4.396  0.7160  0.9025  1.4989
15077TIP3   OH266645   0.149   0.088   0.672  0.8230  0.3168 -0.0008
15077TIP3    H166646   0.115   0.089   0.762 -0.0047 -1.2435 -0.2700
15077TIP3    H266647   0.211   0.161   0.670 -0.9066  1.9199  1.1349
15078TIP3   OH266648   6.439   3.567  17.188  0.3716  0.3042 -0.4072
15078TIP3    H166649   6.447   3.648  17.137 -1.6488  1.7411  1.3763
15078TIP3    H266650   6.524   3.557  17.230  0.4935  1.8223 -0.2362
15079TIP3   OH266651   1.641   6.049   4.167 -0.1307 -0.1573 -1.1908
15079TIP3    H166652   1.652   6.137   4.131 -1.9920  0.1748 -1.0701
15079TIP3    H266653   1.560   6.054   4.217 -0.8830 -2.2152 -2.0964
15080TIP3   OH266654   2.836   5.413  17.126 -0.1874  0.5069  0.7113
15080TIP3    H166655   2.897   5.377  17.190  0.8639  2.5799  0.9460
15080TIP3    H266656   2.811   5.338  17.072  2.4010 -0.4672  0.7274
15081TIP3   OH266657   6.243   2.914  12.533  0.0812  0.0834 -0.0361
15081TIP3    H166658   6.238   2.819  12.528  0.0211  0.1527 -2.4399
15081TIP3    H266659   6.336   2.933  12.545  0.6392 -0.2832 -2.9932
15082TIP3   OH266660   6.565   6.717   0.325  0.5302  0.0791  0.4592
15082TIP3    H166661   6.566   6.812   0.340  0.8783  0.1873 -0.2282
15082TIP3    H266662   6.640   6.685   0.375  1.1805  0.3330 -0.3414
15083TIP3   OH266663   6.471   4.832   0.360 -0.4104 -0.0969 -0.0777
15083TIP3    H166664   6.396   4.871   0.315  0.0121 -0.8744 -1.5506
15083TIP3    H266665   6.516   4.906   0.401 -1.3899  0.5169 -0.0781
15084TIP3   OH266666   0.417   0.628  10.783 -0.2587 -0.5382 -0.6450
15084TIP3    H166667   0.480   0.642  10.712  0.8874 -1.0513  0.2353
15084TIP3    H266668   0.370   0.711  10.790  1.4827  0.4507 -0.2281
15085TIP3   OH266669   0.259   6.322   4.090 -0.0710 -0.0769 -0.5588
15085TIP3    H166670   0.185   6.359   4.043  0.4796  2.5822  0.5022
15085TIP3    H266671   0.232   6.319   4.181  0.6496 -0.3775 -0.3405
15086TIP3   OH266672   3.639   5.412   5.326 -0.0205 -0.2671 -0.1072
15086TIP3    H166673   3.594   5.496   5.323  1.6966  0.6753 -0.5878
15086TIP3    H266674   3.694   5.411   5.248 -1.1324 -2.5417 -0.9591
15087TIP3   OH266675   6.122   2.042  12.142 -0.5451  0.3781  0.4318
15087TIP3    H166676   6.202   2.094  12.155 -0.7233  0.3271  1.8704
15087TIP3    H266677   6.154   1.952  12.130 -0.3906  0.1810  2.0571
15088TIP3   OH266678   1.933   3.775  11.653  0.0883  0.0598 -0.4909
15088TIP3    H166679   1.898   3.687  11.644  1.1350 -0.4546  0.3272
15088TIP3    H266680   1.975   3.793  11.569  1.6803 -1.0577  0.0205
15089TIP3   OH266681   2.793   3.873  13.451 -0.0722 -0.0409  0.4626
15089TIP3    H166682   2.850   3.797  13.441  0.1244  0.2032 -0.3480
15089TIP3    H266683   2.766   3.870  13.543  0.9290 -0.3828  0.7645
15090TIP3   OH266684   3.061   5.235   2.512  0.2415 -0.1070 -0.2735
15090TIP3    H166685   3.106   5.293   2.450 -0.0848 -1.2865 -1.6535
15090TIP3    H266686   2.981   5.208   2.466  0.5533 -1.9282  0.1767
15091TIP3   OH266687   2.707   4.022  11.872  0.7839 -0.0899 -0.1306
15091TIP3    H166688   2.738   4.039  11.961  1.7780 -2.5817  0.0610
15091TIP3    H266689   2.713   3.927  11.862 -1.4439 -0.1145 -2.1055
15092TIP3   OH266690   5.748   6.157  12.809  0.4944  0.5295 -0.1757
15092TIP3    H166691   5.698   6.085  12.770  1.2326 -1.4515  2.2529
15092TIP3    H266692   5.839   6.137  12.787  0.8527 -0.2255  1.7162
15093TIP3   OH266693   6.225   5.370   2.766 -0.3372 -0.1806  0.3954
15093TIP3    H166694   6.259   5.312   2.698 -0.0455  0.7507 -0.2685
15093TIP3    H266695   6.302   5.390   2.820 -0.3586 -0.1073  0.3988
15094TIP3   OH266696   2.842   0.805  12.373  0.1946  0.0801  0.5440
15094TIP3    H166697   2.848   0.861  12.450 -0.3701  0.6920  0.1535
15094TIP3    H266698   2.810   0.721  12.406 -0.5193  0.4893  0.9141
15095TIP3   OH266699   0.605   2.169   3.957 -0.0213  0.1252 -0.5079
15095TIP3    H166700   0.531   2.189   3.898  0.0917 -1.5850 -1.2750
15095TIP3    H266701   0.573   2.098   4.012  0.2362  1.0330  0.8370
15096TIP3   OH266702   0.387   5.757   2.246  0.7101  0.3370 -0.2794
15096TIP3    H166703   0.299   5.776   2.212  0.6838  0.9277  0.1084
15096TIP3    H266704   0.443   5.761   2.168  0.6315  1.5681 -0.2981
15097TIP3   OH266705   2.856   0.570   1.268  0.0915  0.0657 -0.0152
15097TIP3    H166706   2.890   0.480   1.272 -0.6245 -0.1959  0.5978
15097TIP3    H266707   2.890   0.605   1.186  1.9600 -0.1057  0.6459
15098TIP3   OH266708   5.643   1.525  14.071  0.6473 -0.9114  0.6584
15098TIP3    H166709   5.623   1.476  13.991  0.8044 -2.1641  1.3729
15098TIP3    H266710   5.703   1.469  14.120  2.6586  0.9676  0.4881
15099TIP3   OH266711   4.962   4.808   2.833  0.4153  0.9795 -0.1861
15099TIP3    H166712   4.871   4.820   2.804  0.4389 -0.1738 -0.7954
15099TIP3    H266713   4.985   4.719   2.805  1.8975  1.4208 -0.4563
15100TIP3   OH266714   5.051   4.052  11.753  0.7333  0.4751  0.4288
15100TIP3    H166715   5.019   3.963  11.770  1.5814  0.3236  1.3214
15100TIP3    H266716   5.044   4.097  11.838 -0.7834  1.6395 -0.2642
15101TIP3   OH266717   1.065   0.086  14.375 -0.6147  0.2810  0.4305
15101TIP3    H166718   0.985   0.035  14.386 -1.2906  1.1998 -0.1060
15101TIP3    H266719   1.097   0.062  14.288 -2.5583  2.8996 -1.1366
15102TIP3   OH266720   1.534   1.484  14.851  0.2803 -0.1339  0.1042
15102TIP3    H166721   1.503   1.399  14.819 -0.6553 -0.0953  0.8788
15102TIP3    H266722   1.561   1.530  14.772  1.1973 -1.2995 -0.2929
15103TIP3   OH266723   0.374   2.699   1.036  0.1701  0.7043 -0.2463
15103TIP3    H166724   0.328   2.765   0.984 -0.8731  0.7969  0.7709
15103TIP3    H266725   0.408   2.746   1.111 -0.4476  0.1383  0.4082
15104TIP3   OH266726   3.718   1.394   7.019 -0.0945  0.2654 -0.3086
15104TIP3    H166727   3.648   1.361   7.075  0.6997 -0.8178  0.0884
15104TIP3    H266728   3.695   1.362   6.932 -0.0329 -0.2061 -0.1555
15105TIP3   OH266729   0.232   1.396  17.367 -0.1924  0.0075 -0.7502
15105TIP3    H166730   0.302   1.457  17.347 -1.1242  2.2663  2.2515
15105TIP3    H266731   0.168   1.410  17.297 -0.4268  2.6518 -0.0990
15106TIP3   OH266732   4.938   5.271  15.525 -0.2958  0.0619 -0.9238
15106TIP3    H166733   4.861   5.228  15.562 -1.7953  1.9207 -1.7535
15106TIP3    H266734   4.961   5.217  15.449  0.6598 -1.7565  0.5592
15107TIP3   OH266735   3.068   3.345  16.917 -0.2290 -1.0809 -0.1849
15107TIP3    H166736   3.092   3.410  16.851 -1.3204 -0.2260  0.2118
15107TIP3    H266737   3.035   3.397  16.991 -0.4362 -2.0644  0.4388
15108TIP3   OH266738   0.208   6.010  12.706  0.0841  0.7436  0.3236
15108TIP3    H166739   0.192   6.049  12.620 -0.1313  1.1743  0.5534
15108TIP3    H266740   0.172   5.922  12.700  1.3159  0.2718 -0.4661
15109TIP3   OH266741   4.672   5.968   5.871 -0.0690  0.0489  0.1271
15109TIP3    H166742   4.760   5.963   5.834 -0.3511  0.2098 -0.5763
15109TIP3    H266743   4.675   5.910   5.948  1.2237  1.5832  1.3005
15110TIP3   OH266744   5.857   3.003  13.881 -0.5405 -0.0115 -0.0859
15110TIP3    H166745   5.815   2.977  13.799 -0.4133  1.2353 -0.5623
15110TIP3    H266746   5.786   3.003  13.946 -0.7517 -0.4400 -0.3121
15111TIP3   OH266747   5.893   5.411   2.695 -0.1298 -0.2377 -0.1434
15111TIP3    H166748   5.954   5.483   2.701 -0.6273  0.1276  0.8535
15111TIP3    H266749   5.937   5.338   2.738  0.3619 -0.5381 -1.1270
15112TIP3   OH266750   0.554   6.224   3.171  0.0964 -0.0741 -0.3610
15112TIP3    H166751   0.459   6.225   3.182  0.3210 -0.6261  2.1464
15112TIP3    H266752   0.570   6.162   3.100 -1.4020 -0.1236 -0.6758
15113TIP3   OH266753   0.310   0.833  13.895 -0.2516  0.5356 -0.5323
15113TIP3    H166754   0.245   0.843  13.965  2.3744 -1.8477  2.5796
15113TIP3    H266755   0.381   0.893  13.920 -0.0173  1.0391 -2.2966
15114TIP3   OH266756   2.471   6.500  17.063  0.8400  0.3633  0.5950
15114TIP3    H166757   2.542   6.439  17.040  0.4573 -0.6771  2.0291
15114TIP3    H266758   2.512   6.586  17.060  1.2677  0.1604 -2.0365
15115TIP3   OH266759   5.768   0.520   1.439  0.3270  0.5028  1.0903
15115TIP3    H166760   5.722   0.601   1.418  0.4614  0.1508 -0.7035
15115TIP3    H266761   5.716   0.451   1.398  2.4605  0.0985 -1.1462
15116TIP3   OH266762   4.391   3.984  16.644  0.1246 -0.1789 -0.2967
15116TIP3    H166763   4.378   4.069  16.686 -1.4514  0.0323 -1.1437
15116TIP3    H266764   4.335   3.924  16.694 -0.6713 -0.2022 -1.1812
15117TIP3   OH266765   3.659   0.922   0.951  0.2539  0.6963 -0.3136
15117TIP3    H166766   3.619   0.996   0.998 -1.6312 -0.7338  0.4563
15117TIP3    H266767   3.593   0.897   0.886  0.7408 -0.4779 -0.3765
15118TIP3   OH266768   6.277   5.252   0.706 -0.0345 -0.4872  0.3206
15118TIP3    H166769   6.353   5.290   0.750 -1.2927  0.1482  2.0494
15118TIP3    H266770   6.205   5.312   0.726 -1.0150 -1.0808 -1.2628
15119TIP3   OH266771   0.713   6.551  17.002  0.0925  0.2604  0.2454
15119TIP3    H166772   0.632   6.547  16.952 -0.1006  0.1906  0.5634
15119TIP3    H266773   0.689   6.593  17.085  0.4626  0.6255  0.1770
15120TIP3   OH266774   1.150   1.831  13.615 -0.5220  0.1017 -0.2971
15120TIP3    H166775   1.072   1.835  13.560  0.2727 -1.9329 -1.6891
15120TIP3    H266776   1.174   1.738  13.617  2.1913  0.7043 -0.4222
15121TIP3   OH266777   6.043   6.124   4.177 -0.6752 -0.5986 -0.1344
15121TIP3    H166778   6.051   6.029   4.179 -1.3147 -0.6561  0.3892
15121TIP3    H266779   5.948   6.139   4.182 -0.6203  0.0545 -0.9400
15122TIP3   OH266780   0.480   1.770   2.633  0.3424  0.3539  0.2373
15122TIP3    H166781   0.428   1.830   2.579  0.0444 -1.2280 -1.3433
15122TIP3    H266782   0.443   1.684   2.614 -0.1790 -0.2796  3.4924
15123TIP3   OH266783   1.341   0.401  14.356 -0.1659  0.3289  0.2331
15123TIP3    H166784   1.293   0.483  14.353 -1.4369 -0.2378  2.5264
15123TIP3    H266785   1.292   0.342  14.298 -1.0286  0.3818  0.8814
15124TIP3   OH266786   6.641   1.269   4.350  0.1016  0.6922  0.4304
15124TIP3    H166787   6.594   1.205   4.403 -0.0009 -0.6970 -1.2580
15124TIP3    H266788   6.577   1.338   4.333 -1.0150 -0.5734 -0.7826
15125TIP3   OH266789   4.117   5.379   4.803  0.0595  0.2975  0.0957
15125TIP3    H166790   4.187   5.425   4.849  1.0567 -1.1056  0.0454
15125TIP3    H266791   4.129   5.287   4.827 -0.4901 -0.2315 -1.5447
15126TIP3   OH266792   0.881   5.966   3.565 -0.2777 -0.4508 -0.1898
15126TIP3    H166793   0.789   5.991   3.572 -0.2151 -0.1572 -0.3806
15126TIP3    H266794   0.879   5.874   3.539 -0.5301 -0.2096 -1.0738
15127TIP3   OH266795   5.438   4.738  11.264  0.3251 -0.2334 -0.5498
15127TIP3    H166796   5.472   4.810  11.317 -1.5858  0.5943 -0.3418
15127TIP3    H266797   5.515   4.688  11.239  1.4218 -0.0780  2.1472
15128TIP3   OH266798   3.797   5.081  16.172  0.2973  0.4849 -0.0555
15128TIP3    H166799   3.710   5.040  16.180  1.0973 -1.2011  0.4467
15128TIP3    H266800   3.789   5.164  16.219 -0.2714 -0.9164  2.5172
15129TIP3   OH266801   0.916   5.752   4.550 -0.2778  0.2758 -0.6833
15129TIP3    H166802   0.938   5.745   4.457  1.5960  0.2816 -0.2820
15129TIP3    H266803   0.969   5.825   4.581  0.7850 -1.0960  0.8409
15130TIP3   OH266804   6.289   1.066  12.091 -0.0265  0.0238 -0.4000
15130TIP3    H166805   6.370   1.093  12.048  1.8830 -1.4076  2.0098
15130TIP3    H266806   6.261   1.142  12.142  1.7565 -0.4267  1.3725
15131TIP3   OH266807   0.422   5.970  11.471 -0.1268 -0.6729  0.1264
15131TIP3    H166808   0.347   5.910  11.480  0.1260 -0.9293  0.5825
15131TIP3    H266809   0.486   5.921  11.419 -0.7671  0.0304 -1.3897
15132TIP3   OH266810   3.347   4.926   3.896  0.6440 -0.0407  0.7774
15132TIP3    H166811   3.343   4.905   3.990 -0.2329  1.0278  1.0020
15132TIP3    H266812   3.379   5.016   3.893  0.1674  0.1122  0.0884
15133TIP3   OH266813   0.097   3.481  14.171  0.2118  0.0608 -0.3293
15133TIP3    H166814   0.007   3.446  14.176 -0.4122  1.7393  0.7986
15133TIP3    H266815   0.087   3.567  14.131  1.4737 -0.1272 -1.1124
15134TIP3   OH266816   1.407   1.243  16.275  0.3866 -0.0673  0.2539
15134TIP3    H166817   1.326   1.199  16.249 -0.3670  1.8307 -0.8813
15134TIP3    H266818   1.477   1.183  16.250 -0.5490 -0.3388 -1.9431
15135TIP3   OH266819   3.960   2.948   1.474 -0.3550  0.1343 -0.2477
15135TIP3    H166820   3.985   2.899   1.395  3.5417 -0.5693  1.2193
15135TIP3    H266821   3.898   2.890   1.519  0.0715 -1.0371 -1.1056
15136TIP3   OH266822   0.910   2.452  12.058 -0.3469  0.5608  0.2107
15136TIP3    H166823   0.913   2.375  12.115 -2.4364 -0.1641 -0.5496
15136TIP3    H266824   0.991   2.448  12.007  0.6055  0.1113  1.7138
15137TIP3   OH266825   0.451   2.665  14.847 -0.3165 -0.2205 -0.2468
15137TIP3    H166826   0.444   2.711  14.931 -1.8531 -0.5958 -0.1325
15137TIP3    H266827   0.466   2.574  14.871  1.2815 -0.0383 -0.4478
15138TIP3   OH266828   4.868   5.189   3.339 -0.2160  0.7317 -0.0471
15138TIP3    H166829   4.918   5.182   3.420 -0.4304  1.3403  0.1460
15138TIP3    H266830   4.900   5.269   3.298 -1.2660  1.3328  0.2572
15139TIP3   OH266831   5.099   5.001  12.265  0.5988  0.0593  0.0921
15139TIP3    H166832   5.176   5.015  12.211  0.4585  0.0736 -0.1047
15139TIP3    H266833   5.109   4.912  12.299  1.6585  0.7211  1.6085
15140TIP3   OH266834   6.094   4.847   1.490  0.0687  0.5445 -0.1154
15140TIP3    H166835   6.035   4.915   1.522  0.3197  0.2385  1.0658
15140TIP3    H266836   6.165   4.895   1.446 -0.4043  0.9706 -0.4158
15141TIP3   OH266837   0.399   2.748  17.154  0.2157 -0.1197  0.3727
15141TIP3    H166838   0.379   2.782  17.241 -0.0188 -2.0591  1.1136
15141TIP3    H266839   0.395   2.653  17.163 -0.9403 -0.3890 -2.0039
15142TIP3   OH266840   1.707   6.584   3.025  0.3383  0.4673 -0.0262
15142TIP3    H166841   1.736   6.613   3.112  1.8192  1.3324 -0.7832
15142TIP3    H266842   1.622   6.627   3.014  0.5783  1.1453  0.6058
15143TIP3   OH266843   2.128   4.694   2.323 -0.4194  0.0743 -0.5635
15143TIP3    H166844   2.163   4.709   2.236 -0.1614 -0.4978 -0.5646
15143TIP3    H266845   2.203   4.662   2.374 -0.1580  1.9885  0.3301
15144TIP3   OH266846   0.719   5.618  17.004  0.7596  0.5964  0.1028
15144TIP3    H166847   0.735   5.650  16.915  0.3092  2.5191  0.6685
15144TIP3    H266848   0.701   5.525  16.993  0.8123  0.7683 -1.8053
15145TIP3   OH266849   1.662   1.595   4.418  0.0705 -0.2461  0.6710
15145TIP3    H166850   1.590   1.533   4.432 -0.3532 -0.3608 -1.6394
15145TIP3    H266851   1.727   1.571   4.484 -0.9288 -1.8231  1.1511
15146TIP3   OH266852   2.253   4.347   3.264  0.2046  0.3008  0.4587
15146TIP3    H166853   2.158   4.337   3.268  0.4555 -4.8559  0.6081
15146TIP3    H266854   2.278   4.378   3.351 -1.2723  0.9274  0.6865
15147TIP3   OH266855   3.941   0.849   1.402 -0.3982 -0.0879 -0.0043
15147TIP3    H166856   3.927   0.927   1.457  0.4245 -0.0691  0.1875
15147TIP3    H266857   4.001   0.795   1.453  2.7322  1.1938 -2.0416
15148TIP3   OH266858   0.791   6.282  13.104 -0.0513 -0.1858  0.1112
15148TIP3    H166859   0.734   6.205  13.109  0.6117 -0.6510  0.6417
15148TIP3    H266860   0.829   6.277  13.016 -1.6561  0.7498 -0.6858
15149TIP3   OH266861   1.911   1.661  12.995  0.2034 -0.2704  0.3884
15149TIP3    H166862   1.905   1.583  13.050 -0.2013 -1.1481 -0.8532
15149TIP3    H266863   1.924   1.627  12.906  0.2828  1.0830 -0.1424
15150TIP3   OH266864   2.369   0.974  16.385  0.7435  0.2503  0.3319
15150TIP3    H166865   2.346   1.022  16.305  1.0983  1.4886  0.9352
15150TIP3    H266866   2.459   0.945  16.371 -0.3170 -2.7410 -1.1590
15151TIP3   OH266867   3.119   5.701   2.103 -0.2957 -0.2944 -0.1483
15151TIP3    H166868   3.135   5.789   2.071 -1.2641 -0.0671 -0.0551
15151TIP3    H266869   3.024   5.691   2.097 -0.1829 -1.4003 -0.3402
15152TIP3   OH266870   3.727   0.293  11.463 -0.1147 -0.4949  0.0943
15152TIP3    H166871   3.707   0.359  11.396  0.3731 -0.5570 -0.1182
15152TIP3    H266872   3.816   0.314  11.490  0.0295 -1.0443  0.0521
15153TIP3   OH266873   1.241   0.370   4.576  0.0339 -0.0580 -1.3999
15153TIP3    H166874   1.193   0.375   4.493  1.8536 -0.1227 -2.5039
15153TIP3    H266875   1.331   0.352   4.551  0.3552 -1.8062  0.6856
15154TIP3   OH266876   5.069   3.756   5.502  0.2599  0.3132  0.0426
15154TIP3    H166877   5.126   3.684   5.477  0.5131 -0.2450  2.0647
15154TIP3    H266878   5.089   3.825   5.439  0.4700 -1.1214 -1.5534
15155TIP3   OH266879   5.272   3.456   1.744  0.1903 -0.1364 -0.2030
15155TIP3    H166880   5.323   3.376   1.728  2.5524  1.4895 -1.3465
15155TIP3    H266881   5.181   3.428   1.737  0.8377 -1.9447 -5.4110
15156TIP3   OH266882   6.432   1.800  15.007  0.4699  0.1767  0.6233
15156TIP3    H166883   6.451   1.810  15.101 -1.2101 -1.6095  1.2213
15156TIP3    H266884   6.338   1.781  15.004  0.9534 -2.4272 -1.1600
15157TIP3   OH266885   3.184   1.107   6.348  0.6063 -0.2410 -0.6316
15157TIP3    H166886   3.179   1.199   6.373 -0.3575 -0.2990 -0.5447
15157TIP3    H266887   3.175   1.059   6.430  0.0816 -0.4125 -0.7840
15158TIP3   OH266888   1.579   4.242   0.954  0.3803  0.2535  0.0178
15158TIP3    H166889   1.655   4.269   0.901  1.0189 -2.6302 -0.7235
15158TIP3    H266890   1.613   4.173   1.011 -1.3277  0.0828  0.8926
15159TIP3   OH266891   6.209   3.640  11.543 -0.3797  0.2523 -0.0065
15159TIP3    H166892   6.246   3.596  11.467 -0.7532  1.4333 -0.9044
15159TIP3    H266893   6.285   3.675  11.590 -0.2135  0.8825 -0.7150
15160TIP3   OH266894   5.780   0.293   5.648 -0.9424 -0.1184 -0.3335
15160TIP3    H166895   5.819   0.231   5.711 -0.5548 -0.0600 -0.5124
15160TIP3    H266896   5.760   0.370   5.701  2.7960  1.4351 -0.8481
15161TIP3   OH266897   5.414   2.002   3.432 -0.2286  0.0311 -0.0984
15161TIP3    H166898   5.465   1.969   3.358 -1.2986  1.5787 -1.5995
15161TIP3    H266899   5.480   2.031   3.495  0.7186 -2.1988  0.0538
15162TIP3   OH266900   3.626   6.584  13.041  0.1507 -0.4080 -0.1563
15162TIP3    H166901   3.695   6.644  13.011 -1.0797  1.9768  1.4739
15162TIP3    H266902   3.605   6.614  13.130 -1.8409 -2.1219  0.0308
15163TIP3   OH266903   3.960   0.952  13.958 -0.0305  0.0396 -0.5073
15163TIP3    H166904   3.903   0.992  14.023  0.8993 -0.0414  0.3826
15163TIP3    H266905   4.037   1.010  13.954 -0.0001 -0.0417 -1.4186
15164TIP3   OH266906   0.518   0.275  11.560 -0.0778 -0.1980 -0.3478
15164TIP3    H166907   0.527   0.235  11.474 -0.9305  0.5698 -0.8194
15164TIP3    H266908   0.502   0.368  11.541 -1.7202 -0.2532  0.5552
15165TIP3   OH266909   4.728   5.451   6.533 -0.1372  0.1662  0.2525
15165TIP3    H166910   4.793   5.384   6.513 -0.1914  0.2963 -0.3632
15165TIP3    H266911   4.769   5.505   6.601 -0.6543 -1.3454  1.8545
15166TIP3   OH266912   1.301   0.106  13.441  0.6114 -0.4287 -0.1965
15166TIP3    H166913   1.355   0.180  13.411  0.3801 -0.7451 -1.4433
15166TIP3    H266914   1.360   0.031  13.439  0.5867 -0.4599  0.1461
15167TIP3   OH266915   5.785   0.469  13.177 -0.3584 -0.4863 -0.1310
15167TIP3    H166916   5.734   0.532  13.228 -0.5458 -0.1092 -0.7734
15167TIP3    H266917   5.829   0.522  13.111  2.4280 -0.5194  1.5609
15168TIP3   OH266918   2.210   4.538   0.735  0.1164 -0.1527  0.6271
15168TIP3    H166919   2.304   4.548   0.749  0.2720 -0.4721 -0.1438
15168TIP3    H266920   2.193   4.446   0.751  0.1335 -0.3263 -0.3123
15169TIP3   OH266921   3.240   5.446   4.434  0.2048  0.6920  0.0560
15169TIP3    H166922   3.283   5.524   4.399  1.5304  1.0646  2.3187
15169TIP3    H266923   3.306   5.377   4.428 -0.3462  0.1875 -0.2966
15170TIP3   OH266924   4.776   4.665   6.203  0.3552  0.3576  0.1326
15170TIP3    H166925   4.712   4.663   6.275 -0.9583  1.7496 -0.9341
15170TIP3    H266926   4.754   4.589   6.150  0.9284 -0.3199  0.8355
15171TIP3   OH266927   1.280   6.444   4.355  0.3355 -0.5430 -0.5023
15171TIP3    H166928   1.363   6.481   4.325  0.3828  1.2007  1.5940
15171TIP3    H266929   1.214   6.483   4.299  0.6527  0.6193 -0.0832
15172TIP3   OH266930   0.227   4.041   1.098 -0.2979 -0.1040  0.1554
15172TIP3    H166931   0.143   4.043   1.054 -0.0047 -2.0754 -0.5857
15172TIP3    H266932   0.286   4.092   1.042 -0.8356  0.8454  0.4199
15173TIP3   OH266933   1.031   4.393   2.948  0.0068 -0.2653  0.3211
15173TIP3    H166934   1.124   4.400   2.928  0.3752 -1.2032  1.5908
15173TIP3    H266935   1.000   4.321   2.892 -0.0042  0.1557 -0.2214
15174TIP3   OH266936   5.827   5.506   2.273 -0.0212  0.4755  0.5248
15174TIP3    H166937   5.838   5.417   2.240 -0.0872  1.1238 -1.3522
15174TIP3    H266938   5.732   5.516   2.283 -0.2614  1.1762 -1.8946
15175TIP3   OH266939   0.831   0.166  14.082  0.0580  0.2482  0.1086
15175TIP3    H166940   0.798   0.184  13.994 -0.1317 -0.6887 -0.0232
15175TIP3    H266941   0.883   0.243  14.105 -1.4344  1.3450 -0.0693
15176TIP3   OH266942   0.442   5.190   5.820 -0.4045 -0.0971 -0.4881
15176TIP3    H166943   0.506   5.162   5.755 -1.8621  0.1362 -2.0941
15176TIP3    H266944   0.443   5.286   5.814  2.1593  0.2660  2.6184
15177TIP3   OH266945   5.745   1.688   4.730  0.1156 -0.5291  0.1066
15177TIP3    H166946   5.773   1.617   4.673 -0.1701  0.9846 -2.0355
15177TIP3    H266947   5.655   1.708   4.702 -0.3304 -0.2529  1.6391
15178TIP3   OH266948   3.401   0.603   3.454 -0.3829  0.0525  0.4363
15178TIP3    H166949   3.457   0.537   3.494  1.2494  1.2476  0.2313
15178TIP3    H266950   3.385   0.571   3.365  0.1826 -0.1997  0.4199
15179TIP3   OH266951   1.776   3.871  17.332  0.4758  0.2729  0.0709
15179TIP3    H166952   1.841   3.836  17.271 -1.0857  0.7299 -1.9696
15179TIP3    H266953   1.695   3.825  17.309 -0.6274  2.0012  0.3257
15180TIP3   OH266954   1.421   0.542   5.733  0.2630 -0.0689 -0.4588
15180TIP3    H166955   1.478   0.492   5.674  0.5458  1.7153 -1.8023
15180TIP3    H266956   1.453   0.522   5.821  1.3311 -1.0389 -1.0380
15181TIP3   OH266957   4.181   6.591  13.821  0.0253 -0.4457  0.2058
15181TIP3    H166958   4.089   6.618  13.812  0.2871  0.3019 -0.3588
15181TIP3    H266959   4.185   6.505  13.781 -0.6600 -0.9964  1.2622
15182TIP3   OH266960   3.917   0.676   5.935  0.0220 -0.0541 -0.2152
15182TIP3    H166961   3.945   0.595   5.979 -2.0219 -0.8967 -0.3287
15182TIP3    H266962   3.995   0.707   5.889  1.3003 -1.0403  1.1813
15183TIP3   OH266963   3.124   3.154  15.040  0.1692 -0.3437 -0.0960
15183TIP3    H166964   3.218   3.156  15.020  0.9252 -0.0930  2.8758
15183TIP3    H266965   3.095   3.068  15.012  1.4084 -0.5983 -0.6712
15184TIP3   OH266966   5.042   5.540  13.346 -0.1698  0.2090  0.4865
15184TIP3    H166967   5.054   5.578  13.259  0.5716 -1.2649 -0.0992
15184TIP3    H266968   5.116   5.480  13.356 -1.3262 -1.1539  1.2796
15185TIP3   OH266969   4.952   2.066  10.782  0.7644  0.4951  0.5264
15185TIP3    H166970   4.904   2.018  10.850 -0.3428  0.3982 -0.2956
15185TIP3    H266971   4.912   2.038  10.700  0.7824  2.0436 -0.0463
15186TIP3   OH266972   3.520   2.716   4.178  0.7164 -0.4745  0.3742
15186TIP3    H166973   3.541   2.623   4.187  0.9697 -0.3630  1.0912
15186TIP3    H266974   3.564   2.757   4.253 -0.2695  0.0795  0.6625
15187TIP3   OH266975   1.513   6.743  12.804 -0.3143 -0.2844 -0.1644
15187TIP3    H166976   1.517   6.711  12.894  0.7715  0.7310  0.1793
15187TIP3    H266977   1.433   6.705  12.768 -0.6386 -0.8949  1.1565
15188TIP3   OH266978   0.483   5.984   6.330  0.2888  0.2593 -0.0932
15188TIP3    H166979   0.465   6.025   6.246 -2.4697 -1.0329 -0.2711
15188TIP3    H266980   0.404   6.000   6.382  0.2684 -2.2431  0.8193
15189TIP3   OH266981   0.562   5.620   5.191 -0.0622  0.4117 -0.4471
15189TIP3    H166982   0.576   5.526   5.181  0.7571  0.4231  0.4097
15189TIP3    H266983   0.477   5.636   5.150 -0.5146 -0.8046 -0.0340
15190TIP3   OH266984   6.113   0.700  16.923  0.0463  0.2973 -0.1368
15190TIP3    H166985   6.145   0.756  16.993 -0.7287  0.3328  0.2042
15190TIP3    H266986   6.027   0.670  16.953 -0.3988  0.4900 -1.1612
15191TIP3   OH266987   5.281   2.099  14.822 -0.0825 -0.6687 -0.2844
15191TIP3    H166988   5.253   2.018  14.864 -0.1570 -1.4985 -1.8375
15191TIP3    H266989   5.291   2.162  14.893 -2.9168 -1.1824  0.6966
15192TIP3   OH266990   0.131   2.077   4.716 -0.7802 -0.0337  0.0661
15192TIP3    H166991   0.078   2.151   4.685  2.1167  2.6530  1.0509
15192TIP3    H266992   0.127   2.083   4.811 -0.6516 -1.3258  0.1761
15193TIP3   OH266993   5.395   2.740  15.689  0.5116  0.0584  0.7336
15193TIP3    H166994   5.326   2.740  15.623  0.5660 -0.6769  0.6643
15193TIP3    H266995   5.440   2.824  15.678  1.0366 -0.3883 -0.7267
15194TIP3   OH266996   3.944   0.299  14.473 -0.5025 -0.3963 -0.5353
15194TIP3    H166997   3.875   0.310  14.408 -0.3409 -1.8874 -0.9998
15194TIP3    H266998   4.025   0.314  14.426 -0.4297 -0.3949 -0.4101
15195TIP3   OH266999   0.530   1.312   1.129 -0.9276  0.5024 -0.1176
15195TIP3    H167000   0.536   1.383   1.192 -0.7501  0.2813  0.1143
15195TIP3    H267001   0.457   1.258   1.159  1.0010 -1.2973  1.6496
15196TIP3   OH267002   3.727   0.054  16.180  0.3712 -0.8434  0.3864
15196TIP3    H167003   3.727   0.075  16.273  2.2000 -0.2189  0.2942
15196TIP3    H267004   3.745  -0.040  16.176 -0.8807 -1.1181  0.6531
15197TIP3   OH267005   0.403   6.556  15.885  0.3465  0.3353 -0.0456
15197TIP3    H167006   0.439   6.631  15.838  2.0975 -0.6494 -0.3930
15197TIP3    H267007   0.435   6.566  15.974 -0.6705  0.7600  0.2841
15198TIP3   OH267008   4.518   1.560   3.808  0.3611 -0.2907  0.5890
15198TIP3    H167009   4.436   1.599   3.781  0.8910  0.0467 -0.5949
15198TIP3    H267010   4.504   1.466   3.801  0.0486 -0.2335  0.4530
15199TIP3   OH267011   6.583   4.329  11.795  0.2406 -0.0123 -0.3680
15199TIP3    H167012   6.652   4.265  11.817 -0.9058 -1.5661 -1.1231
15199TIP3    H267013   6.631   4.409  11.775  1.9148 -1.2390 -1.6088
15200TIP3   OH267014   2.074   0.466   1.042  0.0727 -0.0572  0.4544
15200TIP3    H167015   1.994   0.452   1.092  0.9276  0.0567  1.9170
15200TIP3    H267016   2.143   0.472   1.108  1.0490  1.7127 -0.6461
15201TIP3   OH267017   2.864   3.563   6.527 -0.0510  0.6788  0.2301
15201TIP3    H167018   2.861   3.566   6.431  1.2685 -0.0379  0.1396
15201TIP3    H267019   2.775   3.582   6.555 -0.5242  0.5725 -1.1497
15202TIP3   OH267020   2.320   3.716  13.772  0.1993 -0.4001 -0.1149
15202TIP3    H167021   2.321   3.803  13.733 -0.2969 -0.0480  0.6389
15202TIP3    H267022   2.250   3.719  13.836  0.4444 -1.2323  0.2074
15203TIP3   OH267023   1.546   1.102   0.087 -0.7505 -0.1196 -0.2204
15203TIP3    H167024   1.455   1.074   0.101 -0.7278  0.3997  1.0855
15203TIP3    H267025   1.566   1.158   0.162  0.6973 -0.3146 -0.4309
15204TIP3   OH267026   6.515   0.916   5.133  0.2142 -0.1361  0.2520
15204TIP3    H167027   6.570   0.995   5.133  0.3059 -0.2005 -0.5516
15204TIP3    H267028   6.429   0.947   5.105 -0.5764  0.2259  2.7897
15205TIP3   OH267029   0.858   2.014   4.500 -0.6743  0.3208 -0.4459
15205TIP3    H167030   0.822   1.956   4.433 -0.1849 -1.7971  1.0099
15205TIP3    H267031   0.782   2.057   4.539 -1.1144  0.1271 -1.0846
15206TIP3   OH267032   2.248   3.222   1.307  0.1447 -0.0137 -0.0675
15206TIP3    H167033   2.245   3.260   1.395  0.3696 -0.8474  0.3128
15206TIP3    H267034   2.289   3.290   1.253  0.9769  0.1125  0.6934
15207TIP3   OH267035   2.451   4.885   6.019 -0.0828  0.0793  0.3179
15207TIP3    H167036   2.517   4.953   6.027  1.1886 -1.2432  1.6081
15207TIP3    H267037   2.369   4.927   6.044  0.3365  1.6023 -0.7773
15208TIP3   OH267038   2.956   3.882   0.363  0.0974 -0.2726  0.1431
15208TIP3    H167039   2.897   3.907   0.291  1.1583  1.2920 -0.2353
15208TIP3    H267040   2.905   3.823   0.417 -1.3740  0.0164 -0.8845
15209TIP3   OH267041   1.944   5.716  17.338  0.0056 -0.5529  0.2632
15209TIP3    H167042   1.972   5.688  17.425 -0.9861 -2.7703 -0.0523
15209TIP3    H267043   1.852   5.741  17.349  0.5674  1.7125  0.3030
15210TIP3   OH267044   2.510   5.719   0.977 -0.1733  0.3464  0.0787
15210TIP3    H167045   2.519   5.648   1.040 -0.3749  0.5937  0.3862
15210TIP3    H267046   2.535   5.797   1.025 -1.4241  0.6903  0.1897
15211TIP3   OH267047   0.890   3.427  15.361  0.3270 -0.2738 -0.4054
15211TIP3    H167048   0.965   3.486  15.364 -0.6288  0.9668 -0.5273
15211TIP3    H267049   0.842   3.453  15.283 -1.1056  0.0418  0.5518
15212TIP3   OH267050   5.053   5.590   3.645  0.2005  0.0323 -0.7173
15212TIP3    H167051   5.103   5.637   3.578  0.8034  1.0718  0.4112
15212TIP3    H267052   5.094   5.504   3.650  0.6063  0.1940 -1.1901
15213TIP3   OH267053   6.140   3.736  16.990 -0.4684 -0.7621  0.3178
15213TIP3    H167054   6.062   3.714  17.041 -1.6458  1.0974 -0.5422
15213TIP3    H267055   6.163   3.655  16.945 -0.8679 -1.7897  1.8909
15214TIP3   OH267056   4.434   0.894   2.485 -0.5482 -0.1734  0.5632
15214TIP3    H167057   4.424   0.894   2.580  0.1805  0.1547  0.6503
15214TIP3    H267058   4.355   0.937   2.452 -0.1208  1.0639  1.1142
15215TIP3   OH267059   1.436   6.603   0.723  0.1437  0.5015  0.4200
15215TIP3    H167060   1.369   6.659   0.763 -0.5002 -1.1558  1.7568
15215TIP3    H267061   1.404   6.587   0.634  0.1907  1.9407  0.1040
15216TIP3   OH267062   2.200   4.769  13.294  0.4677  0.2707 -0.5902
15216TIP3    H167063   2.151   4.713  13.354 -0.2146  1.5060  0.0353
15216TIP3    H267064   2.280   4.792  13.341  1.5676 -1.4935 -1.4920
15217TIP3   OH267065   3.767   3.612  15.054 -0.0699 -0.0547  0.5555
15217TIP3    H167066   3.853   3.641  15.085  0.6445 -0.4854 -0.9047
15217TIP3    H267067   3.743   3.540  15.112  1.3366 -1.0059  0.0226
15218TIP3   OH267068   2.987   4.013   6.002 -0.2175 -0.5572  0.1494
15218TIP3    H167069   2.944   4.092   5.969 -1.1936 -1.1367  0.0251
15218TIP3    H267070   3.026   4.041   6.085  0.9311  0.4983 -0.7049
15219TIP3   OH267071   3.982   3.308   5.414 -0.6589 -0.6543 -0.1204
15219TIP3    H167072   4.033   3.270   5.486 -0.9041 -0.3475  0.2196
15219TIP3    H267073   3.897   3.264   5.421 -1.1973  0.4666  0.7371
15220TIP3   OH267074   3.868   2.086  15.578  0.0643 -0.6205 -0.4771
15220TIP3    H167075   3.827   2.008  15.542  0.2893 -0.2340 -1.6064
15220TIP3    H267076   3.962   2.072  15.563  0.1065 -0.1564 -0.6539
15221TIP3   OH267077   4.722   2.935   2.172  0.4562  0.5735 -0.1146
15221TIP3    H167078   4.806   2.891   2.157  0.4945  0.9081 -0.9268
15221TIP3    H267079   4.666   2.868   2.211  0.6096 -0.1056 -1.0291
15222TIP3   OH267080   6.009   6.255   0.101  0.3279  0.7799  0.3492
15222TIP3    H167081   6.083   6.311   0.077  0.3702  1.3789  1.7673
15222TIP3    H267082   5.948   6.262   0.028  1.4116  0.7424 -0.5738
15223TIP3   OH267083   0.973   1.215  12.262 -0.4920 -0.4340  0.3608
15223TIP3    H167084   0.992   1.181  12.350  2.4124  2.1782  0.9002
15223TIP3    H267085   1.022   1.158  12.203 -0.4070 -0.6790  0.6654
15224TIP3   OH267086   0.692   3.173   3.495 -0.3166 -0.6042  0.6454
15224TIP3    H167087   0.633   3.238   3.534 -0.5828  0.2221 -1.0524
15224TIP3    H267088   0.777   3.218   3.490 -0.2981 -0.6875  0.2202
15225TIP3   OH267089   5.571   5.195   1.392 -0.7759 -0.4274  0.0173
15225TIP3    H167090   5.526   5.228   1.314  0.0033  1.0783  0.1643
15225TIP3    H267091   5.634   5.131   1.358 -1.3455 -0.7528 -0.4400
15226TIP3   OH267092   4.826   5.420   4.474  0.3142 -0.1999  0.5179
15226TIP3    H167093   4.868   5.505   4.481 -0.6412  0.4241 -0.8230
15226TIP3    H267094   4.732   5.439   4.470  0.1559 -1.0835 -1.9596
15227TIP3   OH267095   5.756   4.676  17.475  0.9872  0.0042  0.4648
15227TIP3    H167096   5.831   4.709  17.425  0.6116  2.6646  1.4744
15227TIP3    H267097   5.790   4.663  17.563  0.3219  1.1291  0.9051
15228TIP3   OH267098   1.846   0.433  12.536 -0.1913 -0.5125  0.4593
15228TIP3    H167099   1.854   0.415  12.442 -0.1310  0.3940  0.2817
15228TIP3    H267100   1.933   0.465  12.561 -0.3304 -0.3612  0.7415
15229TIP3   OH267101   6.256   4.287  12.282  0.0534  0.1514 -0.1660
15229TIP3    H167102   6.272   4.211  12.227  0.9939  0.2459 -0.0442
15229TIP3    H267103   6.304   4.359  12.240  0.0132  0.4390  0.2690
15230TIP3   OH267104   2.247   3.520   0.770 -0.1506  0.2873 -0.2645
15230TIP3    H167105   2.170   3.529   0.714 -0.6291 -1.1586  0.1193
15230TIP3    H267106   2.216   3.471   0.846  0.7895  1.0910  0.6645
15231TIP3   OH267107   3.386   4.056  12.345  0.0170 -0.1582 -0.7255
15231TIP3    H167108   3.292   4.046  12.360  0.0774  1.1857  0.8295
15231TIP3    H267109   3.405   4.146  12.372  1.6769 -0.2507 -1.4727
15232TIP3   OH267110   3.759   1.669  16.849  0.3905 -0.5350  0.4264
15232TIP3    H167111   3.826   1.652  16.783 -0.1427  0.2327 -0.3316
15232TIP3    H267112   3.752   1.765  16.852 -1.2974 -0.6151 -0.1602
15233TIP3   OH267113   2.586   4.708   6.170 -0.4203 -0.5424 -0.1628
15233TIP3    H167114   2.530   4.771   6.125 -0.2677  0.3755  0.9057
15233TIP3    H267115   2.538   4.685   6.249 -0.1044 -1.1558 -0.1441
15234TIP3   OH267116   3.726   3.741   1.254  0.2031 -0.5592  0.0337
15234TIP3    H167117   3.665   3.782   1.192  0.2003 -0.1804  0.2868
15234TIP3    H267118   3.795   3.704   1.198 -0.7569 -1.8500 -0.3246
15235TIP3   OH267119   5.120   1.762   0.622  0.7149  0.0376 -0.1835
15235TIP3    H167120   5.099   1.848   0.586  1.1595 -0.1159 -0.8170
15235TIP3    H267121   5.134   1.706   0.545  1.4030 -0.3636  0.2210
15236TIP3   OH267122   2.151   6.347   1.647  0.1729 -0.3194  0.0752
15236TIP3    H167123   2.200   6.344   1.564 -0.4923  0.4213 -0.3665
15236TIP3    H267124   2.120   6.258   1.660  2.4703 -1.0656  0.9064
15237TIP3   OH267125   5.478   2.099   4.972  0.0093  0.2169  0.4924
15237TIP3    H167126   5.486   2.122   4.879  0.2702 -0.2207  0.4019
15237TIP3    H267127   5.407   2.155   5.005 -0.8892 -0.4532 -0.2518
15238TIP3   OH267128   6.366   2.314   5.750  0.5443 -0.0294 -0.5444
15238TIP3    H167129   6.336   2.397   5.787  0.0006 -0.0492 -0.9309
15238TIP3    H267130   6.313   2.247   5.794  2.4514 -0.4075  1.3928
15239TIP3   OH267131   4.948   3.545   0.719 -0.2632  0.0370 -0.3413
15239TIP3    H167132   4.964   3.453   0.741  0.3979  0.0109 -0.8994
15239TIP3    H267133   5.007   3.593   0.776  2.7331 -0.0967 -3.0414
15240TIP3   OH267134   6.725   4.310  10.577 -0.2424  0.0883 -0.2650
15240TIP3    H167135   6.673   4.390  10.569 -1.4101 -0.8194 -3.0806
15240TIP3    H267136   6.705   4.277  10.664 -1.0758  1.9787  0.3041
15241TIP3   OH267137   0.767   1.989   1.228 -0.5176  0.3409 -0.0666
15241TIP3    H167138   0.694   2.030   1.275 -0.9169  1.0941 -1.3026
15241TIP3    H267139   0.796   2.056   1.166  1.1597  0.0096  0.3167
15242TIP3   OH267140   0.696   3.392  15.957 -0.6891  0.3458  0.5576
15242TIP3    H167141   0.733   3.305  15.971 -1.2766 -0.4226 -2.0592
15242TIP3    H267142   0.744   3.427  15.882 -1.3025  1.7783  0.7943
15243TIP3   OH267143   3.954   2.583   4.784 -0.1267 -0.1182  0.1274
15243TIP3    H167144   3.921   2.572   4.873  2.2199 -0.6678  0.9912
15243TIP3    H267145   3.999   2.668   4.784  0.0118 -0.1830 -0.4843
15244TIP3   OH267146   0.731   6.162  15.246 -0.4547 -0.4882  0.3192
15244TIP3    H167147   0.820   6.168  15.283 -0.0857 -0.1029 -0.5980
15244TIP3    H267148   0.697   6.079  15.279  0.4738 -0.9268  0.2194
15245TIP3   OH267149   3.657   1.257   2.286  0.0007  0.1171  0.5791
15245TIP3    H167150   3.581   1.204   2.262  0.3891 -0.1189 -0.1641
15245TIP3    H267151   3.716   1.195   2.330 -0.3362  0.3544  1.3761
15246TIP3   OH267152   1.919   5.265   6.067 -0.6690  0.0547 -0.0808
15246TIP3    H167153   1.950   5.261   6.158  0.7919  0.5418 -0.5259
15246TIP3    H267154   1.829   5.296   6.074 -0.9417 -0.9559  1.2552
15247TIP3   OH267155   6.319   6.440   3.684 -0.4786  0.7864 -1.0083
15247TIP3    H167156   6.327   6.345   3.679 -0.6373  0.7205 -0.2285
15247TIP3    H267157   6.240   6.460   3.635 -2.9725  0.0251  2.2927
15248TIP3   OH267158   5.206   3.845  13.865  0.0304 -0.3629 -0.0749
15248TIP3    H167159   5.291   3.844  13.909  0.6671 -2.7088 -1.2251
15248TIP3    H267160   5.165   3.763  13.891 -1.0315 -0.1834 -1.1215
15249TIP3   OH267161   2.383   2.074   2.045  0.2452 -0.4600 -0.1947
15249TIP3    H167162   2.358   1.994   2.000 -0.3986 -0.0891 -0.5123
15249TIP3    H267163   2.360   2.059   2.136  1.3800 -1.1433 -0.0113
15250TIP3   OH267164   1.542   0.706   4.999  0.0556 -0.3906  0.0528
15250TIP3    H167165   1.585   0.621   4.994 -1.1907 -0.9966 -0.8654
15250TIP3    H267166   1.460   0.689   5.046  0.5151  0.6323  1.2853
15251TIP3   OH267167   1.482   2.863  11.707 -0.0442 -0.2132  0.7690
15251TIP3    H167168   1.432   2.858  11.788  0.5463 -0.9112  1.1017
15251TIP3    H267169   1.441   2.934  11.657  0.2499  0.9686  2.1448
15252TIP3   OH267170   6.345   0.605  15.248  0.3995 -0.0382 -0.3638
15252TIP3    H167171   6.439   0.619  15.256 -0.1044  3.2224  2.0626
15252TIP3    H267172   6.329   0.604  15.154  2.8989 -1.5063 -0.8520
15253TIP3   OH267173   2.546   1.234  12.069 -0.3592  0.6889 -0.2177
15253TIP3    H167174   2.609   1.188  12.124 -0.5170  1.7944  0.9407
15253TIP3    H267175   2.598   1.275  12.000  0.2645  1.9290  0.9615
15254TIP3   OH267176   1.503   6.391  12.723 -0.4500  1.0952 -0.2556
15254TIP3    H167177   1.570   6.334  12.759  0.9384  1.9852 -1.3025
15254TIP3    H267178   1.550   6.445  12.659 -1.9648  2.4877 -0.2536
15255TIP3   OH267179   2.542   5.823   1.648  0.4173  0.0727  0.5526
15255TIP3    H167180   2.611   5.758   1.639  1.4073  0.9952  1.2923
15255TIP3    H267181   2.569   5.878   1.722 -0.2288  1.5210 -0.2336
15256TIP3   OH267182   1.588   5.734   2.788 -0.0313 -0.3418 -0.1374
15256TIP3    H167183   1.537   5.777   2.720 -0.2852 -0.4971 -0.0469
15256TIP3    H267184   1.540   5.653   2.807 -1.3140  0.8047  1.9022
15257TIP3   OH267185   5.544   1.231  11.505  0.1958  0.5619 -0.5585
15257TIP3    H167186   5.573   1.322  11.519  0.3735  0.9798 -3.2227
15257TIP3    H267187   5.450   1.238  11.490 -0.3158 -0.0876  1.8336
15258TIP3   OH267188   3.682   6.284  16.168 -0.0006 -0.0617  0.0977
15258TIP3    H167189   3.707   6.368  16.206 -0.3515  0.3631 -0.5733
15258TIP3    H267190   3.736   6.276  16.089 -0.8520  0.1385 -0.5229
15259TIP3   OH267191   4.179   5.018   5.999 -0.0572  0.4432  0.1038
15259TIP3    H167192   4.195   4.952   6.067  0.4743  1.9420  1.5056
15259TIP3    H267193   4.219   4.981   5.920  0.7837 -0.6285  0.9931
15260TIP3   OH267194   6.663   4.437  16.285  0.3288 -0.3551  0.5977
15260TIP3    H167195   6.748   4.480  16.298  1.2130 -1.9137  0.2060
15260TIP3    H267196   6.684   4.355  16.241 -1.2571 -1.4387  1.7747
15261TIP3   OH267197   2.176   1.237  13.117 -0.2310 -0.3320  0.5942
15261TIP3    H167198   2.085   1.206  13.122 -1.0387  1.8288  0.5395
15261TIP3    H267199   2.222   1.186  13.183 -1.0192 -2.8235 -0.6533
15262TIP3   OH267200   0.630   4.367  15.420  0.0753  0.3113 -0.0440
15262TIP3    H167201   0.551   4.418  15.433 -0.7308 -0.9507  0.2088
15262TIP3    H267202   0.626   4.299  15.487  1.1925  0.0048 -0.2620
15263TIP3   OH267203   3.938   6.612   4.566  0.7293 -0.0252 -0.0495
15263TIP3    H167204   3.930   6.647   4.477 -0.7307  0.0946  0.0901
15263TIP3    H267205   4.023   6.568   4.567  0.8692  0.1468 -1.4400
15264TIP3   OH267206   2.608   2.985   1.544 -0.7396 -0.4484  0.1329
15264TIP3    H167207   2.562   3.008   1.624  0.2353 -1.0431  0.8885
15264TIP3    H267208   2.598   3.062   1.487  0.4791  0.9422  1.7025
15265TIP3   OH267209   4.221   2.610  15.147  0.6351 -0.9721 -0.1613
15265TIP3    H167210   4.210   2.653  15.062  2.9213  1.7991  0.8030
15265TIP3    H267211   4.238   2.518  15.125  0.4249 -0.4982 -2.6436
15266TIP3   OH267212   2.538   4.503   5.105  0.1793  0.2657  0.4610
15266TIP3    H167213   2.557   4.596   5.110 -0.8326  0.6222 -1.4031
15266TIP3    H267214   2.442   4.498   5.103  0.2278 -0.7559 -0.1755
15267TIP3   OH267215   3.377   5.443  14.932  0.2505 -0.1692  0.0982
15267TIP3    H167216   3.405   5.521  14.980  1.1314 -0.4968  0.1319
15267TIP3    H267217   3.455   5.388  14.928  0.6837  0.5010 -3.0969
15268TIP3   OH267218   6.233   0.372   3.199 -0.7649  0.0321 -0.2002
15268TIP3    H167219   6.326   0.381   3.182 -0.6004  3.2028  1.6487
15268TIP3    H267220   6.191   0.396   3.116  0.0845  1.5012 -0.2302
15269TIP3   OH267221   1.513   3.065   4.197  0.1362  0.4885  0.2252
15269TIP3    H167222   1.462   3.098   4.123 -0.4554 -0.5765  0.1317
15269TIP3    H267223   1.448   3.052   4.267  0.2806 -0.7118  0.1621
15270TIP3   OH267224   4.363   5.147  14.881  0.1147  0.3087 -0.3382
15270TIP3    H167225   4.402   5.233  14.872 -1.1324  0.9270 -0.1000
15270TIP3    H267226   4.385   5.101  14.800  4.3670 -0.7353  1.1701
15271TIP3   OH267227   2.535   0.877  16.990  0.0397 -0.0292 -0.4721
15271TIP3    H167228   2.584   0.819  16.932  0.8029  0.2076 -0.0712
15271TIP3    H267229   2.562   0.966  16.965  2.2345  0.0443  1.7800
15272TIP3   OH267230   2.796   4.967  16.185  0.1007  0.3986  0.0464
15272TIP3    H167231   2.770   4.883  16.224  1.3230 -0.4319 -0.8619
15272TIP3    H267232   2.714   5.003  16.152 -0.2283 -1.3818 -1.2808
15273TIP3   OH267233   1.782   6.077  16.706  0.1399  0.2895  0.3170
15273TIP3    H167234   1.736   6.026  16.639 -0.1115 -1.9640  2.0987
15273TIP3    H267235   1.868   6.036  16.713  1.0191  1.9498 -0.1641
15274TIP3   OH267236   5.079   0.807   4.648 -0.2055 -0.0435 -0.1162
15274TIP3    H167237   4.983   0.813   4.644 -0.5564 -2.4791  1.8430
15274TIP3    H267238   5.108   0.896   4.667 -1.9681  0.9421 -1.7134
15275TIP3   OH267239   6.230   0.273   2.057 -0.0889 -0.0353  0.0138
15275TIP3    H167240   6.176   0.263   2.136 -0.9542 -3.4664 -0.8299
15275TIP3    H267241   6.301   0.331   2.084 -1.7493  1.0402  2.5093
15276TIP3   OH267242   2.468   1.670  16.006  0.0437  0.2127 -0.5033
15276TIP3    H167243   2.556   1.639  15.984 -0.4793 -2.1551  0.4648
15276TIP3    H267244   2.465   1.670  16.101 -1.2678 -0.6755 -0.5107
15277TIP3   OH267245   6.542   1.137  11.923 -0.1607 -0.8313  0.2629
15277TIP3    H167246   6.610   1.080  11.958  1.6154  2.3067  2.4358
15277TIP3    H267247   6.583   1.179  11.847 -1.1277 -1.6741 -0.7624
15278TIP3   OH267248   2.973   2.021   0.832  0.3584  0.6016 -0.0699
15278TIP3    H167249   2.930   2.087   0.886  0.1718  1.9604 -1.7540
15278TIP3    H267250   3.063   2.054   0.822  0.1184  0.9266 -1.3568
15279TIP3   OH267251   5.818   3.517  16.177 -0.2310 -0.1262  0.0156
15279TIP3    H167252   5.902   3.552  16.206 -0.8387  1.7429 -0.2927
15279TIP3    H267253   5.816   3.533  16.082 -0.3759 -1.4526 -0.2298
15280TIP3   OH267254   2.736   1.753   1.098 -0.2167 -0.0021 -0.0611
15280TIP3    H167255   2.751   1.688   1.166 -4.0523 -1.4887 -0.3592
15280TIP3    H267256   2.729   1.702   1.017 -0.6021  1.1308 -0.7663
15281TIP3   OH267257   2.357   0.041  12.690  0.0826  0.5526 -0.1365
15281TIP3    H167258   2.353  -0.010  12.772  1.5212  0.1156 -0.3067
15281TIP3    H267259   2.283   0.009  12.639 -1.5800  1.6687  1.4181
15282TIP3   OH267260   1.926   3.173   0.713  0.0002 -0.7358 -1.0647
15282TIP3    H167261   1.946   3.125   0.793  0.0212  0.2227 -0.4795
15282TIP3    H267262   2.006   3.166   0.660  0.2582 -0.7430 -0.6790
15283TIP3   OH267263   0.082   2.569  14.293 -0.5555 -0.0585  0.4848
15283TIP3    H167264   0.058   2.529  14.209 -0.2464  2.3971 -0.8561
15283TIP3    H267265   0.131   2.500  14.338 -0.3708 -1.3368 -1.5131
15284TIP3   OH267266   4.500   1.313   2.604  0.1662 -0.6555 -0.4357
15284TIP3    H167267   4.413   1.313   2.644 -0.1507 -3.5577 -0.9170
15284TIP3    H267268   4.527   1.222   2.606  3.1849  0.1506 -0.4343
15285TIP3   OH267269   0.281   4.125  12.685 -0.5451  0.2931  0.4221
15285TIP3    H167270   0.333   4.058  12.730 -2.6913 -0.8457  1.3392
15285TIP3    H267271   0.213   4.149  12.749 -1.3569  1.4692 -0.8401
15286TIP3   OH267272   2.082   5.968   3.774 -0.0897 -0.1098 -0.2708
15286TIP3    H167273   2.135   6.034   3.819 -0.8712 -0.2236  0.8489
15286TIP3    H267274   2.078   5.894   3.835 -1.2878 -0.2112 -0.4486
15287TIP3   OH267275   1.252   0.339  15.088 -0.2194 -0.0381  0.4941
15287TIP3    H167276   1.325   0.362  15.145 -0.4724  1.4852  0.2573
15287TIP3    H267277   1.293   0.312  15.005  0.1088  2.0836 -0.0951
15288TIP3   OH267278   5.405   5.768   4.398  0.5572  0.0265  0.7015
15288TIP3    H167279   5.484   5.730   4.437  0.8631  0.2709  0.3178
15288TIP3    H267280   5.421   5.862   4.398  0.0101  0.1277  1.1796
15289TIP3   OH267281   6.595   6.602  14.328  0.0653  0.3148  0.2551
15289TIP3    H167282   6.517   6.614  14.273 -0.3720  0.0958  0.8291
15289TIP3    H267283   6.594   6.509  14.351  1.3493 -0.0521 -0.9981
15290TIP3   OH267284   2.854   5.046   1.099  0.1037  0.6143  0.0224
15290TIP3    H167285   2.852   5.088   1.185 -0.9991 -0.6776  0.6742
15290TIP3    H267286   2.947   5.035   1.079  0.3740  0.8148  1.1110
15291TIP3   OH267287   6.682   5.606   4.062  0.0947  0.4529 -0.2276
15291TIP3    H167288   6.690   5.516   4.093  2.0338 -0.7207 -3.6137
15291TIP3    H267289   6.600   5.608   4.014 -1.1106  1.2754  1.7049
15292TIP3   OH267290   2.994   3.645   3.113 -0.0816  0.2161 -0.2638
15292TIP3    H167291   3.010   3.734   3.083  0.9935  0.4288  0.8383
15292TIP3    H267292   2.939   3.606   3.045  1.1997  1.0418 -1.8470
15293TIP3   OH267293   4.021   6.653  13.074 -0.8773 -0.0657  0.1210
15293TIP3    H167294   4.066   6.693  12.999 -0.5902 -0.9445 -0.1869
15293TIP3    H267295   4.006   6.726  13.134  2.1920  0.1047  0.8707
15294TIP3   OH267296   1.534   6.305   0.074  0.1941 -0.5949  0.0734
15294TIP3    H167297   1.453   6.279   0.031  0.8374 -2.8675  0.1035
15294TIP3    H267298   1.526   6.269   0.163 -0.0518  1.8781  1.1324
15295TIP3   OH267299   4.601   2.213  14.842  0.1220  0.3367  0.3022
15295TIP3    H167300   4.634   2.288  14.891 -0.7186  1.6719 -1.1016
15295TIP3    H267301   4.507   2.228  14.834 -0.3420 -1.6793  1.3106
15296TIP3   OH267302   6.720   1.690  13.992  0.3501 -0.4485  0.3225
15296TIP3    H167303   6.787   1.753  14.020  1.4184 -1.7549  0.7903
15296TIP3    H267304   6.714   1.627  14.064 -0.8887 -0.7674 -0.0255
15297TIP3   OH267305   4.522   5.718  14.068 -0.2026 -0.5247 -0.0506
15297TIP3    H167306   4.594   5.776  14.041 -2.0003  0.8640 -2.1516
15297TIP3    H267307   4.499   5.670  13.989 -2.5177  0.0965  0.1979
15298TIP3   OH267308   1.726   1.823  16.115 -0.1113  0.3009  0.3549
15298TIP3    H167309   1.742   1.778  16.032  2.2996  0.8459  0.4672
15298TIP3    H267310   1.811   1.824  16.159 -0.7517  2.3281  1.6860
15299TIP3   OH267311   6.695   3.038   2.852 -0.2011  0.5359  0.0194
15299TIP3    H167312   6.640   3.000   2.784  0.4212 -0.8507  0.2565
15299TIP3    H267313   6.777   3.059   2.808 -0.9794  2.9637 -0.4240
15300TIP3   OH267314   2.626   6.581  16.090 -0.0646 -0.0964 -0.1276
15300TIP3    H167315   2.684   6.561  16.017  0.7631 -0.7117  0.6704
15300TIP3    H267316   2.568   6.649  16.057 -0.3077 -0.9989 -1.6482
15301TIP3   OH267317   2.393   0.459  10.824  0.0168  0.3986  0.9326
15301TIP3    H167318   2.298   0.463  10.814 -0.2518  0.3294  3.0073
15301TIP3    H267319   2.410   0.373  10.863  0.7364  1.0123  2.0423
15302TIP3   OH267320   0.078   3.420   4.221 -0.0080 -0.2849 -0.1361
15302TIP3    H167321   0.132   3.356   4.174 -0.7276 -0.0687 -1.2706
15302TIP3    H267322   0.053   3.484   4.155 -0.2524  0.5526  0.7497
15303TIP3   OH267323   3.030   4.194   5.571 -0.1602 -0.1089  0.4008
15303TIP3    H167324   3.049   4.282   5.605  0.0288 -0.3891  1.0405
15303TIP3    H267325   2.957   4.207   5.511 -0.9602  0.3278  1.4205
15304TIP3   OH267326   4.151   3.723  10.811 -0.2895 -0.2097 -0.1890
15304TIP3    H167327   4.187   3.802  10.851  0.5972 -1.6516  2.0001
15304TIP3    H267328   4.227   3.674  10.782 -0.4440 -2.2974  2.5649
15305TIP3   OH267329   3.123   5.368  13.598  0.1713 -0.0426 -0.3071
15305TIP3    H167330   3.136   5.274  13.609 -1.7553 -0.3087  0.1247
15305TIP3    H267331   3.050   5.376  13.536 -1.7194  1.0233  1.8788
15306TIP3   OH267332   0.393   2.537   5.374  0.3804 -0.5406  0.1542
15306TIP3    H167333   0.448   2.492   5.438  2.2134  0.4418 -0.6429
15306TIP3    H267334   0.381   2.472   5.304 -1.6819 -1.6391  1.4166
15307TIP3   OH267335   0.909   6.323   3.051  0.5153 -0.1595  0.5649
15307TIP3    H167336   0.839   6.261   3.032 -0.5105  0.2030  2.8813
15307TIP3    H267337   0.985   6.268   3.070  0.3882 -0.5999 -0.1715
15308TIP3   OH267338   1.300   2.697   1.344  0.0061  0.1369  0.2718
15308TIP3    H167339   1.335   2.609   1.331 -2.6485 -0.9619 -0.1223
15308TIP3    H267340   1.300   2.710   1.439  0.6341 -0.1582  0.3183
15309TIP3   OH267341   1.542   4.129  16.470  0.7480  0.3476  0.1121
15309TIP3    H167342   1.593   4.101  16.394  2.2236  2.3930  0.2653
15309TIP3    H267343   1.599   4.111  16.545 -0.1318 -0.3622  0.6283
15310TIP3   OH267344   6.423   4.407   0.592 -0.3988  0.2534  0.2138
15310TIP3    H167345   6.475   4.328   0.609  1.0227  1.2944  0.8319
15310TIP3    H267346   6.374   4.386   0.512 -0.2099 -1.3168  0.4722
15311TIP3   OH267347   0.890   0.287   1.887 -0.0247 -0.2208 -0.1628
15311TIP3    H167348   0.837   0.364   1.868 -0.0435  0.1434  1.2842
15311TIP3    H267349   0.971   0.301   1.837  0.4742  1.3484  1.0208
15312TIP3   OH267350   0.937   6.008  14.760 -0.0292  0.1786  0.1588
15312TIP3    H167351   1.006   6.003  14.694 -0.6683  1.3193 -0.6325
15312TIP3    H267352   0.860   6.038  14.712 -0.9980 -0.7436  1.0921
15313TIP3   OH267353   3.151   3.340   4.583  0.6628  0.0569  0.2160
15313TIP3    H167354   3.083   3.343   4.651 -0.1292  0.6081 -0.5892
15313TIP3    H267355   3.189   3.428   4.582 -1.5857  1.1472 -2.2628
15314TIP3   OH267356   5.222   3.777   2.668  0.6236 -0.0197 -0.0553
15314TIP3    H167357   5.165   3.703   2.689 -0.9484  0.8980 -0.8936
15314TIP3    H267358   5.165   3.854   2.674  1.1581  0.7451 -3.0405
15315TIP3   OH267359   5.052   2.306   6.668  0.5148 -0.3905  0.0673
15315TIP3    H167360   4.959   2.281   6.671 -0.0602  1.6230  0.5433
15315TIP3    H267361   5.066   2.356   6.748  1.8329 -0.0496 -0.3585
15316TIP3   OH267362   6.149   4.889  13.044 -0.4650  0.4627  0.3605
15316TIP3    H167363   6.202   4.969  13.041  1.7673 -0.9009  0.7041
15316TIP3    H267364   6.147   4.866  13.137 -0.8357 -0.0478  0.2292
15317TIP3   OH267365   1.771   2.620   2.205 -0.0921  0.1594 -0.5550
15317TIP3    H167366   1.845   2.674   2.232  1.3178 -1.8081 -0.2925
15317TIP3    H267367   1.787   2.603   2.112 -0.3667 -0.0335 -0.5666
15318TIP3   OH267368   1.209   0.164  11.676 -0.1551 -0.5996  0.4357
15318TIP3    H167369   1.241   0.254  11.679  0.8100 -0.6641 -2.9630
15318TIP3    H267370   1.279   0.112  11.715  0.4233 -0.0529  0.1480
15319TIP3   OH267371   2.395   0.130  11.653  0.3757 -0.1433  0.6438
15319TIP3    H167372   2.352   0.060  11.702  1.5064 -1.2955  0.0761
15319TIP3    H267373   2.481   0.093  11.631  0.8931  1.3356  0.0844
15320TIP3   OH267374   3.773   3.340   2.301  0.4439 -0.0020  0.2018
15320TIP3    H167375   3.748   3.432   2.304  0.3519 -0.0434  1.9814
15320TIP3    H267376   3.835   3.334   2.229 -1.7126  0.8458 -1.8661
15321TIP3   OH267377   0.483   2.183  15.615 -0.1843 -0.6981 -0.4239
15321TIP3    H167378   0.565   2.230  15.602 -0.1948  0.2341  2.2620
15321TIP3    H267379   0.437   2.190  15.531  1.7468  0.1849 -1.4612
15322TIP3   OH267380   0.336   3.380  11.735  0.0065 -0.2362  0.1748
15322TIP3    H167381   0.427   3.352  11.740 -0.0638 -0.5565 -0.3050
15322TIP3    H267382   0.340   3.475  11.729  0.3012 -0.2386  0.3266
15323TIP3   OH267383   2.751   5.355   3.324 -0.3441 -0.2748  0.9382
15323TIP3    H167384   2.801   5.388   3.399 -0.2427  3.1487 -0.4509
15323TIP3    H267385   2.777   5.263   3.317  2.7326  0.3026  2.6840
15324TIP3   OH267386   4.442   6.292   5.090  0.6568  0.2334  0.3228
15324TIP3    H167387   4.513   6.326   5.144  2.2013 -0.4553 -1.1718
15324TIP3    H267388   4.485   6.232   5.029 -1.5173 -2.0140  0.8312
15325TIP3   OH267389   4.368   4.323   1.199 -0.0294  0.2120  0.3729
15325TIP3    H167390   4.427   4.367   1.260 -0.1872 -0.2157  0.8312
15325TIP3    H267391   4.372   4.377   1.120  2.0801 -0.5782 -0.1211
15326TIP3   OH267392   6.530   3.003   1.787  0.0256  0.3417  0.0288
15326TIP3    H167393   6.588   2.968   1.854  0.0943  0.7312  0.1753
15326TIP3    H267394   6.442   2.981   1.818  0.1056 -0.6768 -0.4354
15327TIP3   OH267395   5.524   0.881  16.283  0.0397  0.1327  0.2793
15327TIP3    H167396   5.580   0.842  16.350  1.6011  1.1668 -0.3726
15327TIP3    H267397   5.435   0.866  16.314  0.6592 -1.6042  1.3265
15328TIP3   OH267398   4.112   4.291   0.910  0.1367 -0.8400 -0.1989
15328TIP3    H167399   4.113   4.375   0.865  1.5866  1.0341  2.9950
15328TIP3    H267400   4.058   4.306   0.988 -1.2109 -3.5160 -0.4980
15329TIP3   OH267401   0.705   4.966   4.517 -0.4637  0.5589 -0.1890
15329TIP3    H167402   0.723   4.899   4.582 -1.5122  0.2998 -0.1473
15329TIP3    H267403   0.728   4.925   4.433  0.3617  0.6993 -0.0371
15330TIP3   OH267404   5.464   0.815   0.215 -0.1766 -0.6597 -0.1745
15330TIP3    H167405   5.478   0.751   0.286 -0.5367  0.2495  0.7488
15330TIP3    H267406   5.499   0.897   0.250 -0.7531 -0.0957 -0.8821
15331TIP3   OH267407   0.111   0.816   3.003  0.4246 -0.0602  0.0109
15331TIP3    H167408   0.072   0.812   3.091 -0.6709  3.4538 -0.1727
15331TIP3    H267409   0.203   0.834   3.018  0.3792 -0.1855  0.4572
15332TIP3   OH267410   2.597   4.170  13.811  0.1827  0.6917 -0.2089
15332TIP3    H167411   2.605   4.140  13.720 -4.1158 -0.6868 -0.3930
15332TIP3    H267412   2.545   4.250  13.805 -1.9389 -0.4890  0.9783
15333TIP3   OH267413   4.846   6.458  17.358  0.3870  0.1325 -0.2471
15333TIP3    H167414   4.851   6.380  17.413  1.8287 -0.9160 -1.7512
15333TIP3    H267415   4.821   6.528  17.418  1.5573 -0.9927  1.6752
15334TIP3   OH267416   1.398   0.584   3.511  0.1254 -0.3556 -0.4804
15334TIP3    H167417   1.394   0.493   3.482 -2.1270 -0.1925 -0.9209
15334TIP3    H267418   1.361   0.582   3.600 -1.0679  0.2451 -0.9388
15335TIP3   OH267419   5.978   5.239   5.163  0.2002 -0.0159 -0.8550
15335TIP3    H167420   5.998   5.322   5.120  1.1979  0.4090  0.3611
15335TIP3    H267421   5.998   5.254   5.255 -0.4135 -1.3552 -0.4755
15336TIP3   OH267422   0.936   2.690  13.279 -0.3321  0.7790 -0.9193
15336TIP3    H167423   1.028   2.699  13.257  0.4129 -2.0186  0.6667
15336TIP3    H267424   0.894   2.765  13.236  2.8391  3.0924 -0.3596
15337TIP3   OH267425   3.091   3.305   1.728  0.0701 -0.0614  0.3573
15337TIP3    H167426   3.169   3.333   1.776 -0.4966  0.4800  0.9809
15337TIP3    H267427   3.096   3.209   1.727  1.0872 -0.0158 -0.2088
15338TIP3   OH267428   1.697   2.599  11.623 -0.4359  0.3461 -0.1746
15338TIP3    H167429   1.712   2.674  11.680 -0.4869  0.1612  0.0823
15338TIP3    H267430   1.645   2.538  11.675  0.9614 -0.5731  0.2044
15339TIP3   OH267431   4.107   6.451   0.990 -0.8402  0.6479 -0.2965
15339TIP3    H167432   4.091   6.362   1.021 -1.5150  0.2374 -1.7536
15339TIP3    H267433   4.037   6.503   1.029 -0.3859  0.5748  0.6381
15340TIP3   OH267434   5.245   1.860   3.916 -0.0517 -0.3424 -0.2572
15340TIP3    H167435   5.241   1.907   3.999 -0.6702 -0.6508 -0.1009
15340TIP3    H267436   5.250   1.929   3.849  1.2051 -0.1125  0.0608
15341TIP3   OH267437   6.619   0.562  15.803 -0.3449  0.1910  0.1816
15341TIP3    H167438   6.697   0.605  15.840  0.2747 -0.0440 -0.8179
15341TIP3    H267439   6.634   0.469  15.819 -0.2819  0.1241 -0.2787
15342TIP3   OH267440   1.784   3.935   1.845  0.3986 -0.0816 -0.1646
15342TIP3    H167441   1.872   3.925   1.881  0.7093  1.3592 -0.4378
15342TIP3    H267442   1.742   3.999   1.902  0.1440  0.5555 -1.0374
15343TIP3   OH267443   4.825   2.671   2.954  0.3140 -0.3129 -0.0625
15343TIP3    H167444   4.912   2.688   2.918  0.0372  3.8155  0.7746
15343TIP3    H267445   4.824   2.715   3.039 -1.7954 -2.5536  1.2230
15344TIP3   OH267446   1.930   1.913  11.480 -0.8255 -0.4151 -0.2319
15344TIP3    H167447   2.018   1.948  11.465 -1.2087  1.7877  1.8997
15344TIP3    H267448   1.944   1.837  11.537 -0.2265 -1.1979 -1.3910
15345TIP3   OH267449   6.583   4.325  11.247  0.1537 -0.0961 -0.2529
15345TIP3    H167450   6.541   4.257  11.195 -0.1956 -0.2462  0.2187
15345TIP3    H267451   6.573   4.405  11.195 -1.9244  0.1488  0.4217
15346TIP3   OH267452   6.197   0.276  15.445  0.4510  0.2870 -0.3678
15346TIP3    H167453   6.147   0.293  15.365  1.8170  1.4386 -1.0203
15346TIP3    H267454   6.239   0.359  15.465 -0.4341  0.2344  1.9991
15347TIP3   OH267455   2.881   1.606  14.288  0.0441 -0.1475  0.3552
15347TIP3    H167456   2.968   1.635  14.257 -0.4337  0.1438 -0.7981
15347TIP3    H267457   2.820   1.662  14.240 -0.8190 -1.0673  0.3572
15348TIP3   OH267458   4.386   1.138  12.316  0.1061  1.2117 -0.5590
15348TIP3    H167459   4.391   1.087  12.235 -1.0432  0.7932 -0.3932
15348TIP3    H267460   4.371   1.228  12.286 -1.5058  0.8918 -0.8380
15349TIP3   OH267461   5.307   6.685  15.575 -0.1024 -0.2124 -0.2416
15349TIP3    H167462   5.385   6.665  15.523  0.0522  1.9945 -0.9780
15349TIP3    H267463   5.235   6.682  15.512 -0.0927  1.1689 -0.3526
15350TIP3   OH267464   6.643   1.628   6.265 -0.0615 -0.0850 -0.1516
15350TIP3    H167465   6.669   1.720   6.257  1.3426 -0.3674  0.8378
15350TIP3    H267466   6.686   1.598   6.345  0.6840 -2.0061 -1.2222
15351TIP3   OH267467   2.898   6.675  16.983  0.1170  0.6234  0.6583
15351TIP3    H167468   2.925   6.691  16.893  0.4506 -0.3357  0.5716
15351TIP3    H267469   2.980   6.675  17.033  0.0917 -0.3306  0.7109
15352TIP3   OH267470   1.640   5.874   4.553  0.0439  0.1087 -0.1752
15352TIP3    H167471   1.634   5.842   4.462  1.5536 -2.5334  0.5352
15352TIP3    H267472   1.554   5.858   4.590 -0.6147  1.2847 -1.1140
15353TIP3   OH267473   1.830   6.591  13.977 -0.0505  0.3339 -0.0024
15353TIP3    H167474   1.847   6.685  13.986  0.9774  0.3066 -1.3643
15353TIP3    H267475   1.917   6.553  13.961 -0.5808 -0.7156 -0.4269
15354TIP3   OH267476   1.061   3.157  11.466 -0.4989  0.1525  0.3376
15354TIP3    H167477   1.103   3.133  11.549 -0.0624  2.6472  0.9289
15354TIP3    H267478   1.113   3.114  11.399  0.4511 -0.1901  1.2697
15355TIP3   OH267479   1.345   4.629   1.909 -0.4563  0.3464  0.0131
15355TIP3    H167480   1.326   4.715   1.945 -0.1757  0.6174 -0.4765
15355TIP3    H267481   1.396   4.646   1.830 -0.9226 -0.2443 -0.4294
15356TIP3   OH267482   1.650   5.613   5.047  0.1928  0.2107 -0.7902
15356TIP3    H167483   1.743   5.607   5.025  0.8346 -0.4027  1.8406
15356TIP3    H267484   1.643   5.576   5.135 -2.2362  1.9336 -0.1540
15357TIP3   OH267485   0.075   4.447  16.622  0.8822 -0.2069  0.0106
15357TIP3    H167486   0.147   4.410  16.572  1.2643  2.8224 -1.9801
15357TIP3    H267487   0.029   4.503  16.559 -2.7590 -1.3270  1.4078
15358TIP3   OH267488   5.764   6.435   4.288 -0.6089 -0.0139  0.1180
15358TIP3    H167489   5.740   6.410   4.377  2.1144  0.2402  1.0059
15358TIP3    H267490   5.728   6.366   4.233 -0.8991 -1.0813  1.5852
15359TIP3   OH267491   0.450   0.899  15.974  0.3775 -0.6706  0.4060
15359TIP3    H167492   0.419   0.819  16.017 -0.3495 -0.1516  0.8750
15359TIP3    H267493   0.422   0.891  15.883 -0.6035 -0.4987  0.6827
15360TIP3   OH267494   1.981   2.758  16.983  0.2706 -0.4011  0.2530
15360TIP3    H167495   1.988   2.834  17.041  1.6098  1.1296 -1.8034
15360TIP3    H267496   2.006   2.684  17.039 -0.4146  0.7078  2.1396
15361TIP3   OH267497   2.907   6.304  12.970  0.0037 -0.0393  0.5255
15361TIP3    H167498   2.856   6.341  13.042 -1.3201 -2.3372  0.8738
15361TIP3    H267499   2.991   6.350  12.974 -0.9024  1.6253  1.9505
15362TIP3   OH267500   1.549   4.357   5.725  0.0728 -0.4139 -0.5008
15362TIP3    H167501   1.571   4.339   5.816 -0.3775 -0.9323 -0.4847
15362TIP3    H267502   1.548   4.452   5.718 -1.8815 -0.2930  0.5716
15363TIP3   OH267503   0.797   0.634  14.971 -0.1712  0.5828  0.0631
15363TIP3    H167504   0.828   0.602  15.056 -0.1820  0.9897  0.2208
15363TIP3    H267505   0.875   0.673  14.931 -0.2549  0.7252  0.0416
15364TIP3   OH267506   4.574   1.520   4.093  0.0520  0.0615  0.3413
15364TIP3    H167507   4.547   1.611   4.104  0.8703  0.1624  1.7334
15364TIP3    H267508   4.547   1.498   4.004 -0.9389  1.3869  0.2791
15365TIP3   OH267509   4.391   5.014  16.331  0.3530 -0.1022 -0.0818
15365TIP3    H167510   4.321   4.964  16.291 -0.9063  0.8666  0.8390
15365TIP3    H267511   4.452   5.033  16.259 -1.3369  0.7359 -1.3523
15366TIP3   OH267512   4.283   0.829   4.015  0.4646  0.3286 -0.1285
15366TIP3    H167513   4.320   0.743   3.997  0.4721  0.4474 -0.6997
15366TIP3    H267514   4.198   0.811   4.054  1.8355  0.0133  2.9975
15367TIP3   OH267515   2.078   2.243  11.454 -0.2406 -0.2993 -0.2995
15367TIP3    H167516   2.071   2.198  11.370  1.6876 -0.8587 -0.2088
15367TIP3    H267517   2.090   2.335  11.430 -0.4080 -0.3533 -0.6059
15368TIP3   OH267518   6.594   4.702  14.258 -0.0441  0.1004 -0.1466
15368TIP3    H167519   6.517   4.747  14.223 -0.2438 -0.4437 -0.4182
15368TIP3    H267520   6.582   4.706  14.353 -0.7063 -0.4777 -0.1971
15369TIP3   OH267521   0.517   1.900  15.621 -0.2785  0.1560 -0.2845
15369TIP3    H167522   0.494   1.865  15.707  0.7022 -0.3908 -0.2253
15369TIP3    H267523   0.497   1.993  15.627 -1.3914 -0.0892  0.1116
15370TIP3   OH267524   6.455   1.355   6.243 -0.1343  0.4918 -0.3528
15370TIP3    H167525   6.477   1.273   6.198  1.8833  0.6529  0.2101
15370TIP3    H267526   6.385   1.331   6.304 -1.8360 -0.0613 -2.4072
15371TIP3   OH267527   5.248   4.237   2.019 -0.3224 -0.9955  0.2619
15371TIP3    H167528   5.162   4.197   2.015 -1.4131  1.2754 -0.6643
15371TIP3    H267529   5.297   4.197   1.948 -1.4889 -0.4561 -0.8708
15372TIP3   OH267530   0.380   2.320  14.323 -0.1904 -0.2203 -0.5654
15372TIP3    H167531   0.366   2.325  14.418 -1.4753  3.2806 -0.7999
15372TIP3    H267532   0.472   2.343  14.311  0.1833 -1.4291 -0.1843
15373TIP3   OH267533   0.100   4.260   3.144  1.1352  0.4259 -0.5113
15373TIP3    H167534   0.051   4.224   3.071  2.0623 -1.1510 -0.3999
15373TIP3    H267535   0.047   4.334   3.175  0.0256  0.2177 -1.8387
15374TIP3   OH267536   0.094   6.162   5.762  0.1923 -0.1171 -0.1490
15374TIP3    H167537   0.165   6.226   5.766  0.2905 -0.1568 -1.0673
15374TIP3    H267538   0.033   6.197   5.697 -0.1446 -0.5616 -0.0818
15375TIP3   OH267539   3.773   2.086  14.489  0.1583  0.2068 -0.5292
15375TIP3    H167540   3.683   2.117  14.505  0.6008  0.7029  1.1788
15375TIP3    H267541   3.800   2.046  14.571  0.7135 -2.0801 -1.7422
15376TIP3   OH267542   1.783   4.388   3.788  0.0286  0.3818 -0.6779
15376TIP3    H167543   1.727   4.316   3.818 -0.5054  1.0105 -0.1601
15376TIP3    H267544   1.836   4.348   3.718 -0.4754 -0.4357 -0.6132
15377TIP3   OH267545   4.420   4.871  11.110 -0.1828  0.1395  0.4675
15377TIP3    H167546   4.383   4.920  11.184  0.8607 -1.8212  2.4024
15377TIP3    H267547   4.345   4.829  11.069 -0.8960  1.9786 -0.2408
15378TIP3   OH267548   0.404   6.165   4.399  0.5192  0.0655  0.1302
15378TIP3    H167549   0.327   6.121   4.433  1.5859 -1.7059  0.3956
15378TIP3    H267550   0.391   6.167   4.304 -0.1324  0.3661  0.2241
15379TIP3   OH267551   5.240   2.688  13.270  0.7983 -0.1206 -0.5864
15379TIP3    H167552   5.313   2.745  13.294  0.4011 -0.0719  0.5952
15379TIP3    H267553   5.203   2.729  13.192  0.2846  1.5115  0.4490
15380TIP3   OH267554   4.462   5.428   6.655  0.5347  0.3956 -0.2068
15380TIP3    H167555   4.381   5.476   6.674 -0.6585 -1.5472 -0.0729
15380TIP3    H267556   4.531   5.484   6.689 -0.6667  2.5249 -1.0797
15381TIP3   OH267557   5.867   1.303   3.142  0.1413 -0.6921  0.4690
15381TIP3    H167558   5.861   1.335   3.232 -0.9832  0.1792  0.1158
15381TIP3    H267559   5.917   1.371   3.096  0.3407 -0.9258  0.3378
15382TIP3   OH267560   3.851   0.543   3.319 -0.1152 -0.3441  0.2969
15382TIP3    H167561   3.936   0.533   3.276  0.1063 -1.0374  0.8725
15382TIP3    H267562   3.825   0.632   3.299  0.7909 -0.0909  0.1827
15383TIP3   OH267563   5.684   0.152  13.852  0.2040 -0.1332  0.1109
15383TIP3    H167564   5.605   0.168  13.800  0.7203  1.4057 -0.2767
15383TIP3    H267565   5.716   0.240  13.873  0.0468 -0.6701  3.0341
15384TIP3   OH267566   3.415   4.896   1.945  0.2534 -0.7135  0.5699
15384TIP3    H167567   3.425   4.972   2.002  3.4624  0.0747 -0.8531
15384TIP3    H267568   3.444   4.822   1.998  3.2198  0.0146  0.1180
15385TIP3   OH267569   0.407   3.102   1.652  0.2326  0.5752  0.0691
15385TIP3    H167570   0.367   3.107   1.565 -0.6551 -2.8269  0.1366
15385TIP3    H267571   0.388   3.186   1.693 -1.2489  1.4373 -2.2282
15386TIP3   OH267572   5.428   1.528  11.028  0.1371  0.4987  0.2284
15386TIP3    H167573   5.401   1.617  11.049 -0.9254  0.1191  0.5330
15386TIP3    H267574   5.401   1.475  11.103 -1.0975 -0.3992 -0.7910
15387TIP3   OH267575   2.642   0.566   0.182 -0.4663  0.2598  0.3913
15387TIP3    H167576   2.689   0.631   0.131  0.4960 -0.7288 -0.0386
15387TIP3    H267577   2.605   0.506   0.116 -1.8032  0.6562  0.7515
15388TIP3   OH267578   6.087   1.863   3.020 -0.3291 -0.6592  0.6437
15388TIP3    H167579   6.166   1.811   3.006 -1.4806 -2.0316 -1.1796
15388TIP3    H267580   6.095   1.895   3.109  2.8776  0.3221  0.1262
15389TIP3   OH267581   1.111   2.743  16.106  0.3914 -0.3606 -0.1287
15389TIP3    H167582   1.118   2.838  16.096  1.6082 -0.4415 -0.1841
15389TIP3    H267583   1.188   2.718  16.157  0.1585 -1.3371 -0.2347
15390TIP3   OH267584   6.520   0.359  15.473  0.0928  0.0751 -0.6767
15390TIP3    H167585   6.530   0.289  15.537 -1.9443 -0.1487 -0.5500
15390TIP3    H267586   6.465   0.425  15.516  1.2825  1.4106 -1.0904
15391TIP3   OH267587   0.278   2.919   4.951 -0.0514  0.1229  0.6056
15391TIP3    H167588   0.347   2.982   4.968  0.0715 -0.2182  1.4041
15391TIP3    H267589   0.264   2.924   4.856 -0.4578  1.7567  0.7268
15392TIP3   OH267590   4.815   0.972   2.098  0.4678  0.1101  0.5334
15392TIP3    H167591   4.832   1.060   2.064 -0.2638 -0.2154 -0.7757
15392TIP3    H267592   4.856   0.970   2.184 -0.6933  2.1989  1.1993
15393TIP3   OH267593   0.694   2.571   4.237 -0.2450 -0.1823 -0.8627
15393TIP3    H167594   0.740   2.530   4.311 -0.6213  1.5022  0.3649
15393TIP3    H267595   0.742   2.540   4.160  0.7743 -1.2261  0.1349
15394TIP3   OH267596   0.077   2.634   5.256 -0.4723  0.2846 -0.4344
15394TIP3    H167597   0.164   2.629   5.218  0.1850 -1.3643  1.1145
15394TIP3    H267598   0.076   2.716   5.305  1.6412 -1.3043  2.5826
15395TIP3   OH267599   2.581   3.743  11.083 -0.7602  0.2578  0.2547
15395TIP3    H167600   2.525   3.818  11.064 -1.2799 -0.0206  0.6407
15395TIP3    H267601   2.669   3.771  11.058 -1.2669  0.2005 -1.7031
15396TIP3   OH267602   1.336   3.147   3.986 -0.2276 -0.5631  0.1229
15396TIP3    H167603   1.410   3.149   3.925 -0.1837 -0.5949  0.1747
15396TIP3    H267604   1.286   3.069   3.962  0.4129 -1.2192  0.8576
15397TIP3   OH267605   2.012   3.525  15.621 -0.1787 -0.2833  0.4885
15397TIP3    H167606   2.021   3.545  15.714 -1.0531 -1.2503  0.8045
15397TIP3    H267607   1.995   3.431  15.619  0.5689 -0.4084 -0.7050
15398TIP3   OH267608   2.231   0.019   0.509 -0.2852  0.3963 -0.0145
15398TIP3    H167609   2.270  -0.061   0.472 -1.0351  0.3894 -0.8114
15398TIP3    H267610   2.163   0.043   0.447 -1.9880  0.0643  1.6253
15399TIP3   OH267611   0.218   5.343  17.222 -0.6543  0.1464  0.1369
15399TIP3    H167612   0.298   5.359  17.172 -0.3186 -1.6951  0.0075
15399TIP3    H267613   0.248   5.339  17.313  0.0956 -3.6019 -0.0815
15400TIP3   OH267614   1.858   6.449   3.581 -0.7617  0.0067 -0.1057
15400TIP3    H167615   1.887   6.373   3.632 -0.5349 -0.0222 -0.2727
15400TIP3    H267616   1.915   6.520   3.611 -2.1093  0.5408  1.3052
15401TIP3   OH267617   6.076   5.205  13.095  0.8245  0.4080  0.3746
15401TIP3    H167618   6.046   5.276  13.152 -2.1630 -0.3368 -0.0956
15401TIP3    H267619   6.122   5.248  13.024  4.5503  1.3905  3.0886
15402TIP3   OH267620   5.846   4.427   2.201 -0.1170 -0.6122 -0.8813
15402TIP3    H167621   5.784   4.497   2.181  0.5728  0.0832 -0.6242
15402TIP3    H267622   5.796   4.365   2.255 -0.8642 -0.5618 -1.4941
15403TIP3   OH267623   5.046   2.509   4.122  0.1660 -0.1324  0.3640
15403TIP3    H167624   5.011   2.422   4.105  0.8196 -0.0244 -1.8085
15403TIP3    H267625   4.994   2.542   4.195 -0.2091 -2.2468  1.1166
15404TIP3   OH267626   5.697   1.814  15.428  0.6234  0.1256 -0.0348
15404TIP3    H167627   5.786   1.793  15.399  0.4341  0.2962 -0.7699
15404TIP3    H267628   5.663   1.874  15.361  0.9267  2.3303  1.6749
15405TIP3   OH267629   0.815   4.337  16.690 -0.0544 -0.0768  0.0415
15405TIP3    H167630   0.757   4.299  16.624  0.5244  1.4264 -1.4249
15405TIP3    H267631   0.867   4.264  16.721 -0.8400 -0.9578 -0.6443
15406TIP3   OH267632   6.612   5.918  12.499 -0.0230 -0.1222 -0.4021
15406TIP3    H167633   6.544   5.985  12.511  1.0986  1.0692 -0.4217
15406TIP3    H267634   6.646   5.934  12.411  0.6636 -0.3219 -0.1832
15407TIP3   OH267635   4.958   6.028  12.531  0.3383  0.0236  0.2503
15407TIP3    H167636   4.998   6.115  12.531  0.4892 -0.0245  1.4237
15407TIP3    H267637   5.030   5.969  12.508 -0.1331  0.3158 -2.2317
15408TIP3   OH267638   5.105   3.340   6.068 -0.4942 -0.0244  0.1474
15408TIP3    H167639   5.090   3.413   6.129 -0.6402 -0.1908  0.3127
15408TIP3    H267640   5.019   3.324   6.029 -0.2566  0.5403 -0.6225
15409TIP3   OH267641   3.668   0.033   6.645 -0.1688 -0.0310 -0.4206
15409TIP3    H167642   3.610   0.053   6.718 -0.2140 -0.3740 -0.3646
15409TIP3    H267643   3.641  -0.053   6.614 -0.0920  0.0721 -0.7860
15410TIP3   OH267644   1.927   5.707   5.710 -0.2426  0.4601  0.1149
15410TIP3    H167645   1.930   5.786   5.655 -1.8568  0.7148  0.3418
15410TIP3    H267646   1.948   5.635   5.650  1.3910  1.0271 -0.0681
15411TIP3   OH267647   4.349   2.925   1.361 -0.5764 -0.0213  0.5538
15411TIP3    H167648   4.324   2.952   1.273 -0.5838 -1.6245  0.0271
15411TIP3    H267649   4.327   3.000   1.416  0.0142  1.2575 -0.8805
15412TIP3   OH267650   2.484   5.075  12.050 -0.4491 -0.2021  0.0025
15412TIP3    H167651   2.548   5.087  12.120 -0.4922 -0.7260  0.1344
15412TIP3    H267652   2.487   5.158  12.001  0.7549 -0.4384 -0.3570
15413TIP3   OH267653   4.571   2.057  12.833 -0.0484 -0.6603 -0.0913
15413TIP3    H167654   4.636   2.096  12.892 -0.0164 -1.3655  0.3419
15413TIP3    H267655   4.502   2.123  12.827 -0.4531 -0.9210  1.4171
15414TIP3   OH267656   2.431   4.482   1.163  0.1496 -0.2140 -0.3276
15414TIP3    H167657   2.508   4.484   1.107 -0.6057 -1.3130 -1.4460
15414TIP3    H267658   2.414   4.389   1.178 -1.0962 -0.0073 -0.3110
15415TIP3   OH267659   2.238   5.619   0.987 -0.7240  0.1369 -0.0902
15415TIP3    H167660   2.236   5.555   1.058  0.6703 -1.1704 -1.1543
15415TIP3    H267661   2.331   5.625   0.964 -0.8071  2.6200  0.0057
15416TIP3   OH267662   3.719   6.616   3.750  0.1514 -0.1313 -0.0544
15416TIP3    H167663   3.791   6.577   3.702  1.5864  2.4935 -0.2588
15416TIP3    H267664   3.712   6.564   3.830  1.6215 -1.0516 -0.4946
15417TIP3   OH267665   0.670   4.849  13.505  0.2115  0.1324 -0.1584
15417TIP3    H167666   0.599   4.785  13.499  1.1710 -0.9124 -0.5866
15417TIP3    H267667   0.721   4.822  13.582 -0.9623  2.0740  1.4151
15418TIP3   OH267668   2.685   3.114  15.403  0.3833 -1.0136 -0.0487
15418TIP3    H167669   2.751   3.075  15.461  0.2098  0.4116  1.1698
15418TIP3    H267670   2.621   3.152  15.462 -0.4837 -0.6153 -1.2115
15419TIP3   OH267671   1.814   1.528   1.488 -0.1740 -0.2014  0.1126
15419TIP3    H167672   1.750   1.458   1.476 -0.4005 -0.2312  1.3752
15419TIP3    H267673   1.779   1.582   1.560  0.1771  1.0004 -0.5802
15420TIP3   OH267674   2.986   3.575  14.024  0.0541 -0.0619  0.1920
15420TIP3    H167675   2.957   3.494  14.066 -0.7091  0.3849  0.5379
15420TIP3    H267676   3.028   3.626  14.094 -0.8023  0.4815  0.3214
15421TIP3   OH267677   4.745   0.504  14.312  0.1863 -0.5083 -0.2043
15421TIP3    H167678   4.732   0.437  14.245 -1.1680  1.0273 -1.5985
15421TIP3    H267679   4.691   0.476  14.386  0.4609 -1.4527 -0.3609
15422TIP3   OH267680   5.858   3.399   0.579 -0.1801  0.6030  0.3771
15422TIP3    H167681   5.816   3.475   0.538  0.4540  0.8359  0.1383
15422TIP3    H267682   5.915   3.438   0.646 -1.6308  0.2049  1.9161
15423TIP3   OH267683   1.809   0.171   1.059 -0.1474  0.4605 -0.0395
15423TIP3    H167684   1.843   0.116   0.989 -1.2307  1.2277 -1.2044
15423TIP3    H267685   1.746   0.115   1.105 -1.3772  0.7218 -1.3275
15424TIP3   OH267686   3.232   5.489  16.134  0.1863  0.1479  0.3452
15424TIP3    H167687   3.304   5.440  16.095 -0.3690 -0.8592  0.5636
15424TIP3    H267688   3.153   5.451  16.096 -0.2880  0.2492  1.1958
15425TIP3   OH267689   1.539   4.647   1.356 -0.2712 -0.1194 -0.4340
15425TIP3    H167690   1.522   4.735   1.323  0.1947 -0.2441 -1.0317
15425TIP3    H267691   1.460   4.597   1.336 -0.0689 -0.1455 -1.2252
15426TIP3   OH267692   5.534   1.777  16.340  0.1950 -0.3155 -0.3229
15426TIP3    H167693   5.559   1.762  16.431 -0.4252  1.1889  0.1238
15426TIP3    H267694   5.491   1.863  16.340 -0.4899 -0.6133 -1.9086
15427TIP3   OH267695   2.567   6.653   3.554  0.1640  0.3555 -0.1742
15427TIP3    H167696   2.493   6.597   3.530 -1.5458  1.3999  2.2452
15427TIP3    H267697   2.608   6.608   3.628  2.0124 -0.1989 -1.4769
15428TIP3   OH267698   3.340   0.265  14.972  0.0328 -0.1825  0.2006
15428TIP3    H167699   3.277   0.336  14.984 -0.2126 -0.6328  1.7519
15428TIP3    H267700   3.421   0.298  15.010  0.4536 -0.0246 -0.8038
15429TIP3   OH267701   4.665   6.283   4.011  0.4038 -0.5100 -0.2412
15429TIP3    H167702   4.753   6.322   4.011  0.5010 -0.6892 -1.3066
15429TIP3    H267703   4.681   6.191   3.990  0.0981 -0.9422  1.3154
15430TIP3   OH267704   2.768   0.907  13.849  0.0217 -0.2567  0.4908
15430TIP3    H167705   2.783   0.834  13.910 -1.1067 -2.1031 -1.2784
15430TIP3    H267706   2.672   0.910  13.840  0.1458  0.3659 -0.6912
15431TIP3   OH267707   2.946   2.528  13.184 -0.8297 -0.3482  0.1453
15431TIP3    H167708   2.889   2.593  13.141 -0.3774 -0.1068 -0.1030
15431TIP3    H267709   2.915   2.444  13.150  0.6712 -0.0803 -2.1403
15432TIP3   OH267710   3.837   0.618   1.314  0.3967  0.3015  0.1990
15432TIP3    H167711   3.825   0.616   1.219 -0.6069  0.4690  0.3163
15432TIP3    H267712   3.871   0.706   1.331 -1.7146  1.1587  0.2300
15433TIP3   OH267713   3.690   3.092   1.751  0.2005  0.7928 -0.5450
15433TIP3    H167714   3.771   3.052   1.781 -0.8343 -0.1588  1.1018
15433TIP3    H267715   3.661   3.147   1.824 -1.4516 -0.1601 -0.4249
15434TIP3   OH267716   6.269   3.303  11.531  0.2252  0.5103 -0.5450
15434TIP3    H167717   6.363   3.322  11.526  1.1550 -2.8581  0.8261
15434TIP3    H267718   6.231   3.346  11.454  2.8250  2.2197 -0.9809
15435TIP3   OH267719   1.252   2.772  12.732 -0.3966  0.0333  0.3465
15435TIP3    H167720   1.167   2.814  12.743 -1.5508 -2.1068  0.0980
15435TIP3    H267721   1.232   2.682  12.705  1.9766 -0.1248 -1.1808
15436TIP3   OH267722   1.392   1.057   0.349  0.0410 -0.4095  0.1400
15436TIP3    H167723   1.453   0.987   0.373  0.8938  0.0177 -0.7056
15436TIP3    H267724   1.443   1.137   0.361 -0.0126 -0.0971 -1.5147
15437TIP3   OH267725   1.968   5.845   2.486  0.4348 -0.2072 -0.2345
15437TIP3    H167726   2.054   5.841   2.529 -0.7203  0.3354  2.2887
15437TIP3    H267727   1.987   5.883   2.400  2.5435  1.5353  0.8829
15438TIP3   OH267728   1.868   4.376  12.095 -0.4018  0.2569 -1.0206
15438TIP3    H167729   1.919   4.343  12.169  0.1462  2.1582 -0.4833
15438TIP3    H267730   1.827   4.298  12.057  1.3308 -1.0935 -0.2723
15439TIP3   OH267731   4.886   2.588   6.007 -0.1830  0.0385 -0.7242
15439TIP3    H167732   4.955   2.545   6.057  0.8147  1.7018 -0.6031
15439TIP3    H267733   4.887   2.543   5.922  0.8250 -0.1908 -0.6089
15440TIP3   OH267734   2.978   0.293  11.212  0.2496  0.3361  0.5037
15440TIP3    H167735   3.008   0.374  11.255  0.8715  0.7841 -0.7275
15440TIP3    H267736   2.925   0.323  11.138  1.7209 -0.2975 -0.8750
15441TIP3   OH267737   5.047   4.416  15.225  0.1335  0.1375 -0.4838
15441TIP3    H167738   5.126   4.409  15.170 -0.4640 -0.8526 -1.2627
15441TIP3    H267739   4.982   4.458  15.169 -0.2917 -0.2908 -0.3235
15442TIP3   OH267740   0.893   0.295   1.352 -0.6598 -0.1178  0.0450
15442TIP3    H167741   0.885   0.304   1.257  0.5118 -0.6302 -0.1197
15442TIP3    H267742   0.839   0.219   1.373 -1.2490  0.2378 -0.1441
15443TIP3   OH267743   3.649   6.598   2.031 -0.2476 -0.4752  0.5140
15443TIP3    H167744   3.621   6.522   2.081  0.4388  0.7909  3.0460
15443TIP3    H267745   3.690   6.655   2.097  3.6902 -0.0073 -2.0120
15444TIP3   OH267746   1.255   6.688  16.520 -0.0587 -0.3700  0.4609
15444TIP3    H167747   1.164   6.709  16.498 -0.4325 -1.3233  1.0110
15444TIP3    H267748   1.300   6.681  16.436 -0.4614  0.2332  0.1910
15445TIP3   OH267749   0.286   0.195   4.038 -0.1887 -0.0067 -0.1959
15445TIP3    H167750   0.365   0.203   3.986 -0.2233 -1.0485 -0.4404
15445TIP3    H267751   0.295   0.259   4.108  1.9133 -1.5744  1.0898
15446TIP3   OH267752   1.037   1.017  12.079 -0.0515 -0.0567 -0.2321
15446TIP3    H167753   1.021   0.955  12.151 -1.0706  0.2834 -0.1379
15446TIP3    H267754   1.002   0.973  12.001 -1.2671  0.5771 -0.0777
15447TIP3   OH267755   0.200   2.875  16.596  0.1401 -0.3983  0.0270
15447TIP3    H167756   0.182   2.902  16.686 -0.5367 -1.4958  0.2392
15447TIP3    H267757   0.119   2.833  16.567  0.4681 -0.3621 -0.9839
15448TIP3   OH267758   4.157   2.023  14.369  1.2544 -0.3740 -0.6339
15448TIP3    H167759   4.156   2.109  14.411 -0.0827 -0.4084 -0.5550
15448TIP3    H267760   4.181   2.040  14.279  2.3018 -0.0801 -0.3133
15449TIP3   OH267761   3.265   3.675   5.684  0.5443  0.3610  0.2109
15449TIP3    H167762   3.249   3.661   5.778  1.0492  0.0396  0.2528
15449TIP3    H267763   3.217   3.756   5.664  1.7798  1.3764  1.1315
15450TIP3   OH267764   0.490   5.829   4.302  0.0909  0.9411  0.0913
15450TIP3    H167765   0.573   5.782   4.294 -0.8882 -0.5961 -2.0622
15450TIP3    H267766   0.462   5.813   4.392  1.1428 -0.2467  0.2406
15451TIP3   OH267767   5.558   1.899  17.240 -0.3154  0.1535 -0.7188
15451TIP3    H167768   5.534   1.820  17.287 -0.2065  0.6517  0.1988
15451TIP3    H267769   5.549   1.876  17.147 -2.6351 -0.1932 -0.4553
15452TIP3   OH267770   5.544   1.102  11.276 -0.4190 -1.0310 -0.2215
15452TIP3    H167771   5.575   1.184  11.238  1.0544 -1.9466 -1.0954
15452TIP3    H267772   5.551   1.116  11.371 -1.1185  0.1737 -0.3328
15453TIP3   OH267773   5.736   0.933  12.947 -0.2628  0.5107 -0.0836
15453TIP3    H167774   5.781   0.862  12.902 -0.2728 -0.9001  2.0203
15453TIP3    H267775   5.794   1.009  12.937  0.8139 -0.3488 -0.4895
15454TIP3   OH267776   6.022   6.597  16.366 -0.0621  0.2666  0.4588
15454TIP3    H167777   5.972   6.572  16.288 -3.4682 -0.0411  2.5453
15454TIP3    H267778   6.035   6.516  16.414  3.1567  0.2396 -0.2574
15455TIP3   OH267779   5.655   0.577   0.116 -0.0818 -0.5698 -0.6803
15455TIP3    H167780   5.626   0.534   0.196  0.7601  1.0664  0.5647
15455TIP3    H267781   5.736   0.531   0.091 -1.2993 -2.2830 -1.6994
15456TIP3   OH267782   3.461   1.911   5.827  0.0473  0.1181  0.0521
15456TIP3    H167783   3.452   1.997   5.787 -2.1759 -0.3192 -0.5167
15456TIP3    H267784   3.376   1.869   5.813  0.7887 -1.8467  1.0766
15457TIP3   OH267785   1.844   5.675  16.820 -0.4944 -0.0188  0.3633
15457TIP3    H167786   1.755   5.709  16.832  0.1029  1.1089  1.8715
15457TIP3    H267787   1.833   5.601  16.760 -2.3565  0.4771  0.0246
15458TIP3   OH267788   3.045   2.781  15.035  0.1697 -0.1707 -0.5442
15458TIP3    H167789   3.044   2.858  14.979 -0.0069 -0.4614 -0.9454
15458TIP3    H267790   2.974   2.726  15.002 -1.1336  0.4528  1.1106
15459TIP3   OH267791   3.918   5.515  16.967  0.0389  0.1273  0.0530
15459TIP3    H167792   3.998   5.516  16.914 -0.6722  0.3213 -1.0358
15459TIP3    H267793   3.869   5.439  16.936 -0.7821  0.7393 -0.1847
15460TIP3   OH267794   5.455   2.564   4.431 -0.6332 -0.0475 -0.1842
15460TIP3    H167795   5.360   2.563   4.417 -0.8603  0.0223  1.2440
15460TIP3    H267796   5.467   2.613   4.512  0.7312  0.9864 -0.9532
15461TIP3   OH267797   3.171   0.532   1.480  0.4579  0.6304  0.1420
15461TIP3    H167798   3.234   0.556   1.548  3.1289  0.1830 -2.0467
15461TIP3    H267799   3.139   0.616   1.447  0.1452  0.8692  1.0112
15462TIP3   OH267800   0.132   3.940  12.073 -0.3797 -0.0459  0.7486
15462TIP3    H167801   0.066   3.986  12.021  0.4176 -0.9782 -1.1896
15462TIP3    H267802   0.199   4.006  12.090  0.3328 -0.1749 -1.2488
15463TIP3   OH267803   0.172   3.103  12.902 -0.4668 -0.4280 -0.7416
15463TIP3    H167804   0.260   3.139  12.891 -0.3226 -0.8651 -1.0414
15463TIP3    H267805   0.187   3.012  12.929 -0.8291 -0.4278 -0.5338
15464TIP3   OH267806   6.744   0.971  12.009 -0.2139 -0.0803 -0.1291
15464TIP3    H167807   6.729   0.884  12.045 -0.1147 -0.1598 -0.2777
15464TIP3    H267808   6.833   0.968  11.974 -0.4691 -0.1531 -0.7949
15465TIP3   OH267809   4.044   5.236   6.059 -0.1789 -0.3223 -0.0808
15465TIP3    H167810   4.095   5.160   6.031  0.9605  0.5739 -0.5347
15465TIP3    H267811   4.099   5.279   6.125 -0.4918  0.4634 -0.3110
15466TIP3   OH267812   2.852   0.903  17.123 -0.0619 -0.0336 -0.2455
15466TIP3    H167813   2.907   0.977  17.149  0.7430 -0.9933  0.9018
15466TIP3    H267814   2.771   0.943  17.091 -0.3237  1.3422  1.9107
15467TIP3   OH267815   4.547   2.373   2.841  0.7343  0.5826  0.6138
15467TIP3    H167816   4.603   2.296   2.858  1.9832  1.1234 -0.8125
15467TIP3    H267817   4.525   2.366   2.748  0.5767  1.7549  0.5479
15468TIP3   OH267818   6.331   5.932  14.175 -0.2884 -0.1255  0.0905
15468TIP3    H167819   6.236   5.925  14.186 -0.3745 -1.0076 -0.9596
15468TIP3    H267820   6.365   5.847  14.203 -0.0788 -0.6809 -1.6726
15469TIP3   OH267821   5.876   1.543  11.789  0.1717 -0.3383 -0.0014
15469TIP3    H167822   5.802   1.508  11.739 -0.3175 -0.8382  1.0519
15469TIP3    H267823   5.953   1.505  11.747 -0.0654  1.0556 -1.8105
15470TIP3   OH267824   0.742   5.053  13.101 -0.1273 -0.1563 -0.5802
15470TIP3    H167825   0.785   5.049  13.016 -0.7826  1.8271 -1.0768
15470TIP3    H267826   0.649   5.037  13.082  0.0301 -2.1395  0.1491
15471TIP3   OH267827   6.128   6.137   6.946 -0.1629  0.1275 -0.7751
15471TIP3    H167828   6.118   6.045   6.971 -0.3820  0.3464 -0.0306
15471TIP3    H267829   6.174   6.176   7.020  1.6318  0.2296 -1.8922
15472TIP3   OH267830   6.406   2.495  12.231  0.3357 -0.2122 -0.1229
15472TIP3    H167831   6.413   2.590  12.243  1.9779 -0.3757  0.5644
15472TIP3    H267832   6.326   2.483  12.180 -0.8380  1.4084  1.2161
15473TIP3   OH267833   2.746   3.568   0.845 -0.3566  0.1019  0.6307
15473TIP3    H167834   2.752   3.527   0.759  0.9209  1.0240  0.2503
15473TIP3    H267835   2.670   3.626   0.839 -1.0482 -0.7995  0.5636
15474TIP3   OH267836   0.882   3.721   2.761  0.5730 -0.3879 -0.3816
15474TIP3    H167837   0.959   3.759   2.717  1.8964 -1.5144  0.8512
15474TIP3    H267838   0.908   3.631   2.780 -1.7970 -1.4201 -1.5932
15475TIP3   OH267839   0.885   0.817  15.633  0.4311 -0.4747 -0.1459
15475TIP3    H167840   0.896   0.907  15.602  2.5546 -0.0757  1.4658
15475TIP3    H267841   0.827   0.825  15.709  1.4000 -0.2842  0.5921
15476TIP3   OH267842   1.605   1.231   4.730 -0.3683 -0.0402  0.4940
15476TIP3    H167843   1.567   1.281   4.802 -0.1453 -1.3342  1.5533
15476TIP3    H267844   1.534   1.174   4.700 -0.9713  1.6006 -1.4610
15477TIP3   OH267845   3.029   5.895   3.944 -0.5113  0.7854  0.2778
15477TIP3    H167846   2.999   5.928   4.029 -1.7921 -1.3955  0.7725
15477TIP3    H267847   2.950   5.894   3.890  0.2028  1.7116 -0.8308
15478TIP3   OH267848   5.975   1.195   6.440 -0.2013  0.0948  0.1182
15478TIP3    H167849   5.975   1.286   6.467  1.8087  0.1259  0.1822
15478TIP3    H267850   6.037   1.152   6.499  1.5583 -0.5517 -2.0462
15479TIP3   OH267851   4.929   6.159  14.126  0.5511 -0.3999 -0.0530
15479TIP3    H167852   5.011   6.159  14.077  0.1062 -0.9039 -0.8141
15479TIP3    H267853   4.862   6.187  14.063  0.1149 -0.0806  0.5324
15480TIP3   OH267854   2.476   2.393   4.421  0.3661  0.4065  0.5668
15480TIP3    H167855   2.537   2.392   4.495 -0.0686  0.6377  0.9331
15480TIP3    H267856   2.531   2.415   4.346  0.7483  0.5614  0.8833
15481TIP3   OH267857   2.455   6.628   4.001  0.2938  0.5180 -0.4254
15481TIP3    H167858   2.520   6.561   4.023  0.8658  0.6633 -1.6305
15481TIP3    H267859   2.460   6.690   4.074  0.0516 -0.5122  0.4975
15482TIP3   OH267860   6.119   6.444   3.494  0.6834  0.0360  0.0450
15482TIP3    H167861   6.161   6.518   3.449  0.3872 -0.4281 -1.0251
15482TIP3    H267862   6.060   6.407   3.429  0.1682 -0.6095  0.8635
15483TIP3   OH267863   2.243   1.103   2.251 -0.1761  0.0149 -0.1120
15483TIP3    H167864   2.187   1.049   2.307  0.5058 -0.9212 -0.3008
15483TIP3    H267865   2.190   1.180   2.231 -1.5637 -1.0453 -0.6473
15484TIP3   OH267866   6.544   3.326   3.362  0.2819 -0.1303 -0.0301
15484TIP3    H167867   6.483   3.323   3.436 -1.3180 -1.0143 -1.3051
15484TIP3    H267868   6.491   3.359   3.289  0.9463 -2.0739 -1.4814
15485TIP3   OH267869   3.136   2.879   0.570 -0.1383  0.0210 -0.3682
15485TIP3    H167870   3.069   2.922   0.624 -2.3726 -0.6833 -2.3926
15485TIP3    H267871   3.154   2.941   0.499 -0.6250 -0.8273 -1.2611
15486TIP3   OH267872   3.873   3.782  15.723 -0.5844 -0.0580  0.0322
15486TIP3    H167873   3.811   3.850  15.750 -0.7693  0.2745 -1.1481
15486TIP3    H267874   3.946   3.830  15.685 -0.1465 -0.4854  0.3331
15487TIP3   OH267875   4.505   5.291   4.547  0.3675  0.1589  0.4571
15487TIP3    H167876   4.442   5.220   4.558  0.7442  0.0770  2.3353
15487TIP3    H267877   4.509   5.305   4.452 -0.5738 -1.5218  0.1384
15488TIP3   OH267878   5.542   4.963  14.943  0.1726  0.7514  0.0055
15488TIP3    H167879   5.595   4.886  14.925  0.2846  0.7616  0.2802
15488TIP3    H267880   5.462   4.950  14.892 -0.5830 -0.4102  1.3919
15489TIP3   OH267881   2.359   1.422  17.402 -0.2443 -0.3746 -0.4769
15489TIP3    H167882   2.330   1.513  17.389 -2.9384 -1.1261 -0.2627
15489TIP3    H267883   2.447   1.420  17.364  0.2253  2.4799  0.1694
15490TIP3   OH267884   4.643   0.415  16.314  0.4843  0.4852  0.7194
15490TIP3    H167885   4.668   0.487  16.257  0.8229  0.2146  0.5221
15490TIP3    H267886   4.722   0.395  16.364  0.8753 -0.7622 -0.3227
15491TIP3   OH267887   6.412   5.996   0.844 -0.3966 -0.7885 -0.2835
15491TIP3    H167888   6.408   5.903   0.822  0.5860 -1.3373  1.6232
15491TIP3    H267889   6.490   6.004   0.899  0.6619  1.5227 -1.9438
15492TIP3   OH267890   3.028   5.625  16.701 -0.1943  0.4962  0.2705
15492TIP3    H167891   2.952   5.619  16.643 -2.1596  0.2707  2.6985
15492TIP3    H267892   3.028   5.715  16.732  1.2351  0.7984 -0.4885
15493TIP3   OH267893   2.425   2.554   2.893  0.1243 -0.0695  0.5817
15493TIP3    H167894   2.432   2.473   2.944  0.2887 -0.5699 -0.2184
15493TIP3    H267895   2.333   2.578   2.900  0.2611  0.2075  1.6151
15494TIP3   OH267896   4.870   2.205   2.132 -0.0475  0.2568  0.4275
15494TIP3    H167897   4.818   2.144   2.185  0.7715  0.5304  1.5858
15494TIP3    H267898   4.930   2.148   2.083  1.1082  0.1006  1.9350
15495TIP3   OH267899   1.327   4.824  13.589  0.2716  0.1050 -0.0280
15495TIP3    H167900   1.304   4.838  13.497  0.2067 -1.5595 -0.3002
15495TIP3    H267901   1.419   4.849  13.595  0.4663 -0.4297 -0.7145
15496TIP3   OH267902   2.278   3.791   6.090  0.2144  0.1654 -0.1808
15496TIP3    H167903   2.250   3.721   6.031 -0.6797  0.4758 -0.1315
15496TIP3    H267904   2.327   3.746   6.159 -2.1320 -0.7055  1.0073
15497TIP3   OH267905   1.433   0.925  15.884  0.1424 -0.1320  0.2883
15497TIP3    H167906   1.393   0.869  15.817  0.9375 -1.7382  1.0905
15497TIP3    H267907   1.478   0.863  15.943  0.8685  1.3517  1.3523
15498TIP3   OH267908   4.254   0.077  16.521  0.3910  0.1145 -0.0909
15498TIP3    H167909   4.177   0.092  16.466  0.0233  0.5938  0.5376
15498TIP3    H267910   4.322   0.133  16.484  0.2241  0.2378 -0.2114
15499TIP3   OH267911   5.145   4.375  13.676 -0.0483  0.1302 -0.5532
15499TIP3    H167912   5.221   4.434  13.681 -0.1362  0.1500  1.9105
15499TIP3    H267913   5.092   4.411  13.605  0.5917  2.1907 -0.0755
15500TIP3   OH267914   0.479   3.893  14.918 -1.3308 -0.0163 -0.4690
15500TIP3    H167915   0.469   3.988  14.927  0.2176  0.1233  0.1635
15500TIP3    H267916   0.507   3.881  14.827  4.8498  0.9359  0.8314
15501TIP3   OH267917   2.351   2.731   5.687  0.3103  0.8873  0.1005
15501TIP3    H167918   2.371   2.748   5.596  1.1129  0.9795  0.2900
15501TIP3    H267919   2.314   2.642   5.688  0.7883  0.6865 -0.2433
15502TIP3   OH267920   2.100   2.912  11.337 -0.1462 -0.0025  0.3967
15502TIP3    H167921   2.042   2.837  11.322 -0.3847  0.2804 -0.1435
15502TIP3    H267922   2.066   2.979  11.278  1.6346 -0.3040 -1.0284
15503TIP3   OH267923   1.116   0.025   1.269  0.0392  0.1216 -0.1747
15503TIP3    H167924   1.180   0.092   1.294  0.1693 -0.2393  0.4867
15503TIP3    H267925   1.063   0.012   1.348 -0.0615 -0.4612 -0.3330
15504TIP3   OH267926   5.619   4.468  12.236  0.2615 -0.2909 -0.2098
15504TIP3    H167927   5.562   4.396  12.263 -1.0393  0.4146 -0.9923
15504TIP3    H267928   5.615   4.530  12.308 -0.6316  0.1247 -0.6034
15505TIP3   OH267929   2.315   3.857  12.976  0.1206  0.1309  0.2484
15505TIP3    H167930   2.238   3.830  12.926 -0.5975 -0.2914  1.5311
15505TIP3    H267931   2.372   3.780  12.974  0.0006  0.0411  0.2593
15506TIP3   OH267932   0.850   1.565  16.464  0.0970  0.0496 -0.3603
15506TIP3    H167933   0.759   1.564  16.492  0.7396 -0.2795  1.9283
15506TIP3    H267934   0.862   1.482  16.417 -0.9148  0.4034 -1.2947
15507TIP3   OH267935   5.345   6.379   6.478  0.4255  0.1448  0.6682
15507TIP3    H167936   5.289   6.431   6.536  2.3499  1.6350  1.3140
15507TIP3    H267937   5.409   6.339   6.537  0.0832 -1.5836 -0.0400
15508TIP3   OH267938   4.082   4.266  15.230  0.1868  0.1173  0.1500
15508TIP3    H167939   4.030   4.316  15.167 -1.2498  0.7753  1.7732
15508TIP3    H267940   4.143   4.330  15.267  0.5263 -0.0947 -0.0372
15509TIP3   OH267941   5.367   0.941  16.778 -0.4674  0.0739  0.3428
15509TIP3    H167942   5.448   0.955  16.727 -0.1708 -0.2745  0.7159
15509TIP3    H267943   5.297   0.970  16.719 -0.2200 -1.3299 -0.6928
15510TIP3   OH267944   3.530   3.985   5.282 -0.7788 -0.2460 -0.1015
15510TIP3    H167945   3.435   3.988   5.276 -0.7742  0.8504  0.0931
15510TIP3    H267946   3.552   4.057   5.342  0.1724 -0.4587 -0.1802
15511TIP3   OH267947   2.673   3.436   0.581 -0.3581  0.2045 -0.5463
15511TIP3    H167948   2.728   3.393   0.515  0.4103 -1.0627  0.8707
15511TIP3    H267949   2.609   3.370   0.606 -0.2917  0.4891  0.3929
15512TIP3   OH267950   0.297   4.809   4.868 -0.5136 -0.3699  0.1009
15512TIP3    H167951   0.373   4.753   4.885 -0.4936 -0.7444 -1.0930
15512TIP3    H267952   0.252   4.765   4.796 -0.7319  0.9292 -0.5803
15513TIP3   OH267953   4.528   6.553   4.660 -0.2146 -0.2273  0.1949
15513TIP3    H167954   4.577   6.565   4.579 -0.9314 -0.4493 -0.2858
15513TIP3    H267955   4.558   6.469   4.694  1.7033  0.8466  1.3438
15514TIP3   OH267956   2.169   2.699  11.872  0.2820 -0.2777  0.0127
15514TIP3    H167957   2.233   2.693  11.801 -0.1824 -1.8175 -0.3160
15514TIP3    H267958   2.185   2.784  11.912  0.7780  0.4927 -1.7328
15515TIP3   OH267959   2.387   2.593  14.158  0.3242 -0.3203  0.0289
15515TIP3    H167960   2.344   2.578  14.242  3.1443 -2.0848  1.2944
15515TIP3    H267961   2.428   2.679  14.166 -0.4710  0.0857 -0.0956
15516TIP3   OH267962   5.436   5.102  12.354 -0.2158  0.1726 -0.4441
15516TIP3    H167963   5.452   5.047  12.278 -1.1796 -1.0302  0.1929
15516TIP3    H267964   5.408   5.041  12.422 -0.1559  1.3223  0.6421
15517TIP3   OH267965   1.633   2.094   2.327  0.3141  0.2717  0.6351
15517TIP3    H167966   1.656   2.022   2.385  0.5675  0.5595  0.8993
15517TIP3    H267967   1.548   2.071   2.292  0.8479 -0.6483 -0.0801
15518TIP3   OH267968   3.682   4.609  12.025 -0.1059  0.3310  0.1322
15518TIP3    H167969   3.736   4.631  12.101 -1.6696 -1.5501  1.9346
15518TIP3    H267970   3.739   4.558  11.969  0.4829 -0.1801  1.1627
15519TIP3   OH267971   4.619   3.515  13.248  0.7907  0.0965  0.2001
15519TIP3    H167972   4.610   3.426  13.213  0.9434 -0.0082  0.4254
15519TIP3    H267973   4.712   3.534  13.244  0.5386  1.2100 -2.1955
15520TIP3   OH267974   1.198   2.282  15.967  0.3220  0.4062 -0.9336
15520TIP3    H167975   1.203   2.366  15.923 -0.8461  0.6190 -0.6900
15520TIP3    H267976   1.114   2.283  16.013  1.0048 -0.2489  0.3941
15521TIP3   OH267977   4.736   2.066  17.305  0.1511 -0.8735  0.1863
15521TIP3    H167978   4.829   2.068  17.328  0.3241  0.0243 -0.5275
15521TIP3    H267979   4.713   2.159  17.293 -0.7699 -1.1076  0.1252
15522TIP3   OH267980   5.840   1.837   3.190 -1.1316  0.0173 -0.5946
15522TIP3    H167981   5.903   1.907   3.208  1.4506 -1.8720 -1.5628
15522TIP3    H267982   5.787   1.831   3.269  1.3125  0.4244  1.1891
15523TIP3   OH267983   2.055   3.483  12.753  0.7622 -0.9826 -0.1611
15523TIP3    H167984   2.021   3.409  12.803  1.4269 -0.7800  0.6234
15523TIP3    H267985   2.149   3.464  12.742  1.0045 -0.1323  0.3178
15524TIP3   OH267986   2.845   5.807  11.630 -0.0439  0.0542  0.2854
15524TIP3    H167987   2.829   5.897  11.659  0.0719  0.5276 -1.0599
15524TIP3    H267988   2.758   5.765  11.633  0.0037  0.0096  1.5102
15525TIP3   OH267989   5.908   3.938   3.969  0.2472 -0.8530  0.4276
15525TIP3    H167990   5.824   3.915   4.009  0.3442  1.1815  1.9623
15525TIP3    H267991   5.885   3.985   3.890  0.0434 -3.4794 -1.2016
15526TIP3   OH267992   2.899   0.411  12.962 -0.5498 -0.3700  0.1658
15526TIP3    H167993   2.834   0.474  12.931 -1.3763  0.4436  3.2178
15526TIP3    H267994   2.979   0.463  12.973 -0.0111 -0.8418 -1.2447
15527TIP3   OH267995   3.981   6.050   4.851  0.0854 -0.0537 -0.1092
15527TIP3    H167996   4.007   6.120   4.910 -1.6389 -0.6872  1.4971
15527TIP3    H267997   4.028   6.068   4.769  1.3262  1.7268  0.9446
15528TIP3   OH267998   0.792   2.311   5.062  0.3947  0.0088  0.3320
15528TIP3    H167999   0.862   2.252   5.038  0.7809  0.7116 -0.3009
15528TIP3    H268000   0.721   2.292   5.000  1.2526  1.5627 -1.1924
15529TIP3   OH268001   3.147   0.351   3.715 -0.7701  0.4182 -0.3950
15529TIP3    H168002   3.233   0.314   3.692 -1.0645 -0.3142 -0.3436
15529TIP3    H268003   3.084   0.287   3.681 -1.2657  0.1895  0.8942
15530TIP3   OH268004   3.477   0.946   5.950 -0.0698 -0.0539  0.0703
15530TIP3    H168005   3.395   0.904   5.979 -1.2272  1.3961 -0.9856
15530TIP3    H268006   3.529   0.873   5.916 -0.4475 -1.1673  1.7351
15531TIP3   OH268007   2.859   0.009   0.615 -0.2618  0.2103  0.4003
15531TIP3    H168008   2.809  -0.019   0.538 -1.6599  0.5213  1.1596
15531TIP3    H268009   2.822   0.095   0.636  0.6073  0.4440  0.9975
15532TIP3   OH268010   0.868   1.795  14.677  0.4793  0.1279 -0.0895
15532TIP3    H168011   0.789   1.740  14.675  1.9302 -2.0731  0.3824
15532TIP3    H268012   0.911   1.776  14.593  0.3414  1.6436 -0.5290
15533TIP3   OH268013   5.687   4.995  14.359  0.0188 -0.4455 -0.2841
15533TIP3    H168014   5.656   4.932  14.294 -0.8375 -1.4231  1.0366
15533TIP3    H268015   5.608   5.026  14.404  0.6938 -0.8763  1.2567
15534TIP3   OH268016   4.288   4.292  11.382  0.5218  0.0816  0.0375
15534TIP3    H168017   4.229   4.338  11.322 -0.4913 -1.2134 -0.0014
15534TIP3    H268018   4.242   4.291  11.466  0.0807 -1.6397 -0.1889
15535TIP3   OH268019   3.565   2.234  11.477 -0.4593 -0.4443 -0.6245
15535TIP3    H168020   3.514   2.180  11.416 -0.4980  0.4435 -1.4000
15535TIP3    H268021   3.656   2.220  11.451 -0.4258 -0.6520 -0.3952
15536TIP3   OH268022   0.363   3.101   3.613  0.6140 -0.2076 -0.0955
15536TIP3    H168023   0.432   3.055   3.661  1.4503 -1.5048 -2.3935
15536TIP3    H268024   0.309   3.031   3.575 -0.7668  0.7788 -0.0276
15537TIP3   OH268025   1.622   5.997   3.162 -0.2395  0.1670  0.1728
15537TIP3    H168026   1.530   6.020   3.148 -0.6531 -0.3367  1.8533
15537TIP3    H268027   1.660   6.074   3.204  0.3055  0.6220 -1.0854
15538TIP3   OH268028   4.620   6.320   3.415 -0.0138 -0.4884 -0.3178
15538TIP3    H168029   4.663   6.405   3.412 -0.3027 -0.2134  1.8090
15538TIP3    H268030   4.663   6.274   3.487 -1.7149 -1.0570  0.3926
15539TIP3   OH268031   2.095   0.169  10.414 -0.6394 -0.1427  0.1464
15539TIP3    H168032   2.008   0.194  10.445 -1.3358 -1.2783 -0.7782
15539TIP3    H268033   2.103   0.211  10.328 -0.2926 -0.0595  0.2200
15540TIP3   OH268034   1.489   4.715  14.189 -0.0887 -0.0562 -0.5341
15540TIP3    H168035   1.475   4.658  14.113 -0.4630  0.0990 -0.5871
15540TIP3    H268036   1.459   4.663  14.264 -0.8679  0.2259 -0.6340
15541TIP3   OH268037   2.724   4.597  11.044  0.1610 -0.0063  0.2651
15541TIP3    H168038   2.730   4.655  11.120 -0.6450  0.9086 -0.3516
15541TIP3    H268039   2.718   4.509  11.082 -0.6091  0.4650  1.2787
15542TIP3   OH268040   1.084   2.961  11.651 -0.1945  0.2581 -0.2485
15542TIP3    H168041   1.028   2.886  11.633 -0.1702  0.2404 -0.2506
15542TIP3    H268042   1.149   2.928  11.713 -0.9311  0.5979  0.7426
15543TIP3   OH268043   4.137   2.938  13.152  0.8559 -0.2047  0.1250
15543TIP3    H168044   4.051   2.909  13.183  1.1179  0.2136  1.2914
15543TIP3    H268045   4.144   3.028  13.184  1.2288  0.1917 -1.0237
15544TIP3   OH268046   0.382   3.757   3.952 -0.0021  0.0578 -0.1320
15544TIP3    H168047   0.330   3.837   3.963 -1.6284 -1.1432  1.4397
15544TIP3    H268048   0.337   3.708   3.883 -0.5656 -0.6614  0.7307
15545TIP3   OH268049   3.784   5.887  16.678  0.2535 -0.1101  0.3263
15545TIP3    H168050   3.858   5.941  16.650 -1.5555  2.6070  0.3974
15545TIP3    H268051   3.765   5.917  16.767 -0.0097 -1.9023  0.9262
15546TIP3   OH268052   0.147   1.078  15.668  0.5908 -0.1393  0.1160
15546TIP3    H168053   0.092   1.135  15.613  0.0728 -1.1992 -0.4889
15546TIP3    H268054   0.237   1.101  15.644  0.3975  0.5684  0.0358
15547TIP3   OH268055   0.718   2.624   4.556 -0.5221  0.0969  0.0315
15547TIP3    H168056   0.672   2.548   4.521  0.1024 -0.0425 -0.5053
15547TIP3    H268057   0.750   2.596   4.642  1.2082 -0.8598 -0.8794
15548TIP3   OH268058   5.824   4.599   3.039 -0.4005 -0.3998  0.0409
15548TIP3    H168059   5.750   4.539   3.052 -1.4094  0.9078  0.5955
15548TIP3    H268060   5.898   4.556   3.083 -1.3795 -0.7261  1.4382
15549TIP3   OH268061   2.328   1.046  15.191  0.0238 -0.7179  0.4923
15549TIP3    H168062   2.238   1.055  15.159  0.2108 -0.8653 -0.0924
15549TIP3    H268063   2.341   1.122  15.248  0.4311  0.9329 -1.6404
15550TIP3   OH268064   4.585   2.260   3.320 -0.2402 -0.2404 -0.4809
15550TIP3    H168065   4.624   2.271   3.407  0.2961 -0.8980 -0.6285
15550TIP3    H268066   4.533   2.180   3.327  0.5092 -0.7833 -1.0041
15551TIP3   OH268067   3.110   2.291   3.257 -0.2423  0.1662 -0.1971
15551TIP3    H168068   3.076   2.369   3.300 -1.5372 -0.2101 -0.4758
15551TIP3    H268069   3.092   2.305   3.164 -1.6904 -0.9793 -0.1386
15552TIP3   OH268070   0.105   2.786  11.484 -0.4048  0.1318 -0.6906
15552TIP3    H168071   0.189   2.749  11.514  0.9439  2.8968 -0.7131
15552TIP3    H268072   0.103   2.768  11.390 -0.0509 -0.3028 -0.6231
15553TIP3   OH268073   0.470   0.225   5.644  0.4656  0.7304  0.0435
15553TIP3    H168074   0.440   0.316   5.640  0.1464  0.6334  0.2137
15553TIP3    H268075   0.394   0.173   5.618  0.6341  0.5074 -0.0086
15554TIP3   OH268076   4.131   3.702   4.999  0.1655  0.4453 -0.0682
15554TIP3    H168077   4.041   3.700   5.031 -0.1129  1.0319 -0.7970
15554TIP3    H268078   4.127   3.752   4.917  0.8905 -0.8340 -0.9222
15555TIP3   OH268079   4.892   6.006  11.113  0.1485  0.4171  0.1611
15555TIP3    H168080   4.856   6.068  11.177 -0.1614 -0.7151  1.1178
15555TIP3    H268081   4.821   5.944  11.096  1.8002 -2.5232  2.9146
15556TIP3   OH268082   5.237   4.448  11.695 -0.6797  0.2134 -0.1866
15556TIP3    H168083   5.142   4.436  11.688 -0.9430  0.4164  2.1407
15556TIP3    H268084   5.255   4.530  11.648 -1.7533  0.4857 -0.1465
15557TIP3   OH268085   0.663   5.849  12.444  1.0571  0.2378 -0.3871
15557TIP3    H168086   0.609   5.773  12.421 -0.8073  1.1751  0.6178
15557TIP3    H268087   0.748   5.831  12.404  1.1093 -2.9678  0.8565
15558TIP3   OH268088   6.467   0.118   4.500  0.1762  0.7347 -0.2208
15558TIP3    H168089   6.378   0.083   4.503  1.1690 -2.0358 -0.4463
15558TIP3    H268090   6.502   0.088   4.416  1.6594  0.8806  0.3187
15559TIP3   OH268091   3.938   0.809  15.853  0.0806 -0.4369  0.3715
15559TIP3    H168092   3.984   0.796  15.935  0.8156  0.1472  0.0626
15559TIP3    H268093   4.007   0.822  15.788 -0.4895  0.9866 -0.0034
15560TIP3   OH268094   2.604   6.435   3.730 -0.0302 -0.5638 -0.3504
15560TIP3    H168095   2.522   6.392   3.705 -2.0035  2.0190  1.2004
15560TIP3    H268096   2.630   6.390   3.811 -2.5759  1.4373  1.7776
15561TIP3   OH268097   0.672   3.576   5.275  0.0905 -0.4378 -0.7486
15561TIP3    H168098   0.651   3.632   5.349 -1.5289 -1.3453 -0.4724
15561TIP3    H268099   0.768   3.574   5.273  0.1827  1.0300  0.1906
15562TIP3   OH268100   6.507   2.696  15.041  0.0910 -0.2441 -0.0497
15562TIP3    H168101   6.466   2.716  14.957 -2.0389  0.3685  1.0563
15562TIP3    H268102   6.468   2.758  15.102  2.4611  0.1240  1.2179
15563TIP3   OH268103   4.394   2.770   4.379  0.6462 -0.5378  0.1847
15563TIP3    H168104   4.324   2.821   4.419  0.1652 -1.9441  1.1898
15563TIP3    H268105   4.364   2.679   4.384  2.1081 -1.0760 -0.2552
15564TIP3   OH268106   1.135   2.284  12.066 -0.5956 -0.3849  0.1265
15564TIP3    H168107   1.150   2.278  11.972  0.0722  0.7330  0.1502
15564TIP3    H268108   1.223   2.292  12.104 -0.9331  0.6546  0.7165
15565TIP3   OH268109   6.688   0.339  14.026  0.1945  0.6248 -0.5165
15565TIP3    H168110   6.776   0.309  14.051  0.0176 -1.0604 -1.7148
15565TIP3    H268111   6.649   0.264  13.982 -2.1274  1.1080  0.5694
15566TIP3   OH268112   5.740   4.934   2.690  0.5065 -0.1442 -0.1219
15566TIP3    H168113   5.787   5.004   2.645 -0.5531  1.1505  0.7171
15566TIP3    H268114   5.793   4.915   2.767 -0.1334  1.0642  0.6355
15567TIP3   OH268115   5.598   5.214   0.745 -0.2571 -0.1951 -0.5522
15567TIP3    H168116   5.582   5.295   0.695  0.9177  0.2735 -0.1879
15567TIP3    H268117   5.536   5.151   0.707  0.4259  0.2057 -2.4468
15568TIP3   OH268118   3.477   0.317  11.891  0.3566 -0.0877 -0.4603
15568TIP3    H168119   3.460   0.227  11.919 -0.0222  0.0337 -0.2828
15568TIP3    H268120   3.390   0.351  11.868  0.5049  0.2118 -0.5800
15569TIP3   OH268121   5.415   5.821   2.606 -0.0975  0.6084 -0.6072
15569TIP3    H168122   5.391   5.739   2.648  0.3646  0.1275 -1.2649
15569TIP3    H268123   5.508   5.812   2.585  0.4576  2.0529  0.9995
15570TIP3   OH268124   1.753   0.761  12.438  0.0117 -0.1319  0.0883
15570TIP3    H168125   1.743   0.694  12.370  0.2959 -1.2254  1.0870
15570TIP3    H268126   1.664   0.795  12.452  0.2102  1.5462 -2.1853
15571TIP3   OH268127   4.665   5.743  15.386  0.5073  0.1822  0.1053
15571TIP3    H168128   4.588   5.795  15.408 -0.5334 -1.7219  1.3148
15571TIP3    H268129   4.709   5.792  15.316  0.0345  2.9932  1.6232
15572TIP3   OH268130   4.785   3.455   6.022 -0.1603  0.1165  0.1997
15572TIP3    H168131   4.716   3.491   5.966  0.3248  0.7861  0.0283
15572TIP3    H268132   4.829   3.390   5.967 -1.1005 -0.8487  0.5431
15573TIP3   OH268133   5.950   4.804  17.333 -0.2675 -0.1443 -0.1256
15573TIP3    H168134   6.036   4.782  17.297  0.0528 -0.3744  0.7528
15573TIP3    H268135   5.960   4.894  17.364 -0.7345  0.2802 -1.1730
15574TIP3   OH268136   0.693   2.850  15.268  0.2661  0.2110 -0.1149
15574TIP3    H168137   0.652   2.915  15.210 -0.7033  1.3951  1.7544
15574TIP3    H268138   0.787   2.859  15.253  0.2119  2.6098  0.5514
15575TIP3   OH268139   3.680   3.974  11.666  0.0263  0.4917  0.3105
15575TIP3    H168140   3.771   3.950  11.649  0.6464  2.8851 -0.1477
15575TIP3    H268141   3.632   3.891  11.662  2.1696 -0.8318  0.6127
15576TIP3   OH268142   4.973   6.178  13.534  0.0999  0.1229 -0.0065
15576TIP3    H168143   5.054   6.144  13.496 -0.4419  0.5906 -1.6839
15576TIP3    H268144   4.910   6.177  13.461 -1.7998 -1.4039  1.5250
15577TIP3   OH268145   2.949   6.713  16.692 -0.7607  0.4057  0.4068
15577TIP3    H168146   3.021   6.664  16.653 -1.2299 -0.1094  0.1664
15577TIP3    H268147   2.958   6.802  16.658 -0.2169  0.3615  0.4207
15578TIP3   OH268148   5.829   4.398  12.042  0.6068  0.0924 -0.1679
15578TIP3    H168149   5.741   4.430  12.060 -0.2531 -1.7076 -1.0175
15578TIP3    H268150   5.877   4.413  12.124 -0.4576  1.0882  0.3007
15579TIP3   OH268151   5.796   6.640   1.570 -0.2746 -0.1491 -0.5397
15579TIP3    H168152   5.709   6.606   1.549 -1.1001  1.0802  0.7263
15579TIP3    H268153   5.803   6.630   1.665  0.8598  0.0649 -0.5814
15580TIP3   OH268154   2.106   3.001   6.037  0.3881  0.6371 -0.4377
15580TIP3    H168155   2.015   3.022   6.054  0.8643  2.8723 -0.3869
15580TIP3    H268156   2.109   2.979   5.943 -0.1268  0.9535 -0.5293
15581TIP3   OH268157   5.177   1.870  13.860 -0.4928  0.1044 -0.3997
15581TIP3    H168158   5.218   1.956  13.854 -1.6585  0.6483 -1.0035
15581TIP3    H268159   5.162   1.856  13.953  0.6680  0.0593 -0.2011
15582TIP3   OH268160   2.570   4.757   4.052 -0.5504 -1.1331  0.3723
15582TIP3    H168161   2.584   4.676   4.100  1.1925 -0.3940  1.2002
15582TIP3    H268162   2.619   4.746   3.971  0.0413 -0.7459  0.6761
15583TIP3   OH268163   1.289   3.323  12.659 -0.1552 -0.2420 -0.1229
15583TIP3    H168164   1.335   3.391  12.610 -0.3265 -0.5236 -0.6713
15583TIP3    H268165   1.207   3.309  12.612 -0.7595  0.1565  0.7721
15584TIP3   OH268166   4.308   1.943   0.179 -0.5130  0.5932  0.3573
15584TIP3    H168167   4.345   1.976   0.261  0.6196 -0.0586  0.1293
15584TIP3    H268168   4.370   1.971   0.112 -0.5921 -0.2522 -0.0798
15585TIP3   OH268169   1.469   3.577  13.894 -0.6654  0.1806  0.8836
15585TIP3    H168170   1.417   3.569  13.974 -0.5691  1.3126  1.0899
15585TIP3    H268171   1.493   3.670  13.891  0.5072 -0.1201  0.2759
15586TIP3   OH268172   1.268   0.803  13.430 -0.8325 -0.0804  0.0511
15586TIP3    H168173   1.188   0.815  13.379 -1.6663 -0.7783  1.1577
15586TIP3    H268174   1.302   0.717  13.402 -0.7956 -0.0537  0.0133
15587TIP3   OH268175   5.006   3.290   0.766 -0.5411 -0.4253 -0.4897
15587TIP3    H168176   5.005   3.196   0.783  1.5862 -0.6342 -1.3219
15587TIP3    H268177   5.078   3.324   0.820  0.0106  0.3988 -1.7071
15588TIP3   OH268178   6.721   1.222  15.524  0.5667  0.1887  0.5689
15588TIP3    H168179   6.741   1.316  15.519  3.4748 -0.2903  1.2878
15588TIP3    H268180   6.743   1.188  15.438  0.2399  0.0145  0.5513
15589TIP3   OH268181   3.026   1.570   3.669  0.2792  0.1274  0.0243
15589TIP3    H168182   3.038   1.534   3.581 -1.4252  0.5323 -0.4110
15589TIP3    H268183   3.080   1.649   3.670  2.2097 -1.1269  0.2006
15590TIP3   OH268184   4.677   4.008  14.026  0.3346 -0.1568  0.1086
15590TIP3    H168185   4.612   4.059  14.076  0.5409  1.4392 -1.1477
15590TIP3    H268186   4.626   3.938  13.986 -1.0060  1.8215 -1.9232
15591TIP3   OH268187   5.848   6.725   6.109  0.4529 -0.3108 -0.4480
15591TIP3    H168188   5.756   6.712   6.086  0.2442  0.2635  0.0361
15591TIP3    H268189   5.870   6.649   6.163 -0.0539  0.1022  0.3503
15592TIP3   OH268190   4.151   4.471   2.735  0.0968  0.3271 -0.3367
15592TIP3    H168191   4.172   4.442   2.646 -1.3726  0.9164 -0.9006
15592TIP3    H268192   4.095   4.402   2.770 -2.8625  1.9971 -1.4462
15593TIP3   OH268193   3.763   0.915   5.299 -0.0424 -0.4188  0.0059
15593TIP3    H168194   3.701   0.868   5.243 -1.3264  1.9834 -0.7508
15593TIP3    H268195   3.783   0.995   5.251 -2.2821  2.4782  3.3784
15594TIP3   OH268196   5.501   2.644   3.297  0.4923  0.1826  0.2520
15594TIP3    H168197   5.573   2.703   3.275  0.9268 -0.2352  0.5496
15594TIP3    H268198   5.516   2.566   3.243  0.9169 -0.3763  1.1646
15595TIP3   OH268199   0.258   1.509  16.922 -0.6982 -0.6797 -0.4265
15595TIP3    H168200   0.248   1.426  16.968 -0.4271 -0.8227 -0.6277
15595TIP3    H268201   0.336   1.499  16.868 -2.8543 -1.8244 -3.6611
15596TIP3   OH268202   4.499   0.541   4.309  0.2071  0.3162 -0.3950
15596TIP3    H168203   4.481   0.448   4.316  0.6515  0.3597  2.1885
15596TIP3    H268204   4.412   0.582   4.311  0.0848  0.0567  1.7122
15597TIP3   OH268205   5.209   2.541  12.108 -0.0096 -0.3481  0.1107
15597TIP3    H168206   5.233   2.632  12.092  1.8081 -0.9960 -1.2629
15597TIP3    H268207   5.284   2.491  12.075 -1.1110 -2.3487  0.5096
15598TIP3   OH268208   1.578   1.361   1.524  0.2186 -0.3592  0.1739
15598TIP3    H168209   1.505   1.302   1.546 -0.4900  0.4176 -0.0578
15598TIP3    H268210   1.567   1.436   1.581  0.7837 -0.1815  0.0582
15599TIP3   OH268211   4.655   0.040   5.367  0.1963  0.2698  0.1699
15599TIP3    H168212   4.591   0.095   5.322 -0.0340  0.1103  0.2958
15599TIP3    H268213   4.620   0.031   5.456 -1.2460 -2.3174 -0.5477
15600TIP3   OH268214   5.996   0.968  13.878  0.2949 -0.3955  0.3216
15600TIP3    H168215   5.983   1.015  13.795  1.8413  0.6196  0.6205
15600TIP3    H268216   6.052   0.894  13.856  0.1840 -0.4870  0.3476
15601TIP3   OH268217   2.546   4.049   6.038 -0.1958 -0.5183  0.0994
15601TIP3    H168218   2.568   3.966   5.995 -3.0067 -0.4984 -1.6162
15601TIP3    H268219   2.453   4.042   6.057 -0.4126  2.0902  0.3566
15602TIP3   OH268220   4.113   0.313   0.310  0.3691 -0.1635 -0.1333
15602TIP3    H168221   4.106   0.266   0.393 -0.4281  0.3533  0.1041
15602TIP3    H268222   4.088   0.403   0.332  0.5341  0.0651 -0.8593
15603TIP3   OH268223   2.838   4.333  13.868 -0.3907 -0.4827 -0.1365
15603TIP3    H168224   2.836   4.405  13.805 -0.6819  0.3974  0.8382
15603TIP3    H268225   2.755   4.288  13.855 -2.6595  2.4099  2.5621
15604TIP3   OH268226   3.193   1.027  17.339  0.6134  0.0240  0.3457
15604TIP3    H168227   3.135   1.046  17.265  1.0735  0.2549  0.0461
15604TIP3    H268228   3.159   1.082  17.410  0.4776  0.1748  0.1658
15605TIP3   OH268229   3.624   4.245   5.888  0.5057 -0.0531  0.4761
15605TIP3    H168230   3.623   4.182   5.816  1.5182  1.2068 -0.6988
15605TIP3    H268231   3.571   4.204   5.956 -0.7310 -1.1872 -1.0780
15606TIP3   OH268232   4.711   1.383  15.943 -0.0741 -0.0620  0.1542
15606TIP3    H168233   4.617   1.365  15.935  0.0580 -0.6626 -0.1129
15606TIP3    H268234   4.744   1.311  15.997  0.0541  0.7259  1.1419
15607TIP3   OH268235   3.602   0.567   4.265  0.3915  0.1381  0.2386
15607TIP3    H168236   3.673   0.600   4.209 -0.5060  2.3421  0.2901
15607TIP3    H268237   3.529   0.626   4.248 -0.5448 -0.3477  2.2772
15608TIP3   OH268238   2.473   0.484  14.875 -0.5668 -0.0232 -0.3314
15608TIP3    H168239   2.508   0.562  14.831  2.9328 -0.7686  0.7677
15608TIP3    H268240   2.525   0.411  14.839 -1.9740 -1.5138  0.5029
15609TIP3   OH268241   5.727   6.361   0.850 -0.1615  0.2883  0.2961
15609TIP3    H168242   5.766   6.361   0.938  0.5665 -2.2395  0.0386
15609TIP3    H268243   5.633   6.361   0.866 -0.0526  1.0369  1.0302
15610TIP3   OH268244   0.281   2.843   2.549 -0.3925  0.3092  0.2675
15610TIP3    H168245   0.284   2.807   2.460 -0.9313  1.0461 -0.0556
15610TIP3    H268246   0.216   2.789   2.594  1.0756 -1.1726  0.7457
15611TIP3   OH268247   6.013   4.520   4.982 -0.1833  0.0758 -0.3914
15611TIP3    H168248   6.024   4.602   4.934 -2.9050  0.3289 -0.7845
15611TIP3    H268249   5.943   4.475   4.935 -0.9746 -0.9777  1.6744
15612TIP3   OH268250   0.924   0.188  12.759  0.3754  0.5589 -0.1898
15612TIP3    H168251   0.910   0.216  12.668 -0.6888  0.5255 -0.0510
15612TIP3    H268252   0.851   0.228  12.807 -0.7543 -1.7631  0.1635
15613TIP3   OH268253   2.363   1.054  10.950  0.0627  0.1820 -0.2549
15613TIP3    H168254   2.390   1.119  11.015  0.7265 -0.1250 -0.2196
15613TIP3    H268255   2.307   1.103  10.890 -2.2294  0.0538  1.6261
15614TIP3   OH268256   6.065   6.602  17.473 -0.9300  0.1797  0.4050
15614TIP3    H168257   6.122   6.526  17.487 -0.7222  0.2014 -0.2764
15614TIP3    H268258   6.062   6.645  17.558  0.2086  0.2622  0.4277
15615TIP3   OH268259   4.470   1.678  12.621 -0.1342 -0.3171 -0.7715
15615TIP3    H168260   4.464   1.673  12.526 -1.0697  1.5386 -0.8621
15615TIP3    H268261   4.547   1.626  12.643 -1.3000 -2.8566 -2.2770
15616TIP3   OH268262   0.824   5.012   4.116 -0.8626 -0.2030  0.5968
15616TIP3    H168263   0.877   5.049   4.187 -3.1269  0.2830  2.1406
15616TIP3    H268264   0.769   4.946   4.159  0.0435 -2.3807 -1.3570
15617TIP3   OH268265   3.536   4.603   0.944 -0.0560 -0.3314  0.3183
15617TIP3    H168266   3.598   4.616   1.016 -0.0251 -2.9879  0.8969
15617TIP3    H268267   3.579   4.539   0.887 -0.7588  0.5437 -1.2546
15618TIP3   OH268268   6.392   3.954   6.125 -0.0230 -0.4676 -0.5306
15618TIP3    H168269   6.310   3.921   6.089 -0.9160  0.5557  0.4950
15618TIP3    H268270   6.365   4.017   6.192  1.5429 -2.8820  2.5886
15619TIP3   OH268271   0.414   3.319  16.024 -0.0463 -0.2863 -0.2220
15619TIP3    H168272   0.417   3.327  16.120  0.2574  0.9536 -0.3104
15619TIP3    H268273   0.497   3.358  15.995 -0.7461  0.6396 -1.0519
15620TIP3   OH268274   3.032   2.115   1.385  0.2042  0.1298  0.8710
15620TIP3    H168275   2.967   2.114   1.455  0.4155  0.0216  1.0637
15620TIP3    H268276   3.001   2.047   1.324 -0.2449  0.5563  0.6119
15621TIP3   OH268277   5.574   6.138   5.650  0.7424  0.0662 -0.4080
15621TIP3    H168278   5.632   6.214   5.649  3.5642 -1.9204 -1.4039
15621TIP3    H268279   5.514   6.153   5.576  0.1960  1.9820  0.3744
15622TIP3   OH268280   6.402   2.857   5.993  0.4968  0.6258  0.2335
15622TIP3    H168281   6.327   2.888   5.941 -0.0536  1.0238  1.2329
15622TIP3    H268282   6.476   2.859   5.932 -0.1898  0.7819 -0.6139
15623TIP3   OH268283   3.483   4.656   3.182  0.1531 -0.3977 -0.1532
15623TIP3    H168284   3.568   4.691   3.208  1.0501 -2.5328 -0.0317
15623TIP3    H268285   3.420   4.699   3.240  1.2636  0.4466  0.4533
15624TIP3   OH268286   5.237   2.710   3.189  0.0658 -0.2040  0.1508
15624TIP3    H168287   5.236   2.622   3.151 -0.4705 -1.5272  2.9927
15624TIP3    H268288   5.315   2.712   3.244  0.5793  1.4838 -0.5584
15625TIP3   OH268289   1.551   1.602  16.464  0.3570 -0.0497  0.3580
15625TIP3    H168290   1.482   1.600  16.530 -0.9415 -1.3447 -0.9797
15625TIP3    H268291   1.574   1.510  16.450  0.4333  0.1696 -1.1400
15626TIP3   OH268292   2.483   4.844  13.401  0.1963 -0.4820 -0.1191
15626TIP3    H168293   2.499   4.752  13.381 -0.7653 -0.5997 -0.4012
15626TIP3    H268294   2.552   4.868  13.462  0.8838 -1.1933 -0.5977
15627TIP3   OH268295   2.937   5.031   3.413 -0.3017  0.4007  0.6174
15627TIP3    H168296   2.843   5.015   3.409 -0.2412  0.2592 -0.3258
15627TIP3    H268297   2.976   4.945   3.429 -0.1665 -0.0154 -1.6828
15628TIP3   OH268298   4.851   1.782   1.653  0.1078 -0.0860 -0.2784
15628TIP3    H168299   4.928   1.761   1.707  0.0707 -0.1741 -0.2601
15628TIP3    H268300   4.804   1.700   1.646  0.0112 -0.0295 -0.2848
15629TIP3   OH268301   6.681   1.302  11.770  0.0606 -0.0595  0.0876
15629TIP3    H168302   6.600   1.298  11.719 -0.1589  0.0780  0.4252
15629TIP3    H268303   6.747   1.264  11.712 -0.1911  0.0711 -0.2902
15630TIP3   OH268304   1.618   5.377   6.445 -0.4182  0.2165 -0.4525
15630TIP3    H168305   1.696   5.421   6.410 -0.0100 -0.2205 -0.1157
15630TIP3    H268306   1.558   5.448   6.468 -0.3587  0.5320 -1.2663
15631TIP3   OH268307   2.124   5.325  14.522  0.4076  0.3176  0.3065
15631TIP3    H168308   2.156   5.380  14.593  1.0405  0.2331  0.0973
15631TIP3    H268309   2.203   5.290  14.481  0.0736  0.7657 -0.7600
15632TIP3   OH268310   2.575   1.217  12.663 -0.1654  0.7002  0.0934
15632TIP3    H168311   2.555   1.311  12.659  0.4996  0.8057 -1.3996
15632TIP3    H268312   2.511   1.176  12.604 -0.7202  0.1585  1.0602
15633TIP3   OH268313   4.923   5.838  14.993  0.2506  0.1288 -0.1908
15633TIP3    H168314   4.995   5.825  15.054 -0.2609  1.1141  0.6537
15633TIP3    H268315   4.864   5.898  15.038 -1.3929 -1.0924 -0.6234
15634TIP3   OH268316   5.356   0.430   3.291 -0.3305  0.4356 -0.5484
15634TIP3    H168317   5.313   0.420   3.376 -1.8623 -1.3375 -1.4467
15634TIP3    H268318   5.342   0.521   3.268  0.9718  1.2142  1.4935
15635TIP3   OH268319   4.502   4.903  12.908 -0.1968  0.3386  0.1429
15635TIP3    H168320   4.477   4.849  12.984 -1.8852  0.4064 -0.3208
15635TIP3    H268321   4.502   4.992  12.942  0.9956  0.2111  0.5175
15636TIP3   OH268322   2.216   4.704   1.654 -0.5036  0.6416  0.0102
15636TIP3    H168323   2.266   4.645   1.711 -0.1132  0.6055 -0.3623
15636TIP3    H268324   2.261   4.699   1.570 -0.3865  1.5767  0.0104
15637TIP3   OH268325   0.421   2.555   4.077  0.2301 -0.1724 -0.3550
15637TIP3    H168326   0.515   2.544   4.091 -0.2315 -1.8887  1.9549
15637TIP3    H268327   0.404   2.513   3.993  1.3990 -0.7164 -0.3361
15638TIP3   OH268328   4.321   0.843   5.487 -0.6640  0.1444 -0.8962
15638TIP3    H168329   4.414   0.828   5.470 -0.4506  0.3791  0.0386
15638TIP3    H268330   4.310   0.826   5.580 -1.3959  0.9078 -0.8267
15639TIP3   OH268331   1.271   2.464   1.031 -0.0074  0.0021 -0.2801
15639TIP3    H168332   1.211   2.532   1.062 -0.8766 -0.7298 -0.2997
15639TIP3    H268333   1.246   2.386   1.080 -0.6890 -0.9199 -2.0126
15640TIP3   OH268334   3.441   4.813  16.000 -0.0585  0.4195  0.9597
15640TIP3    H168335   3.347   4.812  16.017 -0.0536  2.7329  1.4034
15640TIP3    H268336   3.476   4.876  16.062  1.6378  0.4453  0.0366
15641TIP3   OH268337   2.919   5.935  14.355  0.0003 -0.3841 -0.7579
15641TIP3    H168338   2.927   6.028  14.373 -0.5343 -0.1068 -1.8791
15641TIP3    H268339   2.917   5.894  14.441 -1.9615  0.8107 -0.1857
15642TIP3   OH268340   6.355   5.225   4.221  0.0306  0.0814  0.2558
15642TIP3    H168341   6.372   5.308   4.176 -1.3182  0.5530  0.5615
15642TIP3    H268342   6.436   5.175   4.212  0.5890  1.1159 -0.6288
15643TIP3   OH268343   4.915   4.350   1.148  0.1768 -0.0244  0.0817
15643TIP3    H168344   4.966   4.431   1.147 -0.5888  0.5278  1.7756
15643TIP3    H268345   4.851   4.360   1.077  0.2532  0.7396  0.1189
15644TIP3   OH268346   5.669   6.656   4.610 -0.1762 -0.1079  0.2419
15644TIP3    H168347   5.593   6.674   4.555 -0.1877  0.0251  0.3016
15644TIP3    H268348   5.644   6.686   4.698  0.2112  0.6297  0.1143
15645TIP3   OH268349   3.591   0.100   6.910  0.4371  0.1312 -0.3710
15645TIP3    H168350   3.568   0.193   6.906 -0.1220 -0.0362 -1.4226
15645TIP3    H268351   3.675   0.099   6.956  0.3739  1.1393 -0.1989
15646TIP3   OH268352   0.302   4.908   0.199  0.4625  0.9032  0.3174
15646TIP3    H168353   0.331   4.960   0.275 -0.6073  0.6002  0.9510
15646TIP3    H268354   0.209   4.893   0.215  0.8619 -1.8247  0.5152
15647TIP3   OH268355   3.610   3.973   0.424  0.0684  0.7597  0.1312
15647TIP3    H168356   3.692   3.939   0.389  1.0177  1.1243  1.9036
15647TIP3    H268357   3.560   3.896   0.449 -0.4039  0.5147 -1.4626
15648TIP3   OH268358   1.470   1.037  11.466  0.0593 -0.0119  0.6838
15648TIP3    H168359   1.528   1.032  11.389  0.0469  1.2512  0.5775
15648TIP3    H268360   1.382   1.047  11.429 -0.0935 -0.6171  0.8657
15649TIP3   OH268361   6.609   2.678   3.850  0.1464  0.8047  0.1913
15649TIP3    H168362   6.639   2.619   3.919  1.0349  1.3257  0.2669
15649TIP3    H268363   6.619   2.627   3.769 -0.9481  0.1756  0.4378
15650TIP3   OH268364   3.248   6.012   4.897  0.0429 -0.8458 -0.4756
15650TIP3    H168365   3.210   6.091   4.935  0.7953 -0.0228 -1.3834
15650TIP3    H268366   3.230   6.019   4.803  0.0662 -1.7909 -0.5632
15651TIP3   OH268367   1.635   6.401  13.942  0.1292  0.6273  0.2235
15651TIP3    H168368   1.554   6.448  13.919 -0.2256 -0.3968 -0.7223
15651TIP3    H268369   1.697   6.470  13.965 -0.5134  1.5359 -0.6692
15652TIP3   OH268370   2.596   6.565  15.284  0.4710  0.1967  0.2157
15652TIP3    H168371   2.565   6.651  15.313  1.5639  0.3937  0.8740
15652TIP3    H268372   2.517   6.519  15.257 -0.1801  1.2671  0.2401
15653TIP3   OH268373   1.247   4.036  11.723  0.2490  0.1833  0.0057
15653TIP3    H168374   1.197   3.956  11.739  1.8296 -0.5305  1.7082
15653TIP3    H268375   1.313   4.011  11.659 -0.7178  0.7852 -1.2606
15654TIP3   OH268376   4.492   0.563   1.713 -0.1733  0.6485 -0.0690
15654TIP3    H168377   4.466   0.552   1.621  0.8657  0.7707 -0.3936
15654TIP3    H268378   4.484   0.475   1.751  0.3417  0.3892 -0.5438
15655TIP3   OH268379   2.664   2.999   4.200 -0.3584 -0.2399 -0.5347
15655TIP3    H168380   2.597   3.067   4.194  0.0671  0.0727 -2.3909
15655TIP3    H268381   2.677   2.985   4.294 -0.2732  2.4257 -0.0949
15656TIP3   OH268382   6.214   2.740  14.958 -0.8506  0.1985 -0.1763
15656TIP3    H168383   6.260   2.738  14.875  2.6421 -0.3273  1.5903
15656TIP3    H268384   6.192   2.832  14.972  1.6609  0.8694 -0.2087
15657TIP3   OH268385   1.703   0.784  11.459  0.2141  0.5212  0.5436
15657TIP3    H168386   1.740   0.702  11.491  0.5748  0.6771  0.5317
15657TIP3    H268387   1.769   0.850  11.481 -0.5319  0.9670  1.4856
15658TIP3   OH268388   0.915   2.049  11.080  0.8074  0.4053  0.2475
15658TIP3    H168389   0.854   2.066  11.151 -0.4329 -0.8700 -0.4598
15658TIP3    H268390   0.999   2.081  11.112  0.5257 -1.1350  2.7477
15659TIP3   OH268391   1.973   4.498   3.971 -0.3690 -0.6415 -0.0465
15659TIP3    H168392   1.897   4.484   3.915 -0.7701 -0.5479  0.4657
15659TIP3    H268393   1.986   4.593   3.971 -0.5834 -0.6104  0.2918
15660TIP3   OH268394   2.095   1.272   4.732  0.3264 -0.5813  0.0225
15660TIP3    H168395   2.070   1.305   4.818 -0.9105 -0.6021 -0.3105
15660TIP3    H268396   2.027   1.208   4.709  1.1927 -1.3395 -0.5334
15661TIP3   OH268397   1.579   3.698   4.829  0.3842  0.1589 -0.5873
15661TIP3    H168398   1.630   3.633   4.782  2.6960  0.0940  1.7771
15661TIP3    H268399   1.519   3.734   4.764  0.9472 -2.3374 -2.6311
15662TIP3   OH268400   2.960   0.268   2.620 -0.5242 -0.1611 -0.0982
15662TIP3    H168401   2.939   0.360   2.634 -1.1014 -0.4908  1.4813
15662TIP3    H268402   3.055   0.265   2.617 -0.4453  0.3551  1.1355
15663TIP3   OH268403   1.527   3.548   2.561  0.4299  0.2832 -0.3172
15663TIP3    H168404   1.575   3.489   2.619  0.8484  1.0106  0.0935
15663TIP3    H268405   1.453   3.496   2.530  1.2859 -0.7379 -0.6863
15664TIP3   OH268406   0.384   4.102  11.211  0.4690 -0.1421 -0.1558
15664TIP3    H168407   0.326   4.094  11.287  1.6465 -0.2393  0.7687
15664TIP3    H268408   0.334   4.154  11.148 -1.0021 -1.0640  0.2028
15665TIP3   OH268409   3.358   3.676  16.629 -0.5725  0.3744  0.2444
15665TIP3    H168410   3.264   3.695  16.636 -0.6804 -0.4146  1.1563
15665TIP3    H268411   3.363   3.599  16.572 -0.4287  0.7840 -0.3015
15666TIP3   OH268412   5.386   6.688   3.108 -0.0532  0.0838 -0.3048
15666TIP3    H168413   5.428   6.665   3.191 -0.4553 -1.5604 -0.5243
15666TIP3    H268414   5.456   6.726   3.055  0.5660 -0.2684  0.2497
15667TIP3   OH268415   5.601   0.875  11.702 -0.4228 -0.9797  0.5457
15667TIP3    H168416   5.657   0.885  11.780 -0.0632 -1.2323  0.3232
15667TIP3    H268417   5.604   0.782  11.683  0.7622 -0.7234 -0.6899
15668TIP3   OH268418   0.897   5.691   0.145 -0.3111  0.1500  0.0903
15668TIP3    H168419   0.941   5.636   0.080 -1.5589  0.6214 -1.2021
15668TIP3    H268420   0.877   5.632   0.217  2.1898 -0.1352  0.6649
15669TIP3   OH268421   2.927   2.677   5.376  0.7257  0.9249 -0.6726
15669TIP3    H168422   2.857   2.724   5.332 -0.4812  0.0634  0.2577
15669TIP3    H268423   2.896   2.587   5.382  2.1743  0.3921 -0.7576
15670TIP3   OH268424   2.540   4.236  12.474  0.0834 -0.2882  0.0298
15670TIP3    H168425   2.450   4.234  12.508  0.0355 -0.5827 -0.1125
15670TIP3    H268426   2.568   4.326  12.487 -1.4239  0.7587 -3.0261
15671TIP3   OH268427   0.018   0.276   4.639  0.3234  0.3953 -0.2733
15671TIP3    H168428   0.055   0.275   4.551  0.1727  4.1590 -0.5162
15671TIP3    H268429  -0.046   0.348   4.637 -0.9940 -0.5732  2.4455
15672TIP3   OH268430   2.622   1.713   4.776 -0.5448  0.9504 -0.6405
15672TIP3    H168431   2.532   1.734   4.754 -0.8876  0.4108  0.1710
15672TIP3    H268432   2.672   1.791   4.753 -1.4636  1.8644  0.3722
15673TIP3   OH268433   5.016   1.442   1.200  0.4069 -0.9071  0.0712
15673TIP3    H168434   5.106   1.472   1.211  0.1502 -0.0827 -0.0280
15673TIP3    H268435   5.018   1.388   1.121  0.9258 -1.3579  0.3910
15674TIP3   OH268436   3.826   2.755   2.089  0.5051  1.0511  0.1776
15674TIP3    H168437   3.883   2.752   2.012 -1.0246  2.3267 -1.0745
15674TIP3    H268438   3.785   2.669   2.093  1.6155  0.5151  0.4067
15675TIP3   OH268439   1.739   1.155   5.284 -0.3610 -0.5772  0.2283
15675TIP3    H168440   1.779   1.118   5.205  2.2434  1.8297  0.2448
15675TIP3    H268441   1.703   1.079   5.331  0.2884 -2.3782 -2.0188
15676TIP3   OH268442   2.199   5.628  17.308  0.5377 -0.3374  0.0843
15676TIP3    H168443   2.123   5.684  17.292  1.0120  0.2269 -0.2273
15676TIP3    H268444   2.179   5.546  17.262  1.1697  0.6631 -2.1001
15677TIP3   OH268445   6.045   0.999   3.709 -0.0343 -0.0818  0.2413
15677TIP3    H168446   6.123   1.032   3.665  0.8758 -2.3742 -0.0359
15677TIP3    H268447   6.066   1.003   3.802  1.0715 -1.9905  0.1272
15678TIP3   OH268448   1.078   1.112  12.498 -0.2037 -0.2875 -0.1041
15678TIP3    H168449   1.049   1.168  12.570  0.1766  0.9811 -0.9065
15678TIP3    H268450   1.169   1.094  12.517 -0.4677 -1.0865  0.4295
15679TIP3   OH268451   3.052   5.159  11.231  0.4981  0.2708 -0.3957
15679TIP3    H168452   2.980   5.222  11.242  0.7384  0.5464 -0.3964
15679TIP3    H268453   3.131   5.213  11.232  0.7027 -0.0291 -0.4377
15680TIP3   OH268454   1.276   4.271   5.953 -0.4225  0.7944  0.2318
15680TIP3    H168455   1.331   4.349   5.958 -2.0443  1.8922  3.5032
15680TIP3    H268456   1.195   4.301   5.912 -0.9004  0.7473  1.1283
15681TIP3   OH268457   0.873   4.548  17.064  0.2429 -0.7725  0.0722
15681TIP3    H168458   0.956   4.510  17.038 -0.0592 -1.5986  0.2778
15681TIP3    H268459   0.821   4.550  16.983  0.5243 -0.0707 -0.0987
15682TIP3   OH268460   1.650   3.022   4.627  0.0289 -0.2188 -0.0242
15682TIP3    H168461   1.660   3.078   4.704  1.2191  0.6365 -0.7700
15682TIP3    H268462   1.729   3.037   4.576 -1.1637 -0.0286 -1.8962
15683TIP3   OH268463   1.770   3.932   6.801 -0.2283 -0.6453  0.4554
15683TIP3    H168464   1.765   4.027   6.787 -0.8474 -0.8728 -1.0034
15683TIP3    H268465   1.855   3.907   6.763  0.7697 -0.4566  2.4294
15684TIP3   OH268466   4.327   3.776   5.774  0.3820 -0.1903  0.0144
15684TIP3    H168467   4.323   3.723   5.854  0.8117 -0.0267  0.1448
15684TIP3    H268468   4.416   3.810   5.772 -0.2436  1.6408  0.6515
15685TIP3   OH268469   0.405   1.153  16.267 -0.5613 -0.2107  0.0050
15685TIP3    H168470   0.409   1.187  16.177  0.8791 -2.7753 -1.0219
15685TIP3    H268471   0.448   1.220  16.319  0.0557  0.6331 -1.5100
15686TIP3   OH268472   2.531   2.124  10.874  0.1036  0.4325  0.1163
15686TIP3    H168473   2.492   2.178  10.805  0.8686 -0.6666 -1.2291
15686TIP3    H268474   2.513   2.172  10.955 -3.4978  0.3248 -0.4320
15687TIP3   OH268475   1.955   2.995   1.552  0.5658  0.5368  0.1817
15687TIP3    H168476   1.934   2.988   1.459  2.1516  1.3876 -0.2799
15687TIP3    H268477   1.982   2.906   1.577  0.8669  0.4625 -0.3791
15688TIP3   OH268478   3.939   4.173  13.280 -0.3638 -0.4964 -0.8071
15688TIP3    H168479   3.846   4.196  13.278  0.2721  2.5708 -0.7204
15688TIP3    H268480   3.956   4.135  13.194 -1.4436  0.2350 -1.3811
15689TIP3   OH268481   5.804   2.315  13.613 -0.3139  0.9137 -1.0709
15689TIP3    H168482   5.863   2.262  13.666 -3.1405 -0.1129  1.2874
15689TIP3    H268483   5.853   2.395  13.595  2.5765 -0.7628 -1.2601
15690TIP3   OH268484   3.923   3.229  16.430 -0.3250 -0.2812  0.1465
15690TIP3    H168485   3.925   3.289  16.355  0.6671  0.4252  0.7097
15690TIP3    H268486   4.014   3.229  16.462 -1.1661  1.3362  2.8233
15691TIP3   OH268487   4.465   5.782  16.997 -0.5486  0.0424  0.2369
15691TIP3    H168488   4.386   5.754  17.043 -0.0491 -0.7061  0.6503
15691TIP3    H268489   4.537   5.741  17.044 -0.0693 -1.7028 -1.8629
15692TIP3   OH268490   4.985   5.800   1.961 -0.1584  0.2097  0.2422
15692TIP3    H168491   4.970   5.790   1.867  0.5836 -0.1664  0.1535
15692TIP3    H268492   4.934   5.729   2.001 -2.0772  1.5353  0.3050
15693TIP3   OH268493   2.786   1.900   3.491  0.0345  0.4009  0.4332
15693TIP3    H168494   2.871   1.865   3.462 -1.2787 -2.5429 -0.3269
15693TIP3    H268495   2.760   1.959   3.421 -0.2379 -1.7818 -1.4527
15694TIP3   OH268496   6.479   5.579  11.681 -0.3036 -0.1711 -0.0779
15694TIP3    H168497   6.502   5.547  11.768 -0.2533 -1.6041 -0.5947
15694TIP3    H268498   6.398   5.533  11.659 -0.5612  0.5195 -0.6057
15695TIP3   OH268499   6.347   3.904   4.180  0.1545 -0.3595 -0.0640
15695TIP3    H168500   6.256   3.878   4.165  0.7934 -2.0962 -1.2295
15695TIP3    H268501   6.347   3.939   4.270 -1.2650 -2.2705  0.7497
15696TIP3   OH268502   2.693   0.488  12.777  0.0859  0.0292  0.4117
15696TIP3    H168503   2.672   0.422  12.844 -0.7246  1.3584  1.5254
15696TIP3    H268504   2.608   0.525  12.753  0.6035  1.4874  0.7062
15697TIP3   OH268505   4.838   4.955  12.301 -0.1562  0.0246 -0.0228
15697TIP3    H168506   4.781   5.019  12.343 -1.1575 -1.2435  0.6260
15697TIP3    H268507   4.920   5.002  12.286 -0.8766  1.4655  0.3547
15698TIP3   OH268508   1.935   1.445  17.312 -0.0843 -0.2238  0.0171
15698TIP3    H168509   2.005   1.483  17.260 -0.2643  0.6207  0.3878
15698TIP3    H268510   1.854   1.480  17.274 -0.1914  1.0717  1.3609
15699TIP3   OH268511   5.430   0.970   6.128  0.1702  0.1366  0.5370
15699TIP3    H168512   5.436   0.877   6.151  0.1766 -0.7317 -2.5154
15699TIP3    H268513   5.378   0.971   6.048  0.8431  2.7086  0.0625
15700TIP3   OH268514   2.160   1.061  14.568  0.3017  0.0970  0.2275
15700TIP3    H168515   2.108   1.119  14.512 -0.1137  1.3426  1.8343
15700TIP3    H268516   2.219   1.017  14.507 -1.7726 -0.4759 -1.5081
15701TIP3   OH268517   0.990   4.996   6.381 -0.5186  0.0174 -0.2161
15701TIP3    H168518   1.043   4.916   6.383  0.3119  0.5426 -0.9607
15701TIP3    H268519   1.036   5.057   6.439 -0.5495  0.3345 -0.5254
15702TIP3   OH268520   2.785   4.847  16.640  0.2538  0.0175  0.4691
15702TIP3    H168521   2.858   4.902  16.672  0.9448 -0.7454  0.2284
15702TIP3    H268522   2.827   4.780  16.587 -0.7702  0.4700 -0.9779
15703TIP3   OH268523   3.591   0.473   0.101 -0.1603  0.4402  0.1614
15703TIP3    H168524   3.662   0.409   0.092  0.1892  0.3273  2.8193
15703TIP3    H268525   3.558   0.485   0.012  1.3651 -1.5908 -0.7696
15704TIP3   OH268526   0.726   3.617  14.436 -0.7915  0.2081 -0.1299
15704TIP3    H168527   0.633   3.596  14.444 -0.6672 -0.2436  0.2023
15704TIP3    H268528   0.762   3.544  14.386 -0.5052  0.0627  0.2807
15705TIP3   OH268529   2.317   2.197   3.712  0.2124 -0.5938  0.1470
15705TIP3    H168530   2.245   2.256   3.691  0.3124 -1.1798 -1.9939
15705TIP3    H268531   2.373   2.248   3.771 -0.3886  0.9734 -0.5847
15706TIP3   OH268532   0.120   6.054   1.925  0.1248 -0.4173  0.1085
15706TIP3    H168533   0.130   6.007   1.842  0.8226 -1.2409  0.6380
15706TIP3    H268534   0.053   6.005   1.972  1.1156 -1.1389  0.8141
15707TIP3   OH268535   1.367   5.342   3.872  0.3551 -0.0274 -0.1281
15707TIP3    H168536   1.432   5.277   3.846  0.9172  0.7279 -0.6588
15707TIP3    H268537   1.298   5.291   3.915  0.8606 -0.9468 -0.3757
15708TIP3   OH268538   0.294   3.854   4.971  0.1160  0.6039 -0.2060
15708TIP3    H168539   0.335   3.800   4.904 -1.4971 -1.3004  0.2264
15708TIP3    H268540   0.364   3.874   5.033  1.1120  0.4054 -1.2420
15709TIP3   OH268541   1.543   2.772   3.382 -0.2019  0.3264  0.0138
15709TIP3    H168542   1.632   2.798   3.406 -0.3720 -0.5651  1.8050
15709TIP3    H268543   1.531   2.687   3.425 -1.1292 -0.6754 -2.1045
15710TIP3   OH268544   1.167   4.823   2.562  0.7664  0.0525 -0.7863
15710TIP3    H168545   1.097   4.822   2.497 -1.2923  1.9049  1.2469
15710TIP3    H268546   1.172   4.732   2.593  0.2458 -0.3765 -1.8850
15711TIP3   OH268547   1.459   2.553  11.151  0.2358 -0.3919  0.3856
15711TIP3    H168548   1.396   2.614  11.188 -0.9858 -0.1302 -1.9061
15711TIP3    H268549   1.412   2.470  11.144  0.2200 -0.2981 -0.9793
15712TIP3   OH268550   3.208   5.451   2.162 -0.2143  0.3561  0.4096
15712TIP3    H168551   3.239   5.448   2.253 -0.7933  1.3896  0.6547
15712TIP3    H268552   3.185   5.542   2.148  0.6394  0.3759 -1.0480
15713TIP3   OH268553   4.325   4.376  12.768  0.3644  0.3763 -0.1233
15713TIP3    H168554   4.320   4.472  12.762 -1.4465  0.4972  2.1551
15713TIP3    H268555   4.403   4.360  12.821 -0.5293  0.7600  1.3758
15714TIP3   OH268556   0.162   0.702   5.945  0.0378  0.4802  0.6656
15714TIP3    H168557   0.180   0.755   6.023 -1.1458  1.4957  0.2639
15714TIP3    H268558   0.132   0.764   5.880 -0.6199 -0.5901 -0.0723
15715TIP3   OH268559   2.484   5.006  15.203 -0.1514 -0.0483  0.0486
15715TIP3    H168560   2.504   4.913  15.208 -1.7786 -0.4477 -0.5235
15715TIP3    H268561   2.535   5.045  15.274  0.9048 -1.2928  0.0008
15716TIP3   OH268562   4.990   2.421  13.335 -0.0226  0.0088 -0.0750
15716TIP3    H168563   4.913   2.452  13.287 -1.2692 -1.6607  0.7430
15716TIP3    H268564   5.053   2.398  13.266 -1.0540 -0.5549 -0.8550
15717TIP3   OH268565   5.573   4.419   5.288  0.9305 -0.0616 -0.6025
15717TIP3    H168566   5.538   4.331   5.306  0.6855  0.2714  0.6227
15717TIP3    H268567   5.495   4.474   5.281  1.0952  0.1079 -1.1533
15718TIP3   OH268568   6.616   6.136  14.062 -0.3294 -0.2623  0.1706
15718TIP3    H168569   6.672   6.153  13.987 -0.9296  0.5311 -0.1100
15718TIP3    H268570   6.661   6.067  14.111  0.2685 -0.4972 -0.6955
15719TIP3   OH268571   5.670   3.543  15.034  0.4811 -0.0658  0.2167
15719TIP3    H168572   5.658   3.557  15.128 -1.6762 -2.0857  0.3530
15719TIP3    H268573   5.619   3.613  14.993 -0.6093 -0.5627  0.6565
15720TIP3   OH268574   2.048   1.832   6.421 -0.3172  0.1508 -0.4136
15720TIP3    H168575   1.999   1.869   6.494  1.6739 -0.9052  1.5962
15720TIP3    H268576   2.023   1.884   6.345  0.0493  3.5858  1.6343
15721TIP3   OH268577   0.811   3.921  14.005  0.1545 -0.2932  0.7108
15721TIP3    H168578   0.821   3.877  13.920  0.7500 -0.3926  0.8345
15721TIP3    H268579   0.893   3.967  14.019  0.2639 -0.7074  1.4847
15722TIP3   OH268580   3.136   3.038   1.733  0.6126 -0.0140 -0.0339
15722TIP3    H168581   3.230   3.019   1.736  1.4765  3.4839 -0.5641
15722TIP3    H268582   3.098   2.960   1.694  3.2962 -1.5430  0.1217
15723TIP3   OH268583   4.246   6.337  16.673  0.1970  0.1459  0.3283
15723TIP3    H168584   4.301   6.343  16.751 -0.2092 -0.4421  0.6660
15723TIP3    H268585   4.295   6.280  16.614  0.3214  0.2729  0.3083
15724TIP3   OH268586   0.411   4.414  12.053  0.0783  0.3264  0.1040
15724TIP3    H168587   0.504   4.393  12.056  0.3555  1.4295 -0.2879
15724TIP3    H268588   0.399   4.458  11.969 -1.1317 -1.2327 -0.5952
15725TIP3   OH268589   6.102   1.241  15.268 -0.4628 -0.2299 -0.5159
15725TIP3    H168590   6.066   1.247  15.179 -0.9311 -0.2047 -0.3286
15725TIP3    H268591   6.138   1.328  15.284 -0.9531 -0.0370 -0.4433
15726TIP3   OH268592   3.686   3.980  15.844  0.0456 -0.1543  0.3568
15726TIP3    H168593   3.733   3.991  15.926 -0.7029 -1.7414  1.0250
15726TIP3    H268594   3.620   3.912  15.861 -1.2921  0.6955 -1.0574
15727TIP3   OH268595   3.577   3.033  12.666  0.1518 -0.6559 -0.3549
15727TIP3    H168596   3.621   3.062  12.746 -0.4289 -1.0392  0.1151
15727TIP3    H268597   3.644   3.039  12.598  0.3867  0.6124 -0.0390
15728TIP3   OH268598   1.340   5.328   3.001  0.0036 -0.3633 -0.5874
15728TIP3    H168599   1.336   5.238   3.035 -0.2454 -0.6212 -1.2651
15728TIP3    H268600   1.281   5.378   3.057  1.9582 -0.0648  1.3460
15729TIP3   OH268601   3.229   3.702  13.215  0.5030 -0.4210  0.7196
15729TIP3    H168602   3.281   3.752  13.277 -1.5637  2.7601  0.1715
15729TIP3    H268603   3.275   3.712  13.132 -0.4529  1.7989  0.3717
15730TIP3   OH268604   4.995   0.649  10.741  0.0221  0.0297  0.0357
15730TIP3    H168605   4.967   0.578  10.683  1.5390 -0.2480 -0.3802
15730TIP3    H268606   4.929   0.650  10.810 -2.7841  1.3906 -2.4042
15731TIP3   OH268607   0.474   6.433  16.591 -0.2948 -0.3389 -0.1316
15731TIP3    H168608   0.548   6.477  16.634 -0.0295 -0.3000 -0.6254
15731TIP3    H268609   0.486   6.451  16.498 -1.3387  0.3027 -0.1635
15732TIP3   OH268610   5.176   5.068  14.517  1.0577 -0.3734 -0.5126
15732TIP3    H168611   5.162   5.162  14.501 -0.2247 -0.5824 -0.7014
15732TIP3    H268612   5.201   5.033  14.432  1.1056 -0.2832 -0.5365
15733TIP3   OH268613   3.204   0.891   4.690 -0.4217  0.1201 -0.4969
15733TIP3    H168614   3.258   0.919   4.617 -0.4486  0.6146 -0.3302
15733TIP3    H268615   3.114   0.902   4.659 -0.4480  1.0334 -0.1465
15734TIP3   OH268616   5.699   1.341  12.135  0.4789  0.0535 -0.4043
15734TIP3    H168617   5.713   1.329  12.041 -1.9748  0.1177 -0.8264
15734TIP3    H268618   5.629   1.405  12.141  0.5597  0.0155  1.4822
15735TIP3   OH268619   0.660   1.961  16.249  0.0836  0.0391 -0.0789
15735TIP3    H168620   0.575   1.924  16.274 -0.5888  1.8823  0.5314
15735TIP3    H268621   0.675   1.930  16.160 -1.6431  0.3857 -0.5131
15736TIP3   OH268622   3.630   3.073   3.794 -0.0625 -0.1684 -0.6525
15736TIP3    H168623   3.554   3.115   3.752 -0.6272 -0.6502 -0.1225
15736TIP3    H268624   3.619   3.092   3.887  0.4763 -0.2301 -0.5775
15737TIP3   OH268625   3.339   2.086   3.736  0.0286  0.2193  0.6713
15737TIP3    H168626   3.335   2.002   3.690  1.5815  1.1037 -1.2264
15737TIP3    H268627   3.248   2.113   3.745 -0.3976 -0.5790 -0.8907
15738TIP3   OH268628   0.158   2.135   5.261  0.1329 -0.3841 -0.2335
15738TIP3    H168629   0.145   2.226   5.287  0.8168 -0.5352  0.7077
15738TIP3    H268630   0.083   2.088   5.298  0.8289 -0.5112  1.1035
15739TIP3   OH268631   1.091   4.646  16.859  0.0032  0.0200  0.1041
15739TIP3    H168632   1.096   4.595  16.778 -0.3618 -1.6948  1.0935
15739TIP3    H268633   1.027   4.715  16.840  1.3304  0.8628 -1.6359
15740TIP3   OH268634   4.083   3.851   0.632  0.0541  0.7349  0.6080
15740TIP3    H168635   4.171   3.828   0.603 -0.0590  1.7945 -0.6557
15740TIP3    H268636   4.030   3.773   0.613  0.6186  0.2449  1.0026
15741TIP3   OH268637   0.083   4.785   5.400  0.0196 -0.1589 -0.4649
15741TIP3    H168638   0.110   4.863   5.449  0.2409 -0.9576  0.7081
15741TIP3    H268639  -0.012   4.782   5.409  0.0948 -0.5182  0.2570
15742TIP3   OH268640   3.173   6.721  17.452 -0.1240 -0.0153 -0.5583
15742TIP3    H168641   3.204   6.630  17.458 -0.9727 -0.2739 -0.0159
15742TIP3    H268642   3.239   6.765  17.397  1.2133 -0.5516  0.5542
15743TIP3   OH268643   2.454   6.611  12.365  0.1909 -0.0807  0.5780
15743TIP3    H168644   2.384   6.677  12.365  2.0418  2.0696 -1.2202
15743TIP3    H268645   2.509   6.636  12.439 -0.5088 -1.3042  1.5312
15744TIP3   OH268646   2.786   0.675   0.536  0.7627 -0.2004  0.2860
15744TIP3    H168647   2.755   0.687   0.626  0.4629  1.7259 -0.0391
15744TIP3    H268648   2.711   0.699   0.482  1.0007 -1.1796 -0.5052
15745TIP3   OH268649   0.394   0.873  16.345 -0.0814  0.4340 -0.8010
15745TIP3    H168650   0.381   0.894  16.252 -0.1961  0.3976 -0.7934
15745TIP3    H268651   0.417   0.957  16.385  0.7553  0.3115 -1.0022
15746TIP3   OH268652   0.868   2.846   4.133 -0.1465  0.0607 -0.3648
15746TIP3    H168653   0.849   2.940   4.136  0.2452  0.2873 -2.8802
15746TIP3    H268654   0.937   2.833   4.199 -0.9677  1.3074  0.7851
15747TIP3   OH268655   0.612   0.104  12.753 -0.1409  0.1352  0.3723
15747TIP3    H168656   0.615   0.198  12.772 -1.0657  0.0774  0.8780
15747TIP3    H268657   0.681   0.090  12.688  0.4714  1.0400  0.8039
15748TIP3   OH268658   6.575   2.028  16.227 -0.5087  0.2861  0.1800
15748TIP3    H168659   6.644   1.981  16.274  0.4526  1.9160  0.4672
15748TIP3    H268660   6.531   1.960  16.176 -2.0560 -1.7162  3.8644
15749TIP3   OH268661   3.572   6.614  12.122  0.4703  0.2246 -0.0842
15749TIP3    H168662   3.647   6.590  12.176 -0.3017 -0.4837  0.6884
15749TIP3    H268663   3.500   6.628  12.183  0.4066  2.8976 -0.6135
15750TIP3   OH268664   6.693   3.619   5.597  0.2030  0.4934 -0.4238
15750TIP3    H168665   6.617   3.646   5.546  0.4172  1.0739 -0.4525
15750TIP3    H268666   6.699   3.525   5.585  0.1311  0.5949 -1.3104
15751TIP3   OH268667   5.587   0.602  11.697  0.8191  0.3118  0.5831
15751TIP3    H168668   5.634   0.521  11.715  2.1517  1.2380  1.4730
15751TIP3    H268669   5.545   0.625  11.780  0.4274  0.5366  0.3289
15752TIP3   OH268670   6.574   3.284  13.434  0.9612  0.1941 -0.4995
15752TIP3    H168671   6.491   3.255  13.396 -1.1632  4.3515  0.2873
15752TIP3    H268672   6.636   3.282  13.362 -1.3325  2.0062 -2.7048
15753TIP3   OH268673   6.741   5.479  17.104  0.2065  0.1797  0.1837
15753TIP3    H168674   6.746   5.438  17.018 -1.2269 -0.5643  0.4277
15753TIP3    H268675   6.809   5.435  17.156 -0.6459 -1.2241  0.1579
15754TIP3   OH268676   3.317   2.546   5.954  0.1250 -0.4520 -0.1799
15754TIP3    H168677   3.301   2.472   6.011 -1.5776 -1.0296 -1.3038
15754TIP3    H268678   3.237   2.553   5.901  1.9513 -0.5801 -3.1543
15755TIP3   OH268679   0.265   1.096  12.949  0.0224 -0.6510  0.1152
15755TIP3    H168680   0.201   1.166  12.967 -0.5713 -1.1825  0.0927
15755TIP3    H268681   0.328   1.102  13.021  0.3303  0.3142 -0.2221
15756TIP3   OH268682   3.096   0.379   0.211 -0.2183 -0.1605 -0.0398
15756TIP3    H168683   3.007   0.363   0.242 -0.7952 -1.0610 -2.0038
15756TIP3    H268684   3.147   0.393   0.291 -1.4543 -2.9845  1.3984
15757TIP3   OH268685   1.000   4.146  12.490  0.0820 -0.5169 -0.1769
15757TIP3    H168686   0.936   4.135  12.419 -1.8095  2.4132  0.8428
15757TIP3    H268687   0.955   4.112  12.567  0.6822 -0.4819  0.1885
15758TIP3   OH268688   4.180   5.834  13.056  0.1113  0.7343 -0.5228
15758TIP3    H168689   4.256   5.824  13.113  0.2601  0.8835 -0.6933
15758TIP3    H268690   4.195   5.916  13.009 -1.2244  1.9685  1.0724
15759TIP3   OH268691   6.508   4.346  14.172  0.4266  0.2392  0.3321
15759TIP3    H168692   6.554   4.429  14.164  0.8063  0.3773  3.0716
15759TIP3    H268693   6.415   4.369  14.166  0.5556  0.6793 -0.0667
15760TIP3   OH268694   2.827   4.574   5.183  0.3520  0.5944 -0.3524
15760TIP3    H168695   2.795   4.637   5.249 -0.0719  0.0858 -0.0666
15760TIP3    H268696   2.801   4.613   5.099 -0.2134  0.6440 -0.1626
15761TIP3   OH268697   4.075   2.781   2.176  0.6076  0.1704  0.5574
15761TIP3    H168698   4.117   2.697   2.157  1.6008  0.8314 -0.3135
15761TIP3    H268699   3.989   2.775   2.136  0.6066 -0.4866  0.6452
15762TIP3   OH268700   2.029   3.021  12.955 -0.5563 -0.1232 -0.8279
15762TIP3    H168701   2.123   3.010  12.939 -0.1210  0.1878  1.2930
15762TIP3    H268702   1.992   2.934  12.940  0.5003 -0.9039  0.8267
15763TIP3   OH268703   3.117   5.924   1.082  0.8610 -0.4574  0.4601
15763TIP3    H168704   3.037   5.953   1.126  0.6694  0.4167 -0.4193
15763TIP3    H268705   3.102   5.831   1.065 -0.8845  0.0905 -1.4596
15764TIP3   OH268706   6.151   2.347  13.414 -0.2659  0.5282  0.0892
15764TIP3    H168707   6.078   2.402  13.386  1.0343  1.5231 -1.5219
15764TIP3    H268708   6.196   2.400  13.481 -1.0715 -0.1564  1.2097
15765TIP3   OH268709   1.673   1.379   4.054  0.0449  0.7782 -0.3799
15765TIP3    H168710   1.707   1.467   4.072 -0.0494  0.9544 -1.0327
15765TIP3    H268711   1.594   1.373   4.108  0.9568  0.4524  0.9596
15766TIP3   OH268712   0.607   5.446   3.784  0.3183 -0.2092  0.1697
15766TIP3    H168713   0.538   5.380   3.796 -0.0388 -0.2397 -1.7335
15766TIP3    H268714   0.687   5.402   3.812 -0.2200 -0.7247  0.9162
15767TIP3   OH268715   0.757   6.479  13.496 -0.4099 -0.3115 -0.4221
15767TIP3    H168716   0.769   6.385  13.484  2.1574 -0.4185  1.8918
15767TIP3    H268717   0.690   6.486  13.564 -0.0970 -0.5291 -0.0864
15768TIP3   OH268718   0.186   0.955   6.767 -0.5762  0.2344 -0.1637
15768TIP3    H168719   0.117   0.893   6.743 -2.4711  2.4484 -0.7894
15768TIP3    H268720   0.140   1.038   6.780  1.5626  1.1494  2.5505
15769TIP3   OH268721   5.838   3.478  12.577  0.0534  0.3055  0.4281
15769TIP3    H168722   5.840   3.398  12.525 -3.0253 -0.4520  1.2250
15769TIP3    H268723   5.765   3.529  12.540 -0.0321  1.2775  1.8551
15770TIP3   OH268724   1.286   5.170  11.538 -0.2917  0.0339  0.0990
15770TIP3    H168725   1.241   5.225  11.474  1.0371 -0.6935 -1.5381
15770TIP3    H268726   1.355   5.226  11.573  0.5655 -0.3059 -0.9915
15771TIP3   OH268727   4.298   0.580  13.907 -0.7018 -0.3711  0.0076
15771TIP3    H168728   4.297   0.484  13.902 -3.4338 -0.4295  0.2769
15771TIP3    H268729   4.225   0.602  13.965 -0.5701  1.9035 -0.5846
15772TIP3   OH268730   5.570   2.998  15.025  0.2948 -0.9065 -0.4745
15772TIP3    H168731   5.488   3.047  15.034  0.4368 -0.0714 -2.8519
15772TIP3    H268732   5.605   2.992  15.114 -2.1363 -0.9598  0.5551
15773TIP3   OH268733   5.798   6.650  11.103  0.4844 -0.3057 -0.2827
15773TIP3    H168734   5.748   6.584  11.056 -0.2740 -0.3519  0.5569
15773TIP3    H268735   5.734   6.717  11.127  1.0875  0.3316 -0.3970
15774TIP3   OH268736   5.393   2.023  16.209 -0.5614 -0.4531 -0.2532
15774TIP3    H168737   5.355   2.107  16.183  0.2606  0.0156  0.0267
15774TIP3    H268738   5.323   1.979  16.258 -1.5188 -0.5949 -1.6967
15775TIP3   OH268739   0.460   0.512   7.105  0.0838 -0.2966  0.3622
15775TIP3    H168740   0.486   0.576   7.171 -0.6982  0.1618  0.2330
15775TIP3    H268741   0.543   0.476   7.073  0.5181  0.4100  0.6640
15776TIP3   OH268742   4.386   1.126   5.852 -0.1950 -0.4335 -0.0861
15776TIP3    H168743   4.416   1.112   5.762 -2.3731  1.2604 -1.1885
15776TIP3    H268744   4.294   1.100   5.850 -0.2712 -0.3842  1.6613
15777TIP3   OH268745   1.438   4.332  15.222  0.2861 -0.1128  0.0733
15777TIP3    H168746   1.416   4.318  15.315  0.5392  1.4735  0.3987
15777TIP3    H268747   1.362   4.378  15.187  1.8744  3.2312  0.6144
15778TIP3   OH268748   0.964   6.664   3.701 -0.2498  0.3643 -0.3326
15778TIP3    H168749   1.007   6.580   3.717 -0.2219  0.4154 -0.1316
15778TIP3    H268750   0.915   6.651   3.620 -0.6541 -0.0077 -0.0353
15779TIP3   OH268751   5.313   1.845   5.065 -0.2214 -0.3264 -0.3641
15779TIP3    H168752   5.332   1.891   5.147 -2.3541  0.0425 -0.0225
15779TIP3    H268753   5.398   1.815   5.034  0.5979 -0.8539  2.1991
15780TIP3   OH268754   3.409   3.198  12.114 -0.4725 -0.7125  0.0208
15780TIP3    H168755   3.332   3.222  12.064 -1.5500 -0.5320  1.6994
15780TIP3    H268756   3.431   3.110  12.083 -1.3208 -0.7509 -0.5063
15781TIP3   OH268757   6.104   5.456  12.118 -0.1724  0.4438 -0.6531
15781TIP3    H168758   6.099   5.517  12.044  2.7909  2.4970  0.6328
15781TIP3    H268759   6.047   5.495  12.185 -1.1289 -0.2126 -1.0764
15782TIP3   OH268760   3.568   6.732  14.369 -0.3493  0.1955  0.0432
15782TIP3    H168761   3.562   6.815  14.320  1.6341  0.1124 -0.4121
15782TIP3    H268762   3.636   6.748  14.433 -0.5076 -0.8548  0.4811
15783TIP3   OH268763   6.236   0.855   4.823  0.3678 -0.0303 -0.3840
15783TIP3    H168764   6.295   0.872   4.749 -0.1443 -0.7608 -0.9797
15783TIP3    H268765   6.247   0.931   4.880  0.9041  0.4766 -1.1298
15784TIP3   OH268766   5.827   6.314   3.050 -0.4648 -0.9807  0.5157
15784TIP3    H168767   5.915   6.349   3.068 -0.0984 -1.5922 -0.0526
15784TIP3    H268768   5.817   6.242   3.111 -1.4230  0.3962  2.0366
15785TIP3   OH268769   6.386   6.589  14.141 -0.2470  0.4665 -0.3514
15785TIP3    H168770   6.371   6.594  14.046 -2.8223  1.4434  0.0139
15785TIP3    H268771   6.306   6.548  14.175  0.4972  0.4341  1.4403
15786TIP3   OH268772   4.985   4.835  13.652 -0.0143  0.3881  0.9047
15786TIP3    H168773   5.008   4.780  13.577 -4.2382  0.2364 -0.5416
15786TIP3    H268774   4.927   4.781  13.705 -1.5573  2.2821  1.2647
15787TIP3   OH268775   6.492   0.977  12.834 -0.3619 -0.4855  0.5008
15787TIP3    H168776   6.491   1.031  12.755 -0.7217 -0.2059  0.6939
15787TIP3    H268777   6.585   0.971  12.857  0.0626 -2.8607 -1.4748
15788TIP3   OH268778   6.358   2.474  11.772 -0.3041 -0.2575 -0.4361
15788TIP3    H168779   6.426   2.496  11.837 -1.0720 -0.9269  0.6220
15788TIP3    H268780   6.373   2.381  11.753 -1.1120 -0.4969  0.0547
15789TIP3   OH268781   1.322   2.307  14.295 -0.3931 -0.1848 -0.2276
15789TIP3    H168782   1.343   2.355  14.376  1.0519 -0.9622 -0.1128
15789TIP3    H268783   1.317   2.375  14.228  0.0867  0.2944  0.2073
15790TIP3   OH268784   4.899   2.950   2.427 -0.3319  1.0672 -0.0592
15790TIP3    H168785   4.814   2.964   2.386  0.1227  1.1826 -0.9947
15790TIP3    H268786   4.937   3.038   2.434 -0.4236  1.0585  0.6829
15791TIP3   OH268787   5.467   5.380  13.592 -0.1115  0.2531  0.3202
15791TIP3    H168788   5.454   5.469  13.627  0.5465  0.0270  1.1905
15791TIP3    H268789   5.400   5.327  13.635 -2.3707  0.7772 -2.2776
15792TIP3   OH268790   1.854   0.809   3.939 -0.5897  0.7962  0.3643
15792TIP3    H168791   1.900   0.892   3.952  0.3162  0.0180  2.7637
15792TIP3    H268792   1.897   0.748   4.000 -0.1934 -1.8803 -2.3525
15793TIP3   OH268793   0.568   3.800   1.677  0.1660 -0.5313  0.3124
15793TIP3    H168794   0.605   3.762   1.597 -2.1084 -0.0610 -1.0523
15793TIP3    H268795   0.612   3.884   1.687 -1.1428  0.5195 -1.8913
15794TIP3   OH268796   5.006   2.101  13.443 -0.1860 -0.0890 -0.3151
15794TIP3    H168797   5.093   2.067  13.425 -0.1431 -0.1466 -0.0096
15794TIP3    H268798   4.959   2.028  13.482 -0.4077 -0.0923 -0.5841
15795TIP3   OH268799   2.181   2.555   2.725  0.1580 -0.7659 -0.4658
15795TIP3    H168800   2.164   2.463   2.740 -0.1547 -0.7494 -0.7090
15795TIP3    H268801   2.105   2.586   2.676 -0.4905 -0.0187  0.9643
15796TIP3   OH268802   5.849   2.530  14.783  0.4156 -0.4888  0.5344
15796TIP3    H168803   5.828   2.535  14.877 -0.1033 -1.5690  0.4886
15796TIP3    H268804   5.875   2.619  14.760  2.5161 -0.6005  2.1550
15797TIP3   OH268805   2.304   6.016  15.991  0.1396  0.1609 -0.0256
15797TIP3    H168806   2.293   5.969  16.074 -2.2133  1.5907  0.5462
15797TIP3    H268807   2.316   6.108  16.016 -0.0924  0.5511 -1.2520
15798TIP3   OH268808   2.171   2.577  15.613  0.0996  0.6667  0.4047
15798TIP3    H168809   2.247   2.537  15.655 -0.2322 -2.1890 -1.4507
15798TIP3    H268810   2.198   2.589  15.522 -1.2431  0.8090  0.0096
15799TIP3   OH268811   3.770   5.970   0.053 -0.0463  0.1592 -0.3132
15799TIP3    H168812   3.674   5.967   0.051 -0.1071 -1.4712  1.4313
15799TIP3    H268813   3.797   5.909  -0.017 -0.2742  0.4545 -0.6628
15800TIP3   OH268814   2.686   6.702  17.311 -0.7106 -0.3004 -0.0259
15800TIP3    H168815   2.769   6.749  17.306 -0.2785 -0.7972  1.6724
15800TIP3    H268816   2.625   6.756  17.261 -0.3709  2.3990  2.1804
15801TIP3   OH268817   3.531   1.558   0.094  0.4500 -0.0443 -0.0727
15801TIP3    H168818   3.482   1.576   0.175 -0.1268 -2.0088  0.0665
15801TIP3    H268819   3.613   1.518   0.123  1.5970  1.9515 -0.3779
15802TIP3   OH268820   1.289   1.446  15.854 -0.4695  0.2281 -0.1443
15802TIP3    H168821   1.278   1.448  15.949 -1.2185  0.2659 -0.2257
15802TIP3    H268822   1.315   1.535  15.831  0.4833  0.0297  0.1008
15803TIP3   OH268823   2.522   1.781   4.303 -0.4175  0.5578 -0.1353
15803TIP3    H168824   2.527   1.791   4.208 -0.5632  0.9496 -0.1029
15803TIP3    H268825   2.578   1.850   4.338 -0.6650  0.6583  0.0692
15804TIP3   OH268826   5.540   1.419   5.438 -0.1821  0.0031 -0.3857
15804TIP3    H168827   5.577   1.344   5.393 -2.3260 -2.1286  1.1632
15804TIP3    H268828   5.456   1.434   5.396 -0.9735 -0.2411  1.0515
15805TIP3   OH268829   3.997   5.621   3.480  0.3567  0.4280 -0.2346
15805TIP3    H168830   3.970   5.529   3.475  0.2906  0.4652 -0.5786
15805TIP3    H268831   4.090   5.620   3.456  0.2934  0.4830 -0.4800
15806TIP3   OH268832   0.256   4.106   5.893 -0.3573 -0.4445  0.2881
15806TIP3    H168833   0.299   4.171   5.837  0.4300 -2.5624 -1.7394
15806TIP3    H268834   0.166   4.102   5.859 -1.1398  1.1436  1.9526
15807TIP3   OH268835   2.531   5.720   6.658 -0.7170 -0.7101 -0.2352
15807TIP3    H168836   2.612   5.770   6.672 -0.9183 -0.4022 -0.1662
15807TIP3    H268837   2.463   5.786   6.646 -0.7819 -0.9541 -1.4108
15808TIP3   OH268838   6.537   1.000  15.629  0.2901 -0.0751 -0.0045
15808TIP3    H168839   6.617   0.959  15.597  1.7502  0.8854  2.1329
15808TIP3    H268840   6.546   1.092  15.604  0.9224  0.4562  2.0049
15809TIP3   OH268841   2.175   4.041  11.556 -0.3544 -0.8459 -0.2716
15809TIP3    H168842   2.094   4.011  11.514  1.0958 -1.2010 -3.0716
15809TIP3    H268843   2.205   4.114  11.502  1.6192 -1.2834  0.1514
15810TIP3   OH268844   5.026   0.698   5.699  0.0402 -0.3973 -0.1951
15810TIP3    H168845   5.048   0.789   5.681  0.3987 -0.8264 -2.1710
15810TIP3    H268846   5.111   0.654   5.707 -0.0825 -0.9512 -1.6430
15811TIP3   OH268847   3.869   0.123  14.778  0.6690  0.1848 -0.0809
15811TIP3    H168848   3.937   0.132  14.844  1.1119 -1.4110 -0.2777
15811TIP3    H268849   3.787   0.137  14.826  1.0804  1.7697  0.2193
15812TIP3   OH268850   0.882   2.380  14.396  0.4663  0.6896  0.2349
15812TIP3    H168851   0.940   2.439  14.348 -1.0768 -0.6635 -3.7882
15812TIP3    H268852   0.934   2.302  14.411  0.5593  0.5603 -0.6999
15813TIP3   OH268853   2.290   4.265   6.738  0.0206 -0.4253  0.5036
15813TIP3    H168854   2.261   4.174   6.728  0.1855 -0.5051  0.7447
15813TIP3    H268855   2.376   4.268   6.696 -0.0617 -0.3356  0.3385
15814TIP3   OH268856   0.407   5.673   5.595  0.1185 -0.1056  0.0584
15814TIP3    H168857   0.494   5.641   5.571  0.1591 -1.2834  1.5917
15814TIP3    H268858   0.350   5.647   5.523  0.8967 -0.0160 -0.5976
15815TIP3   OH268859   2.255   0.679  14.237  0.3272  0.0871  0.1743
15815TIP3    H168860   2.300   0.605  14.196 -2.3334 -0.9820 -1.0229
15815TIP3    H268861   2.247   0.744  14.168  0.8006  0.6611  0.6428
15816TIP3   OH268862   0.605   1.254   4.655 -0.0421 -0.3128  0.5577
15816TIP3    H168863   0.666   1.244   4.582  0.2736  1.5964  0.5183
15816TIP3    H268864   0.521   1.275   4.614 -0.1458 -0.4145  0.7125
15817TIP3   OH268865   1.650   2.206  13.063  0.4445 -0.5631 -0.1949
15817TIP3    H168866   1.746   2.212  13.064  0.4116  0.2041 -0.7475
15817TIP3    H268867   1.631   2.149  12.989  0.4343  0.6135 -1.1292
15818TIP3   OH268868   0.423   1.791   4.876 -0.5412 -0.1580  0.0825
15818TIP3    H168869   0.397   1.849   4.947  0.4980  0.5637 -0.1006
15818TIP3    H268870   0.421   1.704   4.914 -0.0530  0.2127  0.9993
15819TIP3   OH268871   0.488   4.301   4.590  0.1713  0.4971 -0.0290
15819TIP3    H168872   0.443   4.373   4.545  1.6683  1.6531  0.2293
15819TIP3    H268873   0.581   4.317   4.573  0.6492 -0.2736  1.6798
15820TIP3   OH268874   4.965   1.251   3.403 -0.7446  0.2177 -0.2455
15820TIP3    H168875   4.999   1.252   3.492  1.0379  1.1682 -0.8718
15820TIP3    H268876   4.920   1.167   3.395 -0.8104  0.0492  1.4794
15821TIP3   OH268877   3.639   5.173   4.219 -0.1445 -0.1348 -0.6996
15821TIP3    H168878   3.720   5.200   4.262 -0.7611 -0.4906  0.7183
15821TIP3    H268879   3.613   5.093   4.263 -0.6184 -0.7234 -1.9940
15822TIP3   OH268880   3.002   4.853  13.505  0.3798 -0.0892 -0.3797
15822TIP3    H168881   3.027   4.899  13.425  1.4105  1.8475  0.9442
15822TIP3    H268882   3.054   4.774  13.506  0.3954 -0.0977 -1.5864
15823TIP3   OH268883   2.694   5.933   6.684  0.2284 -0.4514 -0.2370
15823TIP3    H168884   2.695   5.966   6.594 -1.3294 -0.8373 -0.4204
15823TIP3    H268885   2.666   6.008   6.737  2.8752  0.3167  0.2210
15824TIP3   OH268886   5.535   0.930   5.330  0.0757 -0.3549 -0.1982
15824TIP3    H168887   5.441   0.928   5.350 -0.0739 -0.7978 -0.9264
15824TIP3    H268888   5.575   0.871   5.393 -0.3262 -1.3149 -0.8214
15825TIP3   OH268889   4.165   1.809  13.520  1.0804  0.9147 -0.3716
15825TIP3    H168890   4.080   1.772  13.497  1.3717  0.1450 -0.2492
15825TIP3    H268891   4.181   1.779  13.609  1.5494  0.9308 -0.4489
15826TIP3   OH268892   2.319   5.877  15.311  0.2826 -0.2111  0.1135
15826TIP3    H168893   2.262   5.802  15.293 -0.0722  0.1790 -0.3761
15826TIP3    H268894   2.377   5.882  15.235 -0.0794  0.3721 -0.1261
15827TIP3   OH268895   4.756   4.392  14.774  0.1443  0.2694 -0.1146
15827TIP3    H168896   4.681   4.444  14.744  1.3549  1.3651 -1.3231
15827TIP3    H268897   4.819   4.397  14.703  1.6402 -0.1269  1.1389
15828TIP3   OH268898   4.609   3.548   1.394  0.2125  0.1478  0.2119
15828TIP3    H168899   4.608   3.642   1.375 -0.9496  0.2329  0.6054
15828TIP3    H268900   4.701   3.527   1.410  0.7429  0.8314 -1.6969
15829TIP3   OH268901   2.111   3.800  13.365  0.3576  0.6581 -0.6280
15829TIP3    H168902   2.033   3.790  13.420 -0.0809  1.0896 -1.1629
15829TIP3    H268903   2.080   3.846  13.287  1.3808  1.9429 -0.3097
15830TIP3   OH268904   1.260   0.310   3.263 -0.4752 -0.2271  0.4300
15830TIP3    H168905   1.239   0.227   3.307  0.3230 -1.4384 -1.3271
15830TIP3    H268906   1.198   0.314   3.190 -0.6975  0.8927  0.6704
15831TIP3   OH268907   4.632   0.947   1.646 -0.6004  0.5645  0.3037
15831TIP3    H168908   4.614   1.002   1.570 -0.5889  2.0759  1.3661
15831TIP3    H268909   4.707   0.988   1.689 -0.6879 -0.1981  1.2207
15832TIP3   OH268910   2.773   2.236  14.559  0.4902 -1.2253 -0.2429
15832TIP3    H168911   2.832   2.225  14.634  1.6117 -1.4604 -1.1341
15832TIP3    H268912   2.743   2.147  14.539  0.0083 -1.1347  0.0558
15833TIP3   OH268913   2.762   5.229  11.893  0.3116 -0.1830 -0.8583
15833TIP3    H168914   2.699   5.283  11.845 -2.3386  0.2028  2.5943
15833TIP3    H268915   2.741   5.139  11.868 -1.2539 -0.0113 -0.3149
15834TIP3   OH268916   1.623   1.935  11.586  0.2902  0.3817 -0.4283
15834TIP3    H168917   1.692   1.895  11.533 -0.0841 -1.2052  0.2483
15834TIP3    H268918   1.645   1.912  11.676 -0.5317  0.7982 -0.1096
15835TIP3   OH268919   6.007   2.541   3.097 -0.4646  0.2274  0.2896
15835TIP3    H168920   5.982   2.616   3.043 -1.3441  1.6649  2.5461
15835TIP3    H268921   6.089   2.566   3.137 -0.0825 -0.6120  0.0718
15836TIP3   OH268922   4.734   0.645   4.424 -0.0215 -0.4384 -0.0666
15836TIP3    H168923   4.644   0.621   4.403  1.0615 -3.3884 -1.8590
15836TIP3    H268924   4.777   0.655   4.339  1.6356 -0.3047  0.7508
15837TIP3   OH268925   2.865   4.616   6.022  0.0391 -0.0290  0.0504
15837TIP3    H168926   2.794   4.551   6.023 -0.4032  0.4374  1.3089
15837TIP3    H268927   2.824   4.697   6.051  0.5299  0.9138 -1.7552
15838TIP3   OH268928   2.039   0.421   0.567  0.1121 -0.6520  0.0339
15838TIP3    H168929   1.956   0.460   0.593  0.6175 -0.0363  0.7514
15838TIP3    H268930   2.047   0.343   0.622  0.7534  0.1601  1.1326
15839TIP3   OH268931   5.195   2.539   2.977  0.3863 -0.5961  0.5382
15839TIP3    H168932   5.156   2.624   2.961 -0.7068 -1.2284 -0.2661
15839TIP3    H268933   5.283   2.545   2.940 -0.1329 -0.2090 -0.6840
15840TIP3   OH268934   5.242   5.657   3.870 -0.9978  0.3148  0.5908
15840TIP3    H168935   5.305   5.725   3.844  1.0580 -1.2650  1.1682
15840TIP3    H268936   5.211   5.620   3.787  1.4330 -1.0882  0.2227
15841TIP3   OH268937   5.842   2.347  11.644 -0.5651  0.6339 -0.0879
15841TIP3    H168938   5.933   2.318  11.631 -0.4347  0.5494  0.9563
15841TIP3    H268939   5.791   2.291  11.586 -0.1164 -0.4615  0.5359
15842TIP3   OH268940   0.619   2.227  12.905  0.3104 -0.6291 -0.5929
15842TIP3    H168941   0.680   2.253  12.837 -1.2737  1.7665 -1.2227
15842TIP3    H268942   0.532   2.235  12.865 -0.6043 -0.4540  1.2803
15843TIP3   OH268943   0.416   3.039   5.752  0.0756  0.1944 -0.0458
15843TIP3    H168944   0.458   3.102   5.693  0.4026 -1.1266 -1.2728
15843TIP3    H268945   0.394   3.090   5.830  0.3164  1.8298 -1.0019
15844TIP3   OH268946   4.633   6.293  16.281 -0.5052  0.1903  0.1223
15844TIP3    H168947   4.640   6.389  16.282  1.9876  0.0859  2.2402
15844TIP3    H268948   4.640   6.270  16.188 -2.6769  2.0704 -0.5986
15845TIP3   OH268949   1.598   2.904  15.473  0.0365 -0.0360 -0.4880
15845TIP3    H168950   1.542   2.876  15.401 -0.6142 -0.1348  0.0434
15845TIP3    H268951   1.679   2.932  15.431  0.0891 -1.1425 -1.1712
15846TIP3   OH268952   0.641   6.657  14.956 -0.5106  0.6172 -0.2154
15846TIP3    H168953   0.578   6.587  14.936  0.2955 -0.4192  0.7695
15846TIP3    H268954   0.709   6.614  15.008  0.6706  1.8646 -0.6766
15847TIP3   OH268955   4.543   6.303   0.055  0.5184 -0.0394  0.0421
15847TIP3    H168956   4.538   6.344  -0.031  1.2535 -0.6376 -0.2938
15847TIP3    H268957   4.497   6.364   0.113 -1.8502 -0.5966 -1.1103
15848TIP3   OH268958   1.595   1.008  15.066 -0.0756 -0.4448  0.3742
15848TIP3    H168959   1.622   0.993  15.157  2.1022 -0.6990 -0.2573
15848TIP3    H268960   1.556   1.095  15.066  0.9766  0.0532  1.3600
15849TIP3   OH268961   5.341   2.177   4.296 -0.6351  0.6384 -0.3528
15849TIP3    H168962   5.383   2.213   4.218  0.8609 -1.4668 -0.5870
15849TIP3    H268963   5.378   2.228   4.368  2.1463 -0.8252 -0.5941
15850TIP3   OH268964   4.454   3.897   1.073  0.5972  0.0573 -0.6550
15850TIP3    H168965   4.428   3.820   1.022 -1.6378 -0.2533  0.8228
15850TIP3    H268966   4.534   3.928   1.030  0.1181 -1.5303 -2.8954
15851TIP3   OH268967   6.031   0.242   3.465  0.3705  0.1359 -0.4247
15851TIP3    H168968   6.014   0.255   3.372 -2.2911  0.6651  0.0372
15851TIP3    H268969   5.957   0.189   3.496  1.7142 -0.8969  1.2185
15852TIP3   OH268970   1.625   2.294   4.129 -0.0426  0.2466  0.2251
15852TIP3    H168971   1.568   2.371   4.133  0.4420  0.7583 -1.5401
15852TIP3    H268972   1.648   2.276   4.220 -1.7221  1.0019  0.8293
15853TIP3   OH268973   4.300   6.229   3.017  0.2845  0.4669 -0.3436
15853TIP3    H168974   4.243   6.159   3.048 -0.6318  1.1239 -0.5157
15853TIP3    H268975   4.322   6.280   3.095 -1.2084  1.5303 -0.5823
15854TIP3   OH268976   4.305   0.302   2.605  0.3843 -0.1367  0.0951
15854TIP3    H168977   4.348   0.239   2.662  2.5107  1.6296  0.5784
15854TIP3    H268978   4.313   0.265   2.517  0.1676 -1.2514  0.5274
15855TIP3   OH268979   2.851   3.525   6.272 -0.4677 -0.0547 -0.0608
15855TIP3    H168980   2.917   3.455   6.267  1.4802  1.5904  0.8615
15855TIP3    H268981   2.784   3.500   6.208  0.3767 -2.4951 -0.0871
15856TIP3   OH268982   1.137   5.845  11.372  0.2757  0.0367  0.0430
15856TIP3    H168983   1.044   5.824  11.380  0.1160  0.8564  0.4732
15856TIP3    H268984   1.180   5.761  11.352 -0.6709 -0.1800 -1.1911
15857TIP3   OH268985   4.595   6.368   5.305 -0.3307 -0.4902 -0.2143
15857TIP3    H168986   4.605   6.280   5.341 -1.4307 -0.2001  0.8889
15857TIP3    H268987   4.666   6.419   5.345  1.6815 -1.2953 -2.5205
15858TIP3   OH268988   2.293   4.055   3.264 -0.0842 -0.0021 -0.2433
15858TIP3    H168989   2.228   4.038   3.333 -0.2588 -0.6938 -0.5659
15858TIP3    H268990   2.317   3.968   3.233  0.5703  0.2770 -0.5287
15859TIP3   OH268991   5.015   4.055  14.595  0.4050  0.3253  0.9213
15859TIP3    H168992   5.076   4.081  14.526 -0.5351  2.0082  0.6798
15859TIP3    H268993   5.044   3.967  14.621  2.5696  0.8458  0.4412
15860TIP3   OH268994   3.041   4.720  13.031  0.8262  0.2609  0.1393
15860TIP3    H168995   3.113   4.660  13.012  0.1675 -0.9101  1.2141
15860TIP3    H268996   2.963   4.667  13.025  0.3495  0.4158  3.1957
15861TIP3   OH268997   6.047   6.265   5.595  0.0874 -0.3623  0.3280
15861TIP3    H168998   6.098   6.282   5.674 -0.1556 -1.8481  0.8217
15861TIP3    H268999   6.101   6.207   5.543 -0.7479 -1.3323  0.5084
15862TIP3   OH269000   1.206   6.550   2.574 -0.3391  0.4629 -0.0145
15862TIP3    H169001   1.124   6.541   2.527 -0.3789  1.1319 -0.0810
15862TIP3    H269002   1.223   6.644   2.577  1.3113  0.2762 -1.5429
15863TIP3   OH269003   6.476   6.277  11.397  0.1200 -0.1462 -0.0173
15863TIP3    H169004   6.467   6.359  11.348 -3.6304 -0.0284  0.5409
15863TIP3    H269005   6.483   6.304  11.488  0.7000 -0.4397  0.0286
15864TIP3   OH269006   6.366   3.182  13.287 -0.2914  0.1493  0.3323
15864TIP3    H169007   6.294   3.246  13.291 -0.2938  0.1040  1.3583
15864TIP3    H269008   6.323   3.097  13.297 -0.0913  0.1418  1.3124
15865TIP3   OH269009   5.652   5.505   0.693  0.2938 -0.2270 -0.0284
15865TIP3    H169010   5.563   5.504   0.658  0.0402 -1.3596  0.6061
15865TIP3    H269011   5.657   5.589   0.740  0.0895  0.5397 -1.3236
15866TIP3   OH269012   0.295   5.155  13.698 -0.9211 -0.4260 -0.6956
15866TIP3    H169013   0.375   5.119  13.661 -0.4595 -0.9023  0.6959
15866TIP3    H269014   0.288   5.243  13.660  0.6022 -0.1348 -0.3649
15867TIP3   OH269015   0.166   2.632   5.647  0.2781 -0.6013  0.0560
15867TIP3    H169016   0.097   2.609   5.585  2.4624 -0.0455 -2.7892
15867TIP3    H269017   0.230   2.561   5.639  1.8448  0.7991 -0.3885
15868TIP3   OH269018   5.169   4.241   3.914 -0.5662  0.1660  0.3307
15868TIP3    H169019   5.211   4.155   3.918  0.4247  0.5106 -1.5557
15868TIP3    H269020   5.191   4.282   3.998  0.5926 -0.7098  0.4839
15869TIP3   OH269021   4.620   4.846  14.526 -0.1245 -0.2449  0.8867
15869TIP3    H169022   4.642   4.833  14.433 -1.4871  0.9094  0.3621
15869TIP3    H269023   4.686   4.908  14.557 -0.8485  0.9605  0.1093
15870TIP3   OH269024   3.726   2.131   1.382 -0.1180 -0.0405 -0.2188
15870TIP3    H169025   3.678   2.089   1.311  2.1772 -2.0773 -0.6714
15870TIP3    H269026   3.683   2.101   1.462  1.0293 -2.8211 -0.5620
15871TIP3   OH269027   2.109   4.721  13.031 -0.3754  0.0601  0.2158
15871TIP3    H169028   2.107   4.758  13.119 -2.6205  0.3183  0.1188
15871TIP3    H269029   2.127   4.796  12.974  1.9587 -0.2455  0.4385
15872TIP3   OH269030   0.384   1.494  13.681  0.0366 -0.2017 -0.1507
15872TIP3    H169031   0.337   1.550  13.743  0.1709  2.2189 -2.0756
15872TIP3    H269032   0.470   1.536  13.672 -0.2934  0.0686 -2.5890
15873TIP3   OH269033   0.036   1.687   2.417  0.7777 -0.5209 -0.4103
15873TIP3    H169034  -0.042   1.637   2.394 -0.5178  2.2122 -2.4209
15873TIP3    H269035   0.034   1.691   2.513 -0.0376 -2.6837 -0.2775
15874TIP3   OH269036   2.712   4.255  11.743  0.0222 -0.5965  0.4742
15874TIP3    H169037   2.711   4.165  11.777  0.1139 -0.9321 -0.4091
15874TIP3    H269038   2.622   4.269  11.711  0.1853 -0.6063  0.0079
15875TIP3   OH269039   1.840   6.714  16.139 -0.6765 -0.0802 -0.6066
15875TIP3    H169040   1.816   6.702  16.231 -0.3095  2.0167 -0.1814
15875TIP3    H269041   1.788   6.790  16.111  1.6501  1.4119 -1.1154
15876TIP3   OH269042   5.034   5.413   0.319  0.3041  0.5732 -0.8702
15876TIP3    H169043   5.071   5.373   0.398 -0.9361 -0.2937 -0.7113
15876TIP3    H269044   4.967   5.351   0.289 -1.1092  2.1359 -1.0862
15877TIP3   OH269045   0.178   4.292  17.035  0.4700  0.5763  0.7204
15877TIP3    H169046   0.187   4.387  17.037  0.6829  0.5445  1.8503
15877TIP3    H269047   0.194   4.264  17.125  0.5620 -0.5485  0.3737
15878TIP3   OH269048   6.292   3.759   3.597 -0.2348 -0.0981 -0.4050
15878TIP3    H169049   6.271   3.799   3.682  0.1375 -1.2732  0.2524
15878TIP3    H269050   6.310   3.834   3.540 -1.2393  0.7465  0.3310
15879TIP3   OH269051   2.993   1.656  11.935  0.2915 -0.5856  0.1034
15879TIP3    H169052   2.918   1.679  11.989  1.0744  1.2809  0.4787
15879TIP3    H269053   3.016   1.567  11.961 -0.8973 -0.6429  1.0097
15880TIP3   OH269054   3.548   3.759  15.925  0.8265  0.1269  0.4542
15880TIP3    H169055   3.614   3.695  15.951  2.1734  0.0409 -2.6972
15880TIP3    H269056   3.481   3.753  15.993  2.2110 -2.6114  1.7476
15881TIP3   OH269057   3.000   5.822  14.984  0.4380 -0.4180 -0.0493
15881TIP3    H169058   3.043   5.798  14.902 -0.5466  0.7397 -0.9380
15881TIP3    H269059   3.067   5.809  15.051  0.6291 -3.4724 -0.7063
15882TIP3   OH269060   3.739   1.058   3.264  0.7599  0.1311  0.0926
15882TIP3    H169061   3.703   1.066   3.176 -2.7046 -2.7589  0.9954
15882TIP3    H269062   3.680   1.110   3.319  0.3964 -1.2484  1.0933
15883TIP3   OH269063   5.606   1.326   4.376 -0.2350  0.7665 -0.1257
15883TIP3    H169064   5.646   1.400   4.421 -1.7177  0.8506  1.1375
15883TIP3    H269065   5.577   1.361   4.292 -0.3125  1.4381  0.1803
15884TIP3   OH269066   3.175   3.009  13.900 -0.0030 -0.5914 -0.1437
15884TIP3    H169067   3.231   2.933  13.909 -1.4082 -1.7368 -0.7067
15884TIP3    H269068   3.165   3.042  13.990  1.3069 -0.5191 -0.0054
15885TIP3   OH269069   4.207   6.163  11.951 -0.1248  0.6255 -0.9137
15885TIP3    H169070   4.245   6.087  11.908 -1.3007 -0.6298  0.1762
15885TIP3    H269071   4.137   6.192  11.892  0.4361  0.9786 -1.4116
15886TIP3   OH269072   2.439   1.371   4.667 -0.3419  0.5152  0.3576
15886TIP3    H169073   2.463   1.420   4.588 -2.0823 -0.6832 -0.9723
15886TIP3    H269074   2.371   1.424   4.709 -0.8544  0.1866 -0.0486
15887TIP3   OH269075   6.589   4.086   6.471 -0.3572 -0.0766  0.5089
15887TIP3    H169076   6.637   4.041   6.540  0.5022 -0.1927 -0.1484
15887TIP3    H269077   6.629   4.172   6.465  1.2572 -0.8909 -1.4745
15888TIP3   OH269078   2.675   1.734   1.874 -0.0712  0.5417  0.4476
15888TIP3    H169079   2.607   1.711   1.811  0.8660  1.7105 -1.0540
15888TIP3    H269080   2.735   1.659   1.874  0.8205  1.2025 -1.3726
15889TIP3   OH269081   6.724   2.031  14.087  0.9398 -0.0299 -0.6014
15889TIP3    H169082   6.690   2.082  14.013  0.4056 -0.9450 -1.0048
15889TIP3    H269083   6.818   2.044  14.084  0.6888  2.9906  0.8352
15890TIP3   OH269084   0.967   5.209  13.502  0.1490 -0.1272 -0.0067
15890TIP3    H169085   0.907   5.150  13.457  0.3550 -0.9695  0.8064
15890TIP3    H269086   0.915   5.244  13.575  0.2678  0.1008 -0.0312
15891TIP3   OH269087   3.297   5.304  11.477  0.4359 -0.5224 -0.4555
15891TIP3    H169088   3.241   5.366  11.430  1.3278 -0.5876 -1.6338
15891TIP3    H269089   3.362   5.359  11.520  0.1185 -0.5238  0.0361
15892TIP3   OH269090   2.138   4.718   5.930 -0.1755  0.7197  0.2017
15892TIP3    H169091   2.108   4.651   5.991  0.4645  2.6508  2.8034
15892TIP3    H269092   2.110   4.801   5.969  0.6821  2.1158 -1.9313
15893TIP3   OH269093   4.255   5.299   0.945 -0.8024  0.5673 -0.0956
15893TIP3    H169094   4.222   5.388   0.929 -1.4296  0.1201 -1.5121
15893TIP3    H269095   4.249   5.256   0.860  2.4606  0.0748 -0.2001
15894TIP3   OH269096   2.480   3.149  11.428  0.0360  0.0434 -0.3416
15894TIP3    H169097   2.512   3.189  11.348  0.3461 -1.7028 -1.1303
15894TIP3    H269098   2.529   3.193  11.498  0.9577  0.4403 -1.2184
15895TIP3   OH269099   4.044   6.268  14.973 -0.1794  0.5101 -0.5354
15895TIP3    H169100   3.983   6.227  14.912  0.7459  1.9321 -2.5197
15895TIP3    H269101   4.042   6.361  14.950  1.6694  0.7910  0.2749
15896TIP3   OH269102   2.097   2.754   1.650  0.2680 -0.3951 -0.7648
15896TIP3    H169103   2.152   2.812   1.703 -0.6798  1.0298 -1.2901
15896TIP3    H269104   2.121   2.665   1.678  1.1548  0.2681  0.6542
15897TIP3   OH269105   3.726   1.932   3.899  0.4276  0.1000 -0.1150
15897TIP3    H169106   3.743   2.022   3.871  2.6379  0.6586  2.6142
15897TIP3    H269107   3.656   1.941   3.963  0.5304 -0.1705  0.0318
15898TIP3   OH269108   0.701   3.950   2.544  0.2573 -0.3343 -0.1742
15898TIP3    H169109   0.663   3.975   2.628  0.7044 -0.9345  0.2120
15898TIP3    H269110   0.642   3.884   2.509  1.5676 -2.2386  1.0286
15899TIP3   OH269111   1.349   2.482   6.134 -0.3964 -0.5806  0.0077
15899TIP3    H169112   1.385   2.543   6.199 -0.4434  1.3270 -1.6681
15899TIP3    H269113   1.278   2.438   6.179  0.0722  0.1073  1.4869
15900TIP3   OH269114   6.526   4.246  17.107  0.2426  0.1042  0.2387
15900TIP3    H169115   6.601   4.209  17.153  0.4038  1.0056  0.7268
15900TIP3    H269116   6.563   4.314  17.051 -0.3133  1.4673  1.4556
15901TIP3   OH269117   3.388   4.276  12.928  0.1055 -0.1704  0.0896
15901TIP3    H169118   3.414   4.330  13.003  1.3493  0.4323 -0.7330
15901TIP3    H269119   3.471   4.239  12.897 -0.2000  0.5836 -1.7169
15902TIP3   OH269120   5.243   1.894  12.462 -0.5348 -0.2184  0.2304
15902TIP3    H169121   5.319   1.843  12.489 -1.1652 -1.3826 -0.0945
15902TIP3    H269122   5.274   1.946  12.388 -0.3053 -1.5311 -0.6470
15903TIP3   OH269123   4.030   4.761  13.201 -0.4540  0.1571 -0.1624
15903TIP3    H169124   4.072   4.819  13.265 -0.5612 -0.5626  0.5672
15903TIP3    H269125   4.050   4.673  13.232 -2.7365 -0.2203  0.3877
15904TIP3   OH269126   3.166   4.944  12.913 -0.3773 -0.4318  0.3058
15904TIP3    H169127   3.135   4.925  12.824  0.3427  0.1277 -0.0798
15904TIP3    H269128   3.132   4.873  12.966 -0.9597 -0.6886 -0.3902
15905TIP3   OH269129   5.082   5.885   4.283 -1.1562  0.1669 -0.2296
15905TIP3    H169130   5.133   5.859   4.360 -1.4636  0.0742 -0.0566
15905TIP3    H269131   5.034   5.963   4.311 -2.4351 -0.7291  0.1666
15906TIP3   OH269132   2.422   0.490  14.147  0.5781  0.7870 -0.3101
15906TIP3    H169133   2.496   0.549  14.132  1.2028 -0.0515 -0.5922
15906TIP3    H269134   2.454   0.429  14.214  0.8287 -0.7224 -1.7541
15907TIP3   OH269135   2.188   4.113  13.450 -0.0873  0.3319  0.2525
15907TIP3    H169136   2.219   4.066  13.528  0.3554 -1.6752 -1.0576
15907TIP3    H269137   2.267   4.150  13.411  0.1138 -0.9818 -0.6635
15908TIP3   OH269138   4.819   5.110   2.843 -0.2463  0.0899 -0.1843
15908TIP3    H169139   4.904   5.113   2.799 -0.5428 -2.2664 -1.0442
15908TIP3    H269140   4.760   5.072   2.778 -1.2358 -1.2449  1.4136
15909TIP3   OH269141   5.136   5.921  13.291  0.3653 -0.3758 -0.3118
15909TIP3    H169142   5.152   6.007  13.252  1.7299 -0.8337 -0.8090
15909TIP3    H269143   5.213   5.904  13.344 -1.7291  0.5687  3.4261
15910TIP3   OH269144   4.256   0.308  12.713  0.3589 -0.7120 -0.0636
15910TIP3    H169145   4.219   0.286  12.627  1.1272  0.4977 -0.7445
15910TIP3    H269146   4.229   0.399  12.727 -0.9965 -1.3409  1.6846
15911TIP3   OH269147   4.852   4.528  16.546 -0.0941  0.1110 -0.5854
15911TIP3    H169148   4.831   4.539  16.638  0.7846 -0.9728 -0.2297
15911TIP3    H269149   4.909   4.602  16.525  1.0053 -0.5007  0.1791
15912TIP3   OH269150   0.727   1.795   6.139  0.1159  0.0263  0.4975
15912TIP3    H169151   0.768   1.746   6.210 -0.2670 -0.8766  0.1046
15912TIP3    H269152   0.785   1.870   6.126  1.7209 -1.2467 -0.0988
15913TIP3   OH269153   6.699   0.296  16.424 -1.0472  0.0204 -0.1529
15913TIP3    H169154   6.756   0.373  16.428 -3.7394  2.1522  0.1906
15913TIP3    H269155   6.675   0.279  16.515  0.3467 -2.0200 -0.0863
15914TIP3   OH269156   0.430   1.804   0.497 -0.0687  0.5362  0.6545
15914TIP3    H169157   0.337   1.804   0.519  0.3755 -0.0745  2.6757
15914TIP3    H269158   0.470   1.745   0.560  1.5894  0.0516 -0.7648
15915TIP3   OH269159   4.732   1.351  15.668 -0.2031 -0.5119  0.0718
15915TIP3    H169160   4.727   1.375  15.761 -0.9060 -0.6976  0.0879
15915TIP3    H269161   4.825   1.334  15.652 -0.0469 -0.2432  0.6822
15916TIP3   OH269162   1.656   1.616   1.685  0.2654  0.0282  0.4917
15916TIP3    H169163   1.637   1.708   1.702 -3.1803 -0.4056 -0.3718
15916TIP3    H269164   1.704   1.587   1.763  1.5984  2.5324  0.7014
15917TIP3   OH269165   5.100   5.964  11.939  0.1493  0.0079 -0.1662
15917TIP3    H169166   5.117   6.036  12.000 -1.5899  2.6497 -2.5422
15917TIP3    H269167   5.013   5.931  11.964  0.3441 -0.3271  0.0700
15918TIP3   OH269168   0.330   4.165  16.736 -0.5798 -0.4805 -0.7650
15918TIP3    H169169   0.394   4.236  16.746 -2.4427  0.9476  2.6510
15918TIP3    H269170   0.383   4.090  16.710  2.4057  0.8540  0.8380
15919TIP3   OH269171   3.646   5.213  11.139 -0.5056 -0.3548  0.3764
15919TIP3    H169172   3.654   5.146  11.070 -0.2527 -0.0949  0.1480
15919TIP3    H269173   3.575   5.182  11.195 -2.2404  0.4970 -1.2355
15920TIP3   OH269174   6.132   6.188  15.733  0.0937 -0.5383  0.0860
15920TIP3    H169175   6.116   6.282  15.726  2.2256 -0.0768  0.7014
15920TIP3    H269176   6.184   6.166  15.656  0.2435 -1.0395  0.3201
15921TIP3   OH269177   0.982   2.713   4.554 -0.2678  0.1554 -0.9835
15921TIP3    H169178   0.891   2.727   4.530 -0.0726  0.2848 -1.6551
15921TIP3    H269179   0.986   2.622   4.584 -1.2660  0.9955  2.1077
15922TIP3   OH269180   3.481   4.880   5.467 -0.0802  0.3263  0.2579
15922TIP3    H169181   3.411   4.869   5.404 -0.0947  2.5514 -0.1862
15922TIP3    H269182   3.561   4.884   5.414 -0.0135  1.4330  0.4197
15923TIP3   OH269183   0.461   5.998  13.516 -0.1004 -0.5871  0.0142
15923TIP3    H169184   0.417   5.971  13.435  3.0708 -0.5583 -1.8825
15923TIP3    H269185   0.471   6.092  13.508 -0.6029 -0.4379  0.9584
15924TIP3   OH269186   1.378   2.286   5.552 -0.1148  0.5088 -0.2539
15924TIP3    H169187   1.371   2.375   5.584  0.6673  0.4629  0.0764
15924TIP3    H269188   1.449   2.247   5.603 -0.0988 -0.1425 -0.7466
15925TIP3   OH269189   0.146   3.397  17.144  0.3914  0.2378 -0.0199
15925TIP3    H169190   0.211   3.381  17.211  0.6299  1.0099 -0.0649
15925TIP3    H269191   0.164   3.330  17.077 -1.2671 -2.0438  1.6530
15926TIP3   OH269192   4.360   4.241  14.686  0.0129  0.2664 -0.1114
15926TIP3    H169193   4.454   4.241  14.707 -0.1412  1.6764  0.6859
15926TIP3    H269194   4.324   4.170  14.740  0.4403  0.5283  0.5363
15927TIP3   OH269195   2.743   0.654  15.475  0.3319  0.4297  0.6277
15927TIP3    H169196   2.730   0.738  15.518 -0.4390  0.0419  1.1618
15927TIP3    H269197   2.660   0.635  15.432  1.0687  0.8133 -1.0790
15928TIP3   OH269198   3.772   1.285   1.039 -0.1555  0.8376 -0.2991
15928TIP3    H169199   3.734   1.233   1.110  1.4572  0.8745  0.6362
15928TIP3    H269200   3.848   1.234   1.010  1.1617  2.3912  0.3017
15929TIP3   OH269201   5.224   1.549  11.978  0.3181  0.0562 -0.2370
15929TIP3    H169202   5.200   1.508  12.062  0.5024  1.1489  0.3688
15929TIP3    H269203   5.313   1.519  11.962  0.2182 -0.3041 -0.1421
15930TIP3   OH269204   5.675   6.348   4.520  0.2157 -0.5850 -0.0192
15930TIP3    H169205   5.660   6.305   4.605 -1.5095  0.0117  0.0266
15930TIP3    H269206   5.597   6.325   4.469  0.9113 -0.3546 -1.2081
15931TIP3   OH269207   4.448   5.564  10.989 -0.7704  0.9014  0.1705
15931TIP3    H169208   4.372   5.520  10.951 -0.7469 -0.4292  1.5806
15931TIP3    H269209   4.428   5.569  11.082  0.8108  0.6633  0.5430
15932TIP3   OH269210   5.637   2.439   3.159 -0.6250 -0.7217 -0.3566
15932TIP3    H169211   5.640   2.401   3.247 -0.3030  2.3300  1.0701
15932TIP3    H269212   5.678   2.374   3.103  0.5962 -2.1165  2.0191
15933TIP3   OH269213   4.180   6.442   5.153  0.5450  0.1835 -0.9092
15933TIP3    H169214   4.203   6.451   5.061  1.2625 -1.0110 -0.8623
15933TIP3    H269215   4.256   6.400   5.193 -0.7427 -1.6571 -0.2790
15934TIP3   OH269216   6.050   4.482  13.173  0.2935  0.2896 -0.5697
15934TIP3    H169217   6.102   4.531  13.237 -0.8171 -0.8529  1.3158
15934TIP3    H269218   5.959   4.494  13.202 -0.0949 -1.8218 -0.7930
15935TIP3   OH269219   0.617   4.939   1.234 -0.1486 -0.5870 -0.2786
15935TIP3    H169220   0.662   4.985   1.164 -0.2949 -0.3250 -0.2041
15935TIP3    H269221   0.602   4.851   1.200  1.6612 -1.1245  0.2195
15936TIP3   OH269222   2.896   3.005   1.405  0.5959  0.1159 -0.0179
15936TIP3    H169223   2.962   2.940   1.430  2.3591  0.9356 -2.2338
15936TIP3    H269224   2.850   2.965   1.331  0.6850  0.7768 -0.4367
15937TIP3   OH269225   4.686   0.854   1.130  0.1914 -0.1257  0.1984
15937TIP3    H169226   4.665   0.815   1.045  0.9798 -0.1852  0.0320
15937TIP3    H269227   4.603   0.850   1.179 -0.4447  0.4883 -0.7833
15938TIP3   OH269228   3.182   4.740  10.505 -0.3668 -0.7462  0.1795
15938TIP3    H169229   3.121   4.673  10.536 -1.8677  0.9021  0.9938
15938TIP3    H269230   3.233   4.764  10.583 -0.7999  0.0076  0.2393
15939TIP3   OH269231   3.196   6.308  13.117  0.1899  0.4136  0.0486
15939TIP3    H169232   3.200   6.213  13.124 -1.9925  0.2121 -0.6815
15939TIP3    H269233   3.240   6.340  13.196  2.0469 -1.1367 -0.2835
15940TIP3   OH269234   5.637   0.742   3.132 -0.0815 -0.4851 -0.2150
15940TIP3    H169235   5.614   0.812   3.071 -1.5451 -2.9089 -2.6676
15940TIP3    H269236   5.585   0.760   3.211  0.7244  1.9173 -0.1528
15941TIP3   OH269237   3.320   5.403   0.954  0.3219  0.4043  0.0514
15941TIP3    H169238   3.314   5.434   0.864 -0.3977  2.4658  0.7298
15941TIP3    H269239   3.399   5.350   0.956  0.4888  0.5196 -1.7299
15942TIP3   OH269240   4.681   5.233   0.071 -0.7029  0.2518  0.5835
15942TIP3    H169241   4.722   5.315   0.046 -0.8940  0.4676  0.9785
15942TIP3    H269242   4.602   5.228   0.016  0.5245 -0.8226 -1.1795
15943TIP3   OH269243   3.976   4.810  11.674  0.7546 -0.1341 -0.2573
15943TIP3    H169244   3.940   4.768  11.752 -0.3436 -0.5100 -0.9382
15943TIP3    H269245   4.031   4.743  11.633 -0.3056 -0.6677 -0.8766
15944TIP3   OH269246   2.778   6.487  17.130  0.1893  0.6663 -0.0882
15944TIP3    H169247   2.814   6.543  17.061  3.8628 -0.1266  0.9976
15944TIP3    H269248   2.747   6.549  17.197  2.3391  1.5256  0.2012
15945TIP3   OH269249   0.952   6.308  12.875 -0.0298  0.3167  0.3455
15945TIP3    H169250   0.966   6.399  12.899  1.7419 -0.2893  1.8643
15945TIP3    H269251   0.928   6.311  12.783  1.1966  2.2410  0.0279
15946TIP3   OH269252   5.488   0.280  13.210 -0.2641 -0.5347  0.0395
15946TIP3    H169253   5.550   0.233  13.266 -1.5210  0.7527  2.6764
15946TIP3    H269254   5.542   0.315  13.140  2.3943  1.6531  2.9057
15947TIP3   OH269255   6.352   4.779  15.950 -0.1122 -0.9332  0.1603
15947TIP3    H169256   6.322   4.756  16.038 -0.3641 -0.4315  0.2102
15947TIP3    H269257   6.431   4.831  15.964 -0.2599 -0.6906  0.0979
15948TIP3   OH269258   6.056   3.009  14.231  0.0590  0.3859 -0.3212
15948TIP3    H169259   6.014   3.060  14.300  3.0522 -0.2777  2.1925
15948TIP3    H269260   6.088   3.075  14.169 -1.7775  1.0596 -0.6047
15949TIP3   OH269261   1.987   2.225   0.544  0.1142  0.6196 -0.7299
15949TIP3    H169262   1.979   2.157   0.610 -0.9077  1.1274 -0.2975
15949TIP3    H269263   2.077   2.256   0.552 -0.0994  0.9346  0.7088
15950TIP3   OH269264   0.863   6.605  14.477  0.1829 -0.5355 -0.2288
15950TIP3    H169265   0.921   6.649  14.538 -0.8194  0.8538 -0.2273
15950TIP3    H269266   0.904   6.520  14.461  0.5652 -0.8896  2.2384
15951TIP3   OH269267   6.352   1.865  16.585 -0.3031 -0.3786 -0.0907
15951TIP3    H169268   6.307   1.948  16.604 -0.2608 -0.6102  1.0756
15951TIP3    H269269   6.436   1.872  16.631 -0.0435 -0.8382 -0.4767
15952TIP3   OH269270   3.105   4.294  13.985  0.6840  0.4393 -0.3898
15952TIP3    H169271   3.068   4.297  14.073 -0.3431 -2.3122 -0.6464
15952TIP3    H269272   3.029   4.297  13.927  1.3827  3.6834 -1.3825
15953TIP3   OH269273   4.231   5.230  11.704  0.7880 -0.1495  0.1452
15953TIP3    H169274   4.154   5.268  11.664  1.5810  1.5455  0.1596
15953TIP3    H269275   4.242   5.145  11.660  0.2040  0.5628 -1.4423
15954TIP3   OH269276   3.007   1.962   3.099 -0.1034 -0.3307 -0.7338
15954TIP3    H169277   3.035   2.036   3.045  1.2334 -0.1264  0.1975
15954TIP3    H269278   3.067   1.962   3.173 -0.3531 -2.0887 -0.4812
15955TIP3   OH269279   3.865   1.708  14.239  0.8056  0.1968  0.3964
15955TIP3    H169280   3.821   1.677  14.319  1.5431 -1.7665  0.1079
15955TIP3    H269281   3.876   1.802  14.253  0.6332 -0.0319  2.4788
15956TIP3   OH269282   3.640   4.460  17.270  0.2396 -0.1732 -0.4566
15956TIP3    H169283   3.613   4.552  17.265 -0.5565 -0.4299 -1.0102
15956TIP3    H269284   3.570   4.417  17.318  1.0358 -0.3427  0.5907
15957TIP3   OH269285   1.010   1.370  12.781  0.3258  0.0076 -1.1100
15957TIP3    H169286   1.057   1.441  12.826 -1.8540  1.9487 -1.7076
15957TIP3    H269287   0.974   1.316  12.852 -3.0035  2.9698 -0.2394
15958TIP3   OH269288   3.737   0.186  15.954  0.0656 -0.2770  0.6308
15958TIP3    H169289   3.741   0.110  16.012 -1.4416 -0.6263  0.3061
15958TIP3    H269290   3.656   0.231  15.979  0.4517  0.7170  0.1720
15959TIP3   OH269291   5.958   2.074  11.127  0.5843 -0.5715  0.2451
15959TIP3    H169292   5.988   1.983  11.123 -0.9733 -1.1679  0.9421
15959TIP3    H269293   5.929   2.094  11.038 -1.8154 -1.8341  0.6419
15960TIP3   OH269294   0.128   4.590  12.970  0.2094  0.1474  0.0777
15960TIP3    H169295   0.062   4.538  12.925  0.4455  0.4191 -0.6061
15960TIP3    H269296   0.116   4.571  13.063 -0.6619  0.0035 -0.0598
15961TIP3   OH269297   5.146   4.522   6.425 -0.1967  0.5148 -0.2234
15961TIP3    H169298   5.152   4.448   6.365 -0.8518  0.7367 -0.5751
15961TIP3    H269299   5.098   4.488   6.501  1.9607 -0.2062  0.9103
15962TIP3   OH269300   0.689   1.327   5.232  0.1478 -0.4972  0.5209
15962TIP3    H169301   0.735   1.384   5.170  1.0751  0.5294  2.0858
15962TIP3    H269302   0.751   1.314   5.304 -1.7574  0.4845  2.4584
15963TIP3   OH269303   6.149   5.523   0.751 -0.4818  0.0238  0.3125
15963TIP3    H169304   6.111   5.559   0.671 -1.2240  0.0906  0.6833
15963TIP3    H269305   6.116   5.579   0.821  0.4202  0.1629  0.6432
15964TIP3   OH269306   5.399   3.258  16.973 -0.4360 -0.8085 -0.2651
15964TIP3    H169307   5.303   3.262  16.969 -0.4229 -0.6178 -0.4253
15964TIP3    H269308   5.418   3.232  17.063 -0.6108  0.4927  0.1834
15965TIP3   OH269309   4.714   0.089   3.767 -0.0825 -0.7706  0.6280
15965TIP3    H169310   4.620   0.110   3.765 -0.1974 -1.2960 -1.4124
15965TIP3    H269311   4.747   0.137   3.843 -2.1792 -1.4293  2.0576
15966TIP3   OH269312   3.834   2.098   6.621 -0.3962  0.2333  0.0645
15966TIP3    H169313   3.748   2.134   6.597  0.3245  0.5457 -2.3212
15966TIP3    H269314   3.842   2.018   6.569  0.6252  0.0163  0.5300
15967TIP3   OH269315   0.782   3.990   3.335 -0.0998  0.2001  0.2355
15967TIP3    H169316   0.705   3.937   3.354 -0.9967  0.4823 -2.3164
15967TIP3    H269317   0.852   3.950   3.387 -1.3603 -1.7239  0.5480
15968TIP3   OH269318   4.519   6.569   4.962  0.3863 -0.3517 -0.8843
15968TIP3    H169319   4.581   6.599   5.028 -0.4021 -1.7573  0.5370
15968TIP3    H269320   4.555   6.486   4.932  0.5153  0.0732 -1.9592
15969TIP3   OH269321   3.803   1.529   3.525  0.7444 -0.3152  0.0538
15969TIP3    H169322   3.807   1.439   3.557  0.4188 -0.4900 -0.3824
15969TIP3    H269323   3.893   1.561   3.529  0.8957 -0.7389 -0.0035
15970TIP3   OH269324   3.622   5.181  13.383  0.2685 -0.5504 -0.4229
15970TIP3    H169325   3.628   5.136  13.468 -0.7354 -0.2713 -0.1894
15970TIP3    H269326   3.667   5.264  13.396 -0.3386 -0.2800  0.0090
15971TIP3   OH269327   2.533   5.901   3.763  0.4544 -0.4246 -0.2902
15971TIP3    H169328   2.480   5.961   3.711  2.6989  0.1983 -2.0102
15971TIP3    H269329   2.513   5.814   3.728  1.4095 -0.0762 -1.7636
15972TIP3   OH269330   3.886   4.675  13.480  0.0173 -0.5066 -0.1846
15972TIP3    H169331   3.980   4.661  13.486  0.2485  1.5145  1.8998
15972TIP3    H269332   3.848   4.601  13.529  0.5807 -0.6450  0.0526
15973TIP3   OH269333   0.027   6.415  12.086  0.2420  0.3869 -0.2764
15973TIP3    H169334  -0.067   6.393  12.083  0.2313  0.4603 -0.4648
15973TIP3    H269335   0.034   6.474  12.161  0.1624  0.2621 -0.1688
15974TIP3   OH269336   3.916   2.663   0.863 -0.0194  0.5864 -0.0430
15974TIP3    H169337   3.939   2.578   0.899 -1.1772  0.3526  0.1773
15974TIP3    H269338   3.861   2.704   0.930 -1.2063  0.6349 -1.0032
15975TIP3   OH269339   0.562   1.517   0.691  0.2770  0.4234  0.3260
15975TIP3    H169340   0.545   1.573   0.766 -1.2125 -0.5144  0.7378
15975TIP3    H269341   0.620   1.448   0.725  0.4298  0.5571  0.3406
15976TIP3   OH269342   1.572   6.226  11.422  0.2195 -0.5986 -0.2853
15976TIP3    H169343   1.541   6.249  11.334 -0.1729 -1.6379 -0.4338
15976TIP3    H269344   1.665   6.206  11.409  0.0878 -1.0766 -0.5378
15977TIP3   OH269345   1.741   5.212   4.316  0.3560  0.3926  0.5926
15977TIP3    H169346   1.768   5.232   4.227  1.0957  0.1402  0.7538
15977TIP3    H269347   1.650   5.242   4.321  0.6221  1.3190  0.0554
15978TIP3   OH269348   4.887   5.014  11.600  0.3509 -0.1382 -0.1003
15978TIP3    H169349   4.876   5.087  11.662  1.1544  0.6104 -0.8203
15978TIP3    H269350   4.833   4.944  11.636 -0.3301  0.7684  0.6830
15979TIP3   OH269351   0.273   2.987  15.409 -0.1842 -0.0939 -0.1442
15979TIP3    H169352   0.315   2.963  15.492  0.3949  0.8898 -0.1350
15979TIP3    H269353   0.324   3.062  15.378 -0.7477 -0.1014 -1.1120
15980TIP3   OH269354   2.144   5.462  14.736 -0.1916  0.1063  0.1670
15980TIP3    H169355   2.224   5.455  14.788  0.8958  1.1371 -1.2766
15980TIP3    H269356   2.094   5.531  14.779  0.5730  0.7639  0.0304
15981TIP3   OH269357   3.809   0.157  13.938  0.2330 -0.1719 -0.6032
15981TIP3    H169358   3.758   0.124  13.863 -0.7558  0.6117 -0.3075
15981TIP3    H269359   3.863   0.227  13.901 -0.7429  0.6674 -0.4963
15982TIP3   OH269360   3.547   5.674   5.362 -0.2735 -0.1496  0.3956
15982TIP3    H169361   3.558   5.760   5.322 -1.0361  0.0567  0.6231
15982TIP3    H269362   3.493   5.690   5.440 -0.4175 -0.8276  0.4422
15983TIP3   OH269363   6.077   3.066   4.044  0.0590  0.6941  0.0724
15983TIP3    H169364   6.121   3.131   3.989 -1.1028  1.9002  0.5100
15983TIP3    H269365   5.984   3.081   4.028 -0.2607  0.1289  1.3310
15984TIP3   OH269366   1.093   5.774   3.059 -0.2851  0.2896  0.1524
15984TIP3    H169367   1.048   5.703   3.014 -0.6578  0.0092  0.9382
15984TIP3    H269368   1.052   5.854   3.025  1.3606  0.2715 -2.0748
15985TIP3   OH269369   5.923   0.802   5.117 -0.0175  0.4182  0.3157
15985TIP3    H169370   5.925   0.718   5.071  1.3919 -0.6387  2.1549
15985TIP3    H269371   5.830   0.823   5.124 -0.3163 -0.0989 -1.6822
15986TIP3   OH269372   3.820   1.343  11.951 -0.0042 -0.6319  0.0065
15986TIP3    H169373   3.734   1.345  11.992  0.3055  1.0022  0.6367
15986TIP3    H269374   3.806   1.379  11.863  0.1540  0.4644  0.4106
15987TIP3   OH269375   4.223   5.459   2.005  0.7157 -0.5147 -0.3014
15987TIP3    H169376   4.237   5.427   2.094 -1.5815  0.4894  0.5050
15987TIP3    H269377   4.209   5.379   1.953 -2.3755 -1.0818  1.1705
15988TIP3   OH269378   6.652   3.551   3.222 -0.1025 -0.8851 -0.0323
15988TIP3    H169379   6.640   3.581   3.312 -0.6117  0.2830 -0.4660
15988TIP3    H269380   6.616   3.463   3.221  1.4844 -1.5994  1.3067
15989TIP3   OH269381   0.512   5.057  13.349 -0.5234  0.9222  0.1953
15989TIP3    H169382   0.576   4.990  13.370 -2.0476 -0.1499  1.7359
15989TIP3    H269383   0.519   5.121  13.420 -1.5809  0.4485  0.7449
15990TIP3   OH269384   0.062   5.382   1.418 -0.0542 -0.0665 -0.1969
15990TIP3    H169385   0.083   5.318   1.485  1.5456  1.5129  0.8970
15990TIP3    H269386   0.127   5.368   1.349 -1.7094 -1.7057 -1.5443
15991TIP3   OH269387   0.796   1.722   1.204 -0.6565  0.6375  0.6225
15991TIP3    H169388   0.788   1.818   1.211 -0.1361  0.6920  0.5343
15991TIP3    H269389   0.868   1.709   1.141 -0.1486  0.1983  1.2808
15992TIP3   OH269390   2.725   5.197   2.690  0.7917  0.4612 -0.3220
15992TIP3    H169391   2.819   5.193   2.711  0.4145 -1.8271  1.2058
15992TIP3    H269392   2.681   5.179   2.773 -0.9134 -1.9539 -1.6336
15993TIP3   OH269393   3.491   4.001  13.686 -0.1140 -0.3355 -0.0366
15993TIP3    H169394   3.483   3.930  13.749  1.7750  0.9032  1.7511
15993TIP3    H269395   3.419   4.060  13.708 -0.4468 -0.7069 -0.1302
15994TIP3   OH269396   2.616   1.017  16.571  0.3770 -0.3997  0.2909
15994TIP3    H169397   2.616   0.963  16.492  0.6576 -0.0756  0.0668
15994TIP3    H269398   2.533   0.995  16.615 -1.9385  2.4846 -2.2276
15995TIP3   OH269399   4.043   1.584  15.578  0.5633  0.0832 -0.2682
15995TIP3    H169400   3.999   1.589  15.493  0.3846 -2.2105 -0.3772
15995TIP3    H269401   4.111   1.518  15.566  0.7949 -0.0020  1.2662
15996TIP3   OH269402   0.859   6.356   0.144 -0.3207  0.7868 -0.1737
15996TIP3    H169403   0.781   6.301   0.132 -0.6134  0.9096  1.0508
15996TIP3    H269404   0.842   6.405   0.224  1.0445  0.7945  0.1336
15997TIP3   OH269405   6.667   5.501  13.232  0.7734  0.0373 -0.6720
15997TIP3    H169406   6.751   5.457  13.222  0.9471  0.2311 -0.1460
15997TIP3    H269407   6.647   5.536  13.145  0.6240 -1.0716 -1.0957
15998TIP3   OH269408   6.153   5.597  14.605  0.3099 -0.1236 -0.0435
15998TIP3    H169409   6.224   5.553  14.651 -0.0882 -0.3366  0.3683
15998TIP3    H269410   6.197   5.666  14.555  0.9437 -1.0216 -0.7614
15999TIP3   OH269411   5.653   0.474  13.583 -0.5596 -0.4479 -0.3370
15999TIP3    H169412   5.681   0.397  13.535  2.4830 -0.3128  1.0282
15999TIP3    H269413   5.708   0.476  13.661 -0.4888  3.0766 -0.2802
16000TIP3   OH269414   1.458   1.565  13.469  0.0331 -1.1005  0.7263
16000TIP3    H169415   1.409   1.554  13.550 -0.1067  0.7086  0.9245
16000TIP3    H269416   1.403   1.623  13.416  0.5260 -1.5692 -0.3351
16001TIP3   OH269417   0.187   4.264   2.046 -0.7356  0.0229  0.7795
16001TIP3    H169418   0.196   4.195   2.111 -0.2334 -0.6325  0.0278
16001TIP3    H269419   0.266   4.258   1.993 -0.5742  1.3293  0.8390
16002TIP3   OH269420   2.857   3.072   1.661 -0.2186  0.3112  0.2054
16002TIP3    H169421   2.823   3.045   1.576  0.0442 -0.2341  0.2717
16002TIP3    H269422   2.942   3.112   1.641 -0.4699  0.8361  0.1425
16003TIP3   OH269423   6.456   4.613  11.856  0.6858  0.2306 -0.4897
16003TIP3    H169424   6.540   4.621  11.901  0.9926  0.1079 -1.0365
16003TIP3    H269425   6.443   4.698  11.813  1.4969 -0.3966 -2.0563
16004TIP3   OH269426   6.292   0.520  13.015  0.6495 -0.0299  0.1104
16004TIP3    H169427   6.199   0.544  13.016  0.6140  0.0767 -1.8319
16004TIP3    H269428   6.339   0.603  13.019  0.7191 -0.1246  2.0964
16005TIP3   OH269429   5.658   1.971  12.308 -0.2892  0.1872  0.7176
16005TIP3    H169430   5.614   1.950  12.390 -0.3834  0.4555  0.7375
16005TIP3    H269431   5.746   1.999  12.335  0.2873 -1.4483  0.5954
16006TIP3   OH269432   4.115   6.477  13.356  0.2462  0.2346 -0.2903
16006TIP3    H169433   4.025   6.476  13.323  0.0974 -0.3004  0.1198
16006TIP3    H269434   4.129   6.389  13.390  1.4497 -0.1860 -1.7220
16007TIP3   OH269435   2.772   0.084  13.230  0.1583  0.0878 -0.0925
16007TIP3    H169436   2.826   0.024  13.282  0.7439  0.7947  0.1340
16007TIP3    H269437   2.799   0.171  13.258 -1.0398  0.4663 -0.0616
16008TIP3   OH269438   4.200   1.758   3.198 -0.1722  0.1572 -0.3005
16008TIP3    H169439   4.192   1.691   3.130  0.9428 -0.0332 -0.2633
16008TIP3    H269440   4.289   1.794   3.186  0.3194 -0.3841  1.4960
16009TIP3   OH269441   2.537   4.739  15.332 -0.0388 -0.4847 -0.0748
16009TIP3    H169442   2.601   4.811  15.335  0.0906 -0.3853 -2.6725
16009TIP3    H269443   2.588   4.663  15.303 -0.3200 -1.5149  1.9419
16010TIP3   OH269444   0.523   3.158   4.458 -0.3762 -0.2780 -0.3262
16010TIP3    H169445   0.445   3.108   4.484  0.4858 -1.2241  0.5935
16010TIP3    H269446   0.595   3.113   4.503  0.7356  0.3889 -1.3938
16011TIP3   OH269447   0.056   4.061  16.909 -0.2128  0.2483  0.0449
16011TIP3    H169448   0.134   4.006  16.917  0.0164  0.5023 -0.3791
16011TIP3    H269449   0.086   4.149  16.930 -0.1877  0.4861 -0.9333
16012TIP3   OH269450   6.282   1.204   4.338  0.3445 -0.2544 -0.1444
16012TIP3    H169451   6.192   1.189   4.310  0.8898 -1.5861 -1.3019
16012TIP3    H269452   6.330   1.128   4.306  2.6258  2.0788 -2.8729
16013TIP3   OH269453   1.954   3.679   0.812  0.1744  0.5639  0.1054
16013TIP3    H169454   1.880   3.718   0.766  0.1718 -0.5086 -0.8386
16013TIP3    H269455   1.983   3.608   0.756  0.4451 -0.5285  1.5628
16014TIP3   OH269456   5.926   1.639  14.074 -0.4096  0.0022  0.2476
16014TIP3    H169457   5.909   1.692  13.997 -1.0780 -3.2190 -2.0281
16014TIP3    H269458   5.838   1.617  14.107 -0.1607 -0.1445  0.8281
16015TIP3   OH269459   2.322   4.480  12.619  0.5129  0.3392 -0.2993
16015TIP3    H169460   2.241   4.512  12.658  0.9972 -0.0737  1.1323
16015TIP3    H269461   2.369   4.440  12.692  1.6311 -0.1804 -1.2690
16016TIP3   OH269462   6.604   4.871   5.902 -0.3271  0.4267  0.1220
16016TIP3    H169463   6.563   4.903   5.983 -0.5132 -0.4663  0.3833
16016TIP3    H269464   6.591   4.777   5.904 -0.2258  0.3858 -0.9033
16017TIP3   OH269465   6.665   6.669   1.985  0.0551  0.2166 -0.8527
16017TIP3    H169466   6.657   6.626   1.900 -2.9702 -2.4891  0.6005
16017TIP3    H269467   6.581   6.713   1.999 -0.0851 -0.6003  1.2912
16018TIP3   OH269468   3.541   4.864   0.807  0.1157 -0.4630  0.6397
16018TIP3    H169469   3.531   4.780   0.853  0.4585 -0.3025  1.0153
16018TIP3    H269470   3.492   4.853   0.725  1.1099 -1.4406  0.1468
16019TIP3   OH269471   5.214   6.398  15.458 -0.4787 -0.3327 -0.6399
16019TIP3    H169472   5.292   6.367  15.413 -0.6610 -0.6473 -0.7401
16019TIP3    H269473   5.194   6.482  15.417  1.0740  0.8459  0.8420
16020TIP3   OH269474   3.831   0.297  13.606 -0.2672 -0.1300  0.0425
16020TIP3    H169475   3.885   0.316  13.683  2.5596  1.9914 -2.2388
16020TIP3    H269476   3.863   0.212  13.576  1.5852  0.8725 -0.9901
16021TIP3   OH269477   3.336   1.744   0.635 -0.2656 -0.5128 -0.0995
16021TIP3    H169478   3.306   1.832   0.612 -0.8252 -0.6413  0.1206
16021TIP3    H269479   3.423   1.758   0.673  0.0351 -0.1483 -0.8976
16022TIP3   OH269480   5.157   2.587   4.428 -0.3916 -0.5362 -0.1610
16022TIP3    H169481   5.117   2.512   4.472 -0.7323  0.3060  1.0095
16022TIP3    H269482   5.085   2.648   4.413  0.2704  0.7175  1.3842
16023TIP3   OH269483   5.906   3.905   1.357  0.0289 -0.2010  0.1858
16023TIP3    H169484   5.834   3.894   1.295  1.5108 -1.4106 -1.4381
16023TIP3    H269485   5.907   3.824   1.408  1.1568 -0.9114 -0.8933
16024TIP3   OH269486   5.844   6.539   2.795 -0.4204 -0.2533  0.5018
16024TIP3    H169487   5.874   6.525   2.885 -1.9278  1.1578  1.2812
16024TIP3    H269488   5.787   6.464   2.777  0.5616 -0.9858  0.3917
16025TIP3   OH269489   5.055   3.912   2.871 -0.8481  0.4886 -0.2943
16025TIP3    H169490   4.973   3.864   2.885  0.1805 -1.1684  0.4504
16025TIP3    H269491   5.117   3.871   2.932 -0.2054  3.7695  1.4899
16026TIP3   OH269492   3.094   1.178   5.448 -0.1339  0.1780  0.2038
16026TIP3    H169493   3.177   1.222   5.434  0.1100 -0.5658 -0.7805
16026TIP3    H269494   3.083   1.121   5.371 -1.3000 -0.1139  0.5598
16027TIP3   OH269495   5.877   2.286   4.558  0.6851 -0.3808 -0.5052
16027TIP3    H169496   5.944   2.274   4.491  0.2707 -0.6972 -0.8672
16027TIP3    H269497   5.873   2.203   4.604  0.6175 -0.3284 -0.4150
16028TIP3   OH269498   4.770   4.238  11.481 -0.1105  0.5029 -0.3163
16028TIP3    H169499   4.679   4.231  11.452 -0.0344 -0.0502 -0.4293
16028TIP3    H269500   4.801   4.147  11.487  0.4598  0.6891 -0.3553
16029TIP3   OH269501   1.591   6.208   4.570 -0.3360  0.2862  0.2759
16029TIP3    H169502   1.567   6.163   4.489 -1.2223  2.3869 -0.6993
16029TIP3    H269503   1.676   6.172   4.593 -0.7031 -1.3875 -0.7784
16030TIP3   OH269504   0.747   6.183  14.087 -0.2808 -0.2358  0.0175
16030TIP3    H169505   0.835   6.211  14.112 -0.4249 -0.1565  0.4478
16030TIP3    H269506   0.726   6.235  14.010 -1.3948  2.5158  1.9964
16031TIP3   OH269507   5.900   2.162  16.496 -0.8599  0.3451  0.2700
16031TIP3    H169508   5.906   2.076  16.454  1.5470  0.1197  0.9577
16031TIP3    H269509   5.895   2.224  16.423 -1.9592 -0.3077 -0.2370
16032TIP3   OH269510   5.573   2.075  14.845  0.6060  0.4831 -0.7183
16032TIP3    H169511   5.497   2.083  14.787  0.2621  2.8189 -0.0432
16032TIP3    H269512   5.545   2.015  14.913 -1.4431  2.7420  0.5952
16033TIP3   OH269513   5.224   2.733  12.966  0.2246 -0.0061  0.1860
16033TIP3    H169514   5.307   2.774  12.941  1.2620 -2.2405 -0.2155
16033TIP3    H269515   5.203   2.675  12.893 -0.9633 -0.5295  0.9260
16034TIP3   OH269516   2.716   3.857  13.199  0.1559  0.0359  0.0719
16034TIP3    H169517   2.800   3.817  13.177  1.3020  0.7783  2.6707
16034TIP3    H269518   2.727   3.888  13.289 -2.0912  2.3320 -0.3108
16035TIP3   OH269519   1.508   1.100   0.946  0.0992 -0.0756 -0.4844
16035TIP3    H169520   1.505   1.007   0.965  0.8103 -0.3126 -1.4562
16035TIP3    H269521   1.584   1.133   0.993  1.0252 -0.3903 -1.7079
16036TIP3   OH269522   4.166   1.208   0.526  0.2317  0.8261  0.1610
16036TIP3    H169523   4.194   1.125   0.564 -1.0653  0.4540  0.3706
16036TIP3    H269524   4.073   1.216   0.551 -0.3322  1.1748 -1.8746
16037TIP3   OH269525   0.925   1.909   2.605  0.5884 -0.0794 -0.0175
16037TIP3    H169526   0.973   1.894   2.524  1.4943 -0.7817  0.6239
16037TIP3    H269527   0.932   1.826   2.653 -0.1521  0.2360  0.6685
16038TIP3   OH269528   4.385   4.745   4.310  0.5252 -0.2783  0.1936
16038TIP3    H169529   4.294   4.774   4.320  0.2661 -0.8440 -0.4338
16038TIP3    H269530   4.429   4.776   4.389 -0.0172  0.7201  0.1144
16039TIP3   OH269531   6.272   0.332  14.486 -0.4632  0.1312 -0.0188
16039TIP3    H169532   6.316   0.314  14.403 -1.4179 -0.8983 -0.3327
16039TIP3    H269533   6.179   0.332  14.464 -0.7122  0.2693  0.9789
16040TIP3   OH269534   4.123   3.842  13.447 -0.8943  0.2773 -0.1238
16040TIP3    H169535   4.035   3.860  13.412 -2.2645 -3.1891  1.0511
16040TIP3    H269536   4.144   3.754  13.414  2.1448  0.9464 -0.2625
16041TIP3   OH269537   6.494   3.478  16.582 -0.4547  0.3236  0.5268
16041TIP3    H169538   6.447   3.413  16.530  2.0398 -0.5764 -0.7381
16041TIP3    H269539   6.499   3.555  16.524  0.3647  0.1104  0.3095
16042TIP3   OH269540   1.620   4.891   1.625  0.4969  0.5295  0.1560
16042TIP3    H169541   1.712   4.907   1.647  0.7250 -0.3829 -0.0922
16042TIP3    H269542   1.608   4.934   1.540  0.4117  1.4970  0.6377
16043TIP3   OH269543   3.801   3.500   2.896 -0.9206  0.6949  0.6671
16043TIP3    H169544   3.718   3.453   2.894 -0.0391 -0.9163 -0.9255
16043TIP3    H269545   3.864   3.437   2.930 -0.6474  2.6176  4.1990
16044TIP3   OH269546   2.998   1.626   1.958 -0.2218  0.1353  0.4458
16044TIP3    H169547   3.091   1.640   1.974 -0.5493  0.6720  2.1287
16044TIP3    H269548   2.980   1.673   1.877  0.6084  1.6215  1.0845
16045TIP3   OH269549   5.602   4.784   3.977 -0.1011 -0.0126 -0.0044
16045TIP3    H169550   5.516   4.778   4.018  0.1825  0.2899  0.6674
16045TIP3    H269551   5.601   4.719   3.907 -1.3620  0.9577 -0.9285
16046TIP3   OH269552   5.706   4.873  11.873 -0.3647 -0.7879 -0.3821
16046TIP3    H169553   5.691   4.883  11.967  0.3684  1.3890 -0.4545
16046TIP3    H269554   5.801   4.878  11.863 -0.5546  1.8760 -1.4764
16047TIP3   OH269555   3.934   5.954   5.469 -0.4381 -0.3655  0.2997
16047TIP3    H169556   3.948   6.031   5.523  1.7493  0.5838 -1.5011
16047TIP3    H269557   3.978   5.883   5.517  0.6438  0.2539  0.2436
16048TIP3   OH269558   6.263   1.817  12.149 -0.0530  0.4883 -0.6192
16048TIP3    H169559   6.355   1.829  12.124  0.2574 -1.0889 -0.3641
16048TIP3    H269560   6.235   1.739  12.101 -0.6165 -0.2901  0.8857
16049TIP3   OH269561   2.602   0.642  11.578  0.4461  0.1061 -0.0478
16049TIP3    H169562   2.595   0.558  11.533 -0.8433 -1.1226  2.2864
16049TIP3    H269563   2.514   0.658  11.612  0.4586  2.8076 -1.0281
16050TIP3   OH269564   2.077   3.892   4.937 -0.2939  0.0986  0.3350
16050TIP3    H169565   2.122   3.860   5.016 -2.4165 -0.7765  1.2698
16050TIP3    H269566   2.082   3.820   4.875 -0.5149 -0.0564  0.4947
16051TIP3   OH269567   3.834   5.813   4.840  0.0628  0.0133  0.0628
16051TIP3    H169568   3.867   5.892   4.883  1.6706 -0.2876 -0.5674
16051TIP3    H269569   3.912   5.771   4.804 -0.8433 -1.5683 -0.1145
16052TIP3   OH269570   6.037   1.778   4.727  0.5046  0.1778 -0.0283
16052TIP3    H169571   6.132   1.765   4.721  0.4530  0.2145 -0.9226
16052TIP3    H269572   6.000   1.702   4.683  0.1188  0.2939  0.0955
16053TIP3   OH269573   5.134   0.724   3.481 -0.3626 -0.2028 -0.1391
16053TIP3    H169574   5.114   0.728   3.387 -0.2220  2.2317 -0.1350
16053TIP3    H269575   5.164   0.813   3.502 -0.9914 -0.5306  2.3474
16054TIP3   OH269576   5.328   2.070   1.336 -0.2411  0.4036 -0.4530
16054TIP3    H169577   5.364   1.983   1.318 -2.8703 -0.5330 -1.6329
16054TIP3    H269578   5.387   2.107   1.403  1.1275 -2.1193 -0.1444
16055TIP3   OH269579   3.229   3.547  17.142  0.0550 -0.4751 -0.0977
16055TIP3    H169580   3.237   3.622  17.202  0.4291 -0.9163  0.4190
16055TIP3    H269581   3.149   3.564  17.093 -0.0312  0.1092  0.2328
16056TIP3   OH269582   5.715   2.941  13.623  0.1754 -0.1725  0.2440
16056TIP3    H169583   5.720   2.972  13.533  2.2919 -2.0911 -0.4042
16056TIP3    H269584   5.687   2.849  13.615 -1.4258  0.1342  1.7184
16057TIP3   OH269585   4.783   2.293   2.543  0.1518 -0.0689  0.1306
16057TIP3    H169586   4.708   2.235   2.554  0.4648 -0.2295  1.6736
16057TIP3    H269587   4.746   2.381   2.547  0.0515 -0.1424  1.1772
16058TIP3   OH269588   3.215   0.384  11.838  0.5261 -0.0686 -0.1239
16058TIP3    H169589   3.220   0.394  11.743 -0.8373  1.9770 -0.0510
16058TIP3    H269590   3.124   0.407  11.859  0.0479 -2.9897  1.4627
16059TIP3   OH269591   1.117   2.637   1.745 -0.3585  0.4354  0.2767
16059TIP3    H169592   1.091   2.569   1.808  0.2683 -0.1997 -0.1378
16059TIP3    H269593   1.035   2.683   1.726 -1.0949 -1.1221 -0.5282
16060TIP3   OH269594   1.284   5.061  14.826  0.2937  0.3267  0.2267
16060TIP3    H169595   1.223   5.009  14.878 -1.5988  1.7910 -0.4003
16060TIP3    H269596   1.307   5.005  14.753 -1.6650  0.2692 -0.4170
16061TIP3   OH269597   2.835   3.051   2.319  0.1458  0.3971  0.1145
16061TIP3    H169598   2.794   3.127   2.361 -0.9107 -0.2288  0.2546
16061TIP3    H269599   2.929   3.066   2.328 -0.0271  2.1552 -0.7183
16062TIP3   OH269600   6.675   1.742  15.129 -0.6183 -0.3732 -0.4080
16062TIP3    H169601   6.699   1.771  15.217 -2.2076  1.4746 -0.5173
16062TIP3    H269602   6.644   1.652  15.142  1.2270 -0.9453  0.5099
16063TIP3   OH269603   6.644   2.375  12.675  0.0179 -0.0085  0.2487
16063TIP3    H169604   6.631   2.466  12.700 -0.9946 -0.2643  0.6769
16063TIP3    H269605   6.612   2.324  12.749 -0.0049 -0.7235 -0.2390
16064TIP3   OH269606   4.038   5.391  13.665  0.2826  0.2380 -0.0216
16064TIP3    H169607   4.079   5.455  13.608  1.4416  1.5487  2.1406
16064TIP3    H269608   3.968   5.439  13.709  0.0191 -0.4683  0.3560
16065TIP3   OH269609   1.362   4.016  13.931 -0.3322  0.2055  0.2938
16065TIP3    H169610   1.357   3.955  13.858 -0.0748  0.0216  0.4301
16065TIP3    H269611   1.346   4.102  13.892 -0.7042  0.0495  0.1053
16066TIP3   OH269612   0.881   6.707   5.593  0.4284  0.2363 -0.2349
16066TIP3    H169613   0.955   6.722   5.535  1.1511 -1.4413  0.1956
16066TIP3    H269614   0.920   6.700   5.680 -0.3458  0.2908  0.1232
16067TIP3   OH269615   4.808   2.981  11.026  0.4952 -0.4839 -0.3834
16067TIP3    H169616   4.859   3.048  11.071 -1.1624  1.4808 -1.2876
16067TIP3    H269617   4.814   2.904  11.083  0.0667  1.3026  2.2288
16068TIP3   OH269618   5.672   3.145   4.538 -0.3642  0.7518 -0.0517
16068TIP3    H169619   5.681   3.227   4.491  1.3369 -0.0590 -1.2598
16068TIP3    H269620   5.717   3.161   4.621  0.8029  0.7985 -0.6642
16069TIP3   OH269621   6.237   2.440  15.012 -0.4525  0.0293 -0.3548
16069TIP3    H169622   6.255   2.533  15.023 -0.7930 -0.1001  1.7977
16069TIP3    H269623   6.176   2.436  14.938 -1.1385  1.6248  0.0782
16070TIP3   OH269624   1.002   5.540  16.925 -0.0897 -0.3307 -0.2281
16070TIP3    H169625   0.915   5.549  16.963  0.4129  1.7534  0.5813
16070TIP3    H269626   1.002   5.599  16.850  0.1400 -1.5496 -1.2176
16071TIP3   OH269627   4.686   4.088  12.458 -0.1130  0.7392 -0.1221
16071TIP3    H169628   4.610   4.029  12.451  0.3170  0.1349  0.2694
16071TIP3    H269629   4.760   4.030  12.475  0.4877  1.3011 -0.7537
16072TIP3   OH269630   0.853   3.502  15.722 -0.2787  0.3920  0.3322
16072TIP3    H169631   0.934   3.524  15.768  0.3763  0.5994 -0.8602
16072TIP3    H269632   0.867   3.412  15.690 -0.9880  0.0045  1.0725
16073TIP3   OH269633   0.478   3.171   2.560 -0.1385 -0.2579 -0.2133
16073TIP3    H169634   0.436   3.194   2.477  0.6430 -0.4234 -0.6672
16073TIP3    H269635   0.473   3.252   2.612  0.2087  0.1341 -0.7825
16074TIP3   OH269636   3.918   5.372   3.627  0.1659  0.1285  0.2329
16074TIP3    H169637   3.900   5.429   3.702  2.0166 -0.5185  1.2195
16074TIP3    H269638   3.881   5.288   3.653 -1.2522  0.4613 -0.6037
16075TIP3   OH269639   6.571   4.858   3.890  0.2831  0.4228 -0.0658
16075TIP3    H169640   6.609   4.923   3.832 -1.5221  0.7575 -0.9504
16075TIP3    H269641   6.511   4.907   3.946  1.8033  0.0701  1.9884
16076TIP3   OH269642   3.401   6.507  16.953 -0.5230 -0.5348 -0.5194
16076TIP3    H169643   3.365   6.419  16.967  0.9876 -1.2053 -0.6363
16076TIP3    H269644   3.397   6.520  16.858  2.0720 -1.8286 -0.9196
16077TIP3   OH269645   3.567   6.655  17.474 -0.1341 -0.2159 -0.4896
16077TIP3    H169646   3.558   6.751  17.475  0.9004 -0.0946  1.1731
16077TIP3    H269647   3.630   6.638  17.404  0.8029  0.4858  0.1452
16078TIP3   OH269648   5.303   6.057   5.159  0.2306 -0.4225  0.0938
16078TIP3    H169649   5.256   6.001   5.097 -0.7373 -1.4341  1.6591
16078TIP3    H269650   5.300   6.008   5.242 -0.0457  1.6410  1.3699
16079TIP3   OH269651   2.524   4.054  13.565 -0.1205  0.4433 -0.0440
16079TIP3    H169652   2.593   3.995  13.534 -2.7048 -4.3140  2.2532
16079TIP3    H269653   2.452   4.042  13.503 -0.7842  1.1073  0.5797
16080TIP3   OH269654   0.447   4.105   3.214  0.2842 -0.3539 -0.1446
16080TIP3    H169655   0.493   4.021   3.222  1.0136  0.0210 -0.3327
16080TIP3    H269656   0.481   4.143   3.133 -1.5848 -0.7957 -1.1901
16081TIP3   OH269657   3.040   4.268   3.970  0.4256 -0.0529 -0.2767
16081TIP3    H169658   3.018   4.175   3.961 -0.2602  0.0524  0.2180
16081TIP3    H269659   2.975   4.313   3.918 -0.3139  0.2410  0.8582
16082TIP3   OH269660   0.117   4.080   1.680  0.0050  0.5976 -0.3274
16082TIP3    H169661   0.141   4.004   1.733  1.2143  1.0141 -0.2419
16082TIP3    H269662   0.064   4.044   1.609  0.4825 -0.3177 -0.2401
16083TIP3   OH269663   0.621   0.000   0.054 -0.2355  0.5944 -0.2764
16083TIP3    H169664   0.534  -0.034   0.034  0.0369  0.1587 -0.7399
16083TIP3    H269665   0.681  -0.060   0.011  0.3407  0.2869  0.9059
16084TIP3   OH269666   0.900   1.552   5.176  0.1573 -0.2033  0.6562
16084TIP3    H169667   0.932   1.615   5.241  1.3228 -0.5669  0.4428
16084TIP3    H269668   0.959   1.477   5.183 -0.0765 -0.5018 -0.4111
16085TIP3   OH269669   1.922   6.504  12.785  0.4093 -0.0964  0.1004
16085TIP3    H169670   1.844   6.458  12.814 -1.3546  2.1555 -0.7465
16085TIP3    H269671   1.975   6.438  12.742 -2.2964 -1.2474 -1.6905
16086TIP3   OH269672   6.503   1.123  14.710  0.2371  0.0468 -0.2137
16086TIP3    H169673   6.493   1.218  14.714  0.4350  0.0727 -0.3413
16086TIP3    H269674   6.573   1.109  14.646 -0.0746 -0.2003 -0.5046
16087TIP3   OH269675   4.026   1.271   3.004  0.1076  0.2472  0.0698
16087TIP3    H169676   3.932   1.293   3.006 -0.0617 -0.4956  1.5490
16087TIP3    H269677   4.028   1.176   3.020  1.2118  0.7427  3.8597
16088TIP3   OH269678   6.195   2.413   2.479 -0.8327 -0.3575 -0.5902
16088TIP3    H169679   6.171   2.468   2.553  0.0872 -0.8807  0.1142
16088TIP3    H269680   6.118   2.414   2.422 -1.9851 -0.8318  0.8942
16089TIP3   OH269681   2.501   4.876   4.585 -0.1230 -0.5155 -0.1862
16089TIP3    H169682   2.550   4.813   4.532  1.1398  0.4612 -0.2184
16089TIP3    H269683   2.429   4.903   4.527  0.7587 -0.0841 -1.1166
16090TIP3   OH269684   6.316   5.776  17.334 -0.2144 -0.1588 -0.1512
16090TIP3    H169685   6.368   5.717  17.279  0.2337  0.9039 -0.9029
16090TIP3    H269686   6.258   5.718  17.383 -0.2850 -1.1822 -1.3941
16091TIP3   OH269687   4.736   6.017   3.961  0.0270 -0.2599  0.0401
16091TIP3    H169688   4.711   5.928   3.985  1.5333 -1.0541 -1.1954
16091TIP3    H269689   4.816   6.007   3.910  0.3970  1.8376  0.1270
16092TIP3   OH269690   6.408   5.469   4.097 -0.5384  0.2014  0.1665
16092TIP3    H169691   6.354   5.515   4.161  0.1893  1.5784 -0.1663
16092TIP3    H269692   6.419   5.532   4.026  0.8092 -0.3528 -0.1397
16093TIP3   OH269693   5.778   6.011  16.869 -0.0547  0.7856  0.1091
16093TIP3    H169694   5.853   6.035  16.924  2.5141 -1.3770 -2.1163
16093TIP3    H269695   5.793   6.056  16.786 -1.0045 -0.0308 -0.5316
16094TIP3   OH269696   1.667   2.774  15.704 -0.2200  0.6505  0.6433
16094TIP3    H169697   1.614   2.813  15.634 -0.6814 -0.5454  0.2830
16094TIP3    H269698   1.756   2.771  15.669 -0.7378 -1.6008 -0.7131
16095TIP3   OH269699   5.347   6.403  14.655 -0.2855  0.5805 -0.3943
16095TIP3    H169700   5.355   6.405  14.559  0.6374 -0.1972 -0.3563
16095TIP3    H269701   5.415   6.341  14.682  0.2150  1.6460  0.8516
16096TIP3   OH269702   4.373   2.825  15.340  0.2106 -0.9805 -0.1493
16096TIP3    H169703   4.341   2.735  15.331 -0.2194 -0.8171 -0.3264
16096TIP3    H269704   4.411   2.845  15.255  0.8021 -1.1789  0.0664
16097TIP3   OH269705   4.059   1.419   0.861 -0.3913  0.0273  0.3619
16097TIP3    H169706   4.010   1.363   0.801 -0.1996  0.1936  0.0445
16097TIP3    H269707   4.124   1.462   0.806 -0.1428  0.1035  0.7099
16098TIP3   OH269708   5.134   5.364   1.387  0.2998  0.0636  0.6611
16098TIP3    H169709   5.209   5.402   1.434  1.1417  2.8350 -2.5185
16098TIP3    H269710   5.058   5.397   1.435  1.0830  0.1014  1.9400
16099TIP3   OH269711   2.047   6.442  16.161  0.1269  0.5134  0.2946
16099TIP3    H169712   2.106   6.430  16.236  0.9894  1.0517 -0.2769
16099TIP3    H269713   2.003   6.525  16.178  0.3085  0.6263  0.2063
16100TIP3   OH269714   2.831   5.592   1.116 -0.6899  0.0960 -0.3952
16100TIP3    H169715   2.798   5.657   1.179  0.0406 -0.5389  0.6881
16100TIP3    H269716   2.771   5.518   1.125 -0.1008 -0.3257  0.2031
16101TIP3   OH269717   0.213   1.043  12.330 -0.0962  0.2367  0.4473
16101TIP3    H169718   0.142   1.075  12.273  0.3698  0.1507 -0.1904
16101TIP3    H269719   0.192   1.079  12.416 -2.6642 -2.2629  1.0437
16102TIP3   OH269720   4.158   6.515   2.093  0.0083  0.2274 -0.3660
16102TIP3    H169721   4.166   6.430   2.135 -0.3698  0.3523 -0.0259
16102TIP3    H269722   4.125   6.573   2.162  2.3733  1.1824  0.0355
16103TIP3   OH269723   2.949   1.027  12.857 -0.0613  0.1978  0.2675
16103TIP3    H169724   2.995   0.943  12.860 -0.8166 -0.2014  0.9012
16103TIP3    H269725   3.019   1.092  12.865  0.7588 -0.2715 -2.1842
16104TIP3   OH269726   1.085   3.537   4.535  0.1019 -0.1883  1.1197
16104TIP3    H169727   1.180   3.535   4.532  0.0626 -1.3636 -1.1693
16104TIP3    H269728   1.060   3.604   4.472 -0.6247  1.2554  2.8427
16105TIP3   OH269729   2.695   0.389  14.540 -0.5733 -0.1076  0.2047
16105TIP3    H169730   2.772   0.434  14.577  0.0059 -1.1275  0.2744
16105TIP3    H269731   2.715   0.296  14.551 -1.8674 -0.3810  0.2915
16106TIP3   OH269732   2.037   4.786  16.320  0.0576 -0.5331 -0.1711
16106TIP3    H169733   1.985   4.764  16.397  2.1079 -0.7991  1.2049
16106TIP3    H269734   2.127   4.771  16.347  0.8596 -0.3721 -2.5637
16107TIP3   OH269735   2.703   1.989  14.537 -0.0658  0.6030  0.0343
16107TIP3    H169736   2.694   1.975  14.632 -1.0616 -1.3035 -0.2941
16107TIP3    H269737   2.627   1.945  14.499  0.8300  0.4914 -1.7212
16108TIP3   OH269738   4.743   2.312  15.917 -0.0879 -0.4601 -0.1952
16108TIP3    H169739   4.814   2.374  15.936 -1.3252  1.7854 -2.3308
16108TIP3    H269740   4.674   2.335  15.979 -0.1369 -0.4369 -0.2579
16109TIP3   OH269741   4.392   4.262   6.276  0.2740 -0.5768  0.1089
16109TIP3    H169742   4.325   4.330   6.272  0.6253 -0.1005  1.7675
16109TIP3    H269743   4.473   4.308   6.252  0.1264 -1.0273 -1.3447
16110TIP3   OH269744   5.611   6.103   2.963  0.0012  0.3502 -0.4783
16110TIP3    H169745   5.559   6.035   2.919 -0.1668  0.2847 -0.1868
16110TIP3    H269746   5.681   6.054   3.006 -0.8645  0.1922  0.8273
16111TIP3   OH269747   1.730   4.376  10.545 -0.5904  0.0283  0.8607
16111TIP3    H169748   1.748   4.461  10.585 -0.4017  0.8588 -0.8786
16111TIP3    H269749   1.779   4.313  10.598  0.6492  1.2110  1.1846
16112TIP3   OH269750   5.785   5.789   0.257 -0.1226  0.5292 -0.2330
16112TIP3    H169751   5.725   5.764   0.327 -0.0489  1.9949  0.3870
16112TIP3    H269752   5.822   5.872   0.286 -0.6930  1.5829 -2.3919
16113TIP3   OH269753   2.750   5.938   2.178  0.0067 -0.2290  0.5605
16113TIP3    H169754   2.679   5.980   2.228  0.8488  1.0923  0.7077
16113TIP3    H269755   2.801   6.012   2.144  1.9537 -1.1340  1.3869
16114TIP3   OH269756   1.999   5.946  16.784  0.6646  0.2829 -0.3267
16114TIP3    H169757   1.948   5.865  16.774 -0.0958  0.8404 -1.1385
16114TIP3    H269758   2.067   5.924  16.847 -1.5701 -0.0356  2.1216
16115TIP3   OH269759   4.185   0.921   6.459 -0.1901 -0.0600 -0.4103
16115TIP3    H169760   4.231   0.841   6.435 -0.5622 -1.5544  3.2428
16115TIP3    H269761   4.094   0.894   6.472 -0.7919  1.4631 -1.2489
16116TIP3   OH269762   6.689   1.772  13.694 -0.1224 -0.2434  0.4996
16116TIP3    H169763   6.612   1.741  13.647  0.2642  0.6856 -0.8187
16116TIP3    H269764   6.676   1.744  13.784 -2.3236  0.4703  0.4507
16117TIP3   OH269765   6.054   3.150  11.105  0.1822  0.9767  0.1782
16117TIP3    H169766   5.996   3.134  11.030  0.4836 -0.4228  0.2223
16117TIP3    H269767   6.093   3.235  11.087 -0.8995  1.3593 -0.4922
16118TIP3   OH269768   3.973   1.607  13.886 -0.6698  0.2793  0.0874
16118TIP3    H169769   3.889   1.563  13.878 -1.3709  1.3303  1.4081
16118TIP3    H269770   3.987   1.617  13.980  1.1553 -0.2670 -0.0775
16119TIP3   OH269771   5.831   5.274  12.910  0.0743 -0.7910 -0.2625
16119TIP3    H169772   5.876   5.202  12.868  2.3003  1.1885 -1.5407
16119TIP3    H269773   5.885   5.296  12.986  1.3130  1.4498 -1.6691
16120TIP3   OH269774   1.333   2.499  14.513 -0.0443 -0.4539 -0.3843
16120TIP3    H169775   1.253   2.473  14.558 -0.4271 -0.3990 -1.0118
16120TIP3    H269776   1.378   2.557  14.574 -0.6105 -0.2843 -0.1240
16121TIP3   OH269777   5.135   6.193  12.158  0.4879 -0.2390 -0.3509
16121TIP3    H169778   5.074   6.200  12.231  2.3157 -1.6918  1.4269
16121TIP3    H269779   5.093   6.243  12.087 -0.9843  1.9631  1.8954
16122TIP3   OH269780   1.928   4.100  13.502 -0.5266 -0.2272  0.4012
16122TIP3    H169781   2.023   4.096  13.494 -0.5985  0.7022 -1.2171
16122TIP3    H269782   1.896   4.057  13.422 -1.5336 -2.5512  1.9281
16123TIP3   OH269783   3.371   2.297  12.774 -0.3611  0.2060  0.2545
16123TIP3    H169784   3.366   2.203  12.760  1.2635 -0.1913  1.9361
16123TIP3    H269785   3.402   2.331  12.690 -0.8611 -0.7530 -0.3374
16124TIP3   OH269786   4.941   0.907   3.943 -0.3281 -0.0389  0.0800
16124TIP3    H169787   5.034   0.892   3.924 -0.0763  1.2223  0.2205
16124TIP3    H269788   4.896   0.834   3.901  0.6263 -0.0205 -1.0248
16125TIP3   OH269789   2.804   5.538   4.178 -0.5759 -0.6648 -1.1424
16125TIP3    H169790   2.765   5.451   4.181 -1.8778 -0.1065 -1.3419
16125TIP3    H269791   2.732   5.596   4.156 -0.2699  0.7942  1.3577
16126TIP3   OH269792   1.079   4.497   5.140 -0.1336 -0.5084  0.2876
16126TIP3    H169793   1.134   4.432   5.097  0.2358  0.1377 -0.2306
16126TIP3    H269794   1.127   4.521   5.219  0.3316  0.0262 -0.1434
16127TIP3   OH269795   3.508   6.571   6.191  0.6657 -0.1357  0.4260
16127TIP3    H169796   3.549   6.486   6.204 -0.0072 -0.4250  0.6655
16127TIP3    H269797   3.506   6.610   6.279  1.5231  0.3875  0.2262
16128TIP3   OH269798   4.200   2.465   4.671  0.2671 -0.0999  0.3457
16128TIP3    H169799   4.266   2.532   4.654  0.9595 -0.2957  2.0845
16128TIP3    H269800   4.134   2.509   4.725  0.1051 -0.5051  0.4813
16129TIP3   OH269801   2.784   5.924  14.123 -0.1698 -0.0253 -0.1594
16129TIP3    H169802   2.856   5.922  14.186  0.5451  1.7176 -0.8680
16129TIP3    H269803   2.715   5.870  14.164  1.2074 -1.0591  0.8918
16130TIP3   OH269804   4.741   5.400  14.850  0.1037 -0.1087  0.0297
16130TIP3    H169805   4.807   5.376  14.785  2.5597  1.2854  1.8865
16130TIP3    H269806   4.702   5.480  14.815  2.8072  1.7783  1.0491
16131TIP3   OH269807   1.363   3.202  17.272  0.0750  0.5051  0.0226
16131TIP3    H169808   1.389   3.286  17.233  1.2960 -0.6670 -1.9150
16131TIP3    H269809   1.432   3.183  17.336  0.9222  0.1354 -0.9462
16132TIP3   OH269810   6.566   3.169   5.063  0.2905 -0.1843  0.7325
16132TIP3    H169811   6.527   3.225   4.996 -0.6857 -0.2506  1.2286
16132TIP3    H269812   6.657   3.158   5.035 -0.4155 -1.3768 -1.3830
16133TIP3   OH269813   4.630   1.060   6.235 -0.0089  0.0365 -0.0472
16133TIP3    H169814   4.577   1.075   6.313  0.4637  0.1901  0.2450
16133TIP3    H269815   4.587   1.113   6.167 -1.4260 -1.4099 -0.3378
16134TIP3   OH269816   3.241   4.101   4.895  0.5331 -0.0715  0.0728
16134TIP3    H169817   3.191   4.132   4.970  1.0175  0.4931  0.1647
16134TIP3    H269818   3.185   4.033   4.856 -0.4076  0.6903  0.0513
16135TIP3   OH269819   6.395   0.443  17.431  0.5247 -0.4226 -0.7753
16135TIP3    H169820   6.470   0.485  17.472 -0.1437  0.1812 -0.1417
16135TIP3    H269821   6.410   0.453  17.337  0.1302  1.7383 -0.6503
16136TIP3   OH269822   1.767   4.043  13.255 -0.2754 -0.0437  0.1825
16136TIP3    H169823   1.704   4.003  13.314  0.2974 -1.3641 -0.0478
16136TIP3    H269824   1.715   4.094  13.194 -0.9341  0.6735  1.3164
16137TIP3   OH269825   4.050   4.320   4.538 -0.1145 -0.6250 -0.1184
16137TIP3    H169826   4.094   4.347   4.619 -0.9323 -1.1472  0.5194
16137TIP3    H269827   4.022   4.230   4.555 -2.1794 -0.0560 -0.1398
16138TIP3   OH269828   0.083   1.445   2.918  0.2815 -0.6190 -0.2758
16138TIP3    H169829   0.016   1.419   2.982  0.3285 -0.4159 -0.1461
16138TIP3    H269830   0.066   1.537   2.901  0.3001 -0.6601 -0.5210
16139TIP3   OH269831   0.231   5.451   0.007  0.3111  0.0345 -0.0185
16139TIP3    H169832   0.142   5.477  -0.017 -0.1342 -0.6259  0.8889
16139TIP3    H269833   0.220   5.368   0.054  1.3961  0.0195  0.2218
16140TIP3   OH269834   3.976   1.171  16.756  0.1535 -0.3838  0.0133
16140TIP3    H169835   3.914   1.108  16.717  0.0567  0.3511 -1.0724
16140TIP3    H269836   3.936   1.195  16.839 -1.5054  0.7200 -1.0419
16141TIP3   OH269837   3.406   2.817  13.466 -0.0233 -0.0888  0.1749
16141TIP3    H169838   3.403   2.905  13.429  0.4183 -0.2252 -0.1925
16141TIP3    H269839   3.383   2.830  13.558  0.8793  0.5458  0.3330
16142TIP3   OH269840   2.337   6.493   2.806 -0.0328  0.6089  0.0695
16142TIP3    H169841   2.417   6.455   2.842  1.1516  1.5749 -1.4313
16142TIP3    H269842   2.367   6.556   2.741 -2.0142  1.5684  0.0084
16143TIP3   OH269843   5.219   6.418   2.029 -0.2551  0.2062 -0.9368
16143TIP3    H169844   5.273   6.433   1.951 -0.5807 -2.0102 -1.6505
16143TIP3    H269845   5.132   6.449   2.005 -0.0516  0.7974 -0.9346
16144TIP3   OH269846   5.573   0.726   5.535 -0.3721 -0.6399  0.0222
16144TIP3    H169847   5.521   0.757   5.609 -0.1763 -0.0994 -0.0646
16144TIP3    H269848   5.629   0.658   5.572 -0.0962 -0.1946  0.4265
16145TIP3   OH269849   0.063   0.584  14.110 -0.5609  0.2162  0.5533
16145TIP3    H169850   0.077   0.573  14.204  1.8584  0.3327  0.2720
16145TIP3    H269851   0.020   0.503  14.082  1.0992 -1.0101  1.3605
16146TIP3   OH269852   3.798   2.890   2.328  0.0021 -0.3301  0.2569
16146TIP3    H169853   3.798   2.849   2.241 -1.0720 -2.1349  1.0512
16146TIP3    H269854   3.867   2.844   2.376 -0.1235 -0.0720  0.6864
16147TIP3   OH269855   4.525   4.038  16.218  0.3597 -0.2828 -0.2759
16147TIP3    H169856   4.526   3.969  16.284  3.4924  0.2561  0.3824
16147TIP3    H269857   4.617   4.055  16.200 -0.3677  1.8451 -2.4537
16148TIP3   OH269858   6.226   0.655   6.159 -0.2901  0.1332  0.4487
16148TIP3    H169859   6.213   0.748   6.144  0.8099  0.3978  0.9679
16148TIP3    H269860   6.194   0.612   6.080 -1.8473  0.8487  0.6506
16149TIP3   OH269861   2.811   2.297   1.162 -0.3173 -0.2452  0.3944
16149TIP3    H169862   2.877   2.322   1.099  1.2507 -0.0077  2.0381
16149TIP3    H269863   2.789   2.206   1.140  3.1602 -1.5833  1.8200
16150TIP3   OH269864   4.466   6.634   6.415 -0.1451 -0.5167  0.2798
16150TIP3    H169865   4.526   6.568   6.452  0.9951  0.0232 -0.5332
16150TIP3    H269866   4.508   6.718   6.434 -1.4006 -0.0220  0.9791
16151TIP3   OH269867   3.926   0.795  10.726  0.2973  0.2293 -0.6450
16151TIP3    H169868   3.835   0.768  10.740  0.4491 -2.2389 -3.3406
16151TIP3    H269869   3.947   0.850  10.801 -2.4785 -1.5210  1.6100
16152TIP3   OH269870   1.683   0.466   5.046 -0.1336 -0.6064 -0.3477
16152TIP3    H169871   1.770   0.439   5.075  0.8425 -0.7882 -3.1077
16152TIP3    H269872   1.625   0.394   5.072  1.0712 -1.8209 -0.9156
16153TIP3   OH269873   0.235   6.526   4.950  0.1765  0.0942  0.2067
16153TIP3    H169874   0.247   6.457   5.015 -0.1716 -1.2837 -1.1265
16153TIP3    H269875   0.162   6.496   4.897  1.1059  0.6419 -1.4620
16154TIP3   OH269876   6.123   2.705  12.058 -0.1633  0.0342  0.5193
16154TIP3    H169877   6.169   2.631  12.097  1.3636  1.3202  1.2707
16154TIP3    H269878   6.184   2.741  11.994 -1.2328  0.1268 -0.4782
16155TIP3   OH269879   1.820   2.839  13.619 -0.0057  0.2556 -0.2285
16155TIP3    H169880   1.803   2.792  13.537 -0.5800 -0.4452  0.2743
16155TIP3    H269881   1.899   2.890  13.602 -0.4951  0.6222 -1.4200
16156TIP3   OH269882   1.356   5.919   3.106  0.2595 -0.4180  0.6711
16156TIP3    H169883   1.268   5.928   3.069  1.1108 -0.1096 -1.4446
16156TIP3    H269884   1.363   5.827   3.130 -0.1919 -0.7463 -0.3963
16157TIP3   OH269885   1.824   0.661  10.849 -0.0591  0.2312 -0.1753
16157TIP3    H169886   1.842   0.573  10.816  0.5273 -0.3786  1.6261
16157TIP3    H269887   1.898   0.714  10.820  0.5329 -0.3271  0.2756
16158TIP3   OH269888   1.671   0.556  14.823  0.0217  0.5456  0.3411
16158TIP3    H169889   1.736   0.626  14.827  2.9695 -2.0242  0.5080
16158TIP3    H269890   1.665   0.534  14.730  0.6786 -0.3145  0.4930
16159TIP3   OH269891   3.413   2.730   4.517  0.1418 -0.4258  0.4112
16159TIP3    H169892   3.451   2.810   4.480  1.0712 -0.3910  1.4036
16159TIP3    H269893   3.392   2.752   4.607 -0.4494 -1.0335  0.4311
16160TIP3   OH269894   3.622   3.670  10.981 -0.3191  0.2673  0.3758
16160TIP3    H169895   3.683   3.655  11.053 -0.4480 -1.0683  0.2335
16160TIP3    H269896   3.657   3.746  10.935  1.5110 -0.7055  0.0528
16161TIP3   OH269897   3.830   5.338  16.250 -0.0544  0.3102  0.0157
16161TIP3    H169898   3.886   5.398  16.300  0.8151 -0.0278 -0.5328
16161TIP3    H269899   3.743   5.380  16.252 -0.3619 -0.2617  2.7846
16162TIP3   OH269900   6.422   0.103   3.206 -0.4825 -0.5638  0.3101
16162TIP3    H169901   6.509   0.065   3.194 -0.3776  0.0288 -0.9101
16162TIP3    H269902   6.438   0.182   3.258 -0.3933 -0.8575  0.7357
16163TIP3   OH269903   2.407   2.693  16.280 -0.6759 -0.2595 -0.1389
16163TIP3    H169904   2.318   2.688  16.314 -0.3807  2.2334  1.2322
16163TIP3    H269905   2.463   2.671  16.354 -0.1164 -0.1246 -0.5112
16164TIP3   OH269906   2.698   4.959   3.297 -0.2012  0.0229  0.2229
16164TIP3    H169907   2.604   4.964   3.276  0.0865  0.9388 -0.9355
16164TIP3    H269908   2.704   4.888   3.362 -1.7361  0.1947  0.6021
16165TIP3   OH269909   5.119   3.563   5.050 -0.0561 -0.2367  0.0784
16165TIP3    H169910   5.164   3.492   5.097  0.3410 -1.0451 -1.4525
16165TIP3    H269911   5.090   3.622   5.119  0.7531 -1.2208  1.3217
16166TIP3   OH269912   4.493   2.699   3.346  0.2366 -0.5561 -0.3249
16166TIP3    H169913   4.403   2.715   3.317  0.1559 -1.7064 -0.7808
16166TIP3    H269914   4.483   2.671   3.437  0.3509  1.4691  0.3616
16167TIP3   OH269915   1.052   3.880  15.142  0.2872  0.0920  0.2279
16167TIP3    H169916   0.976   3.894  15.197 -1.4789 -0.5693 -1.9018
16167TIP3    H269917   1.085   3.968  15.122 -1.9315  0.6335 -1.3998
16168TIP3   OH269918   5.197   1.704  16.942  0.5140 -0.2374 -0.0462
16168TIP3    H169919   5.181   1.791  16.905 -1.5063 -0.3752  0.3884
16168TIP3    H269920   5.201   1.718  17.036  1.5703 -0.4454 -0.0530
16169TIP3   OH269921   6.160   5.116   4.626  0.1351 -0.6198  0.3450
16169TIP3    H169922   6.142   5.163   4.544 -2.2056 -0.2889  0.9762
16169TIP3    H269923   6.230   5.167   4.667 -0.5991  0.8709 -0.1731
16170TIP3   OH269924   3.561   0.173   0.011  0.0782 -0.2996 -0.4067
16170TIP3    H169925   3.471   0.197   0.033  0.5716 -0.8758  2.6115
16170TIP3    H269926   3.608   0.176   0.095  2.5497 -1.4519 -1.6515
16171TIP3   OH269927   2.297   6.205   0.976  0.8633 -0.5179 -0.5031
16171TIP3    H169928   2.334   6.171   1.058  0.0169  0.1265  0.1688
16171TIP3    H269929   2.300   6.301   0.987 -2.1008 -0.4166  0.1303
16172TIP3   OH269930   2.083   0.872   1.001 -0.4374 -0.2344 -0.2311
16172TIP3    H169931   2.037   0.803   0.953 -2.6800  1.0401 -0.0688
16172TIP3    H269932   2.123   0.926   0.933 -0.2378 -0.6595 -0.4531
16173TIP3   OH269933   3.604   6.257   5.944  0.0700 -0.1448 -0.1025
16173TIP3    H169934   3.522   6.297   5.974  0.7584  0.8969  0.4602
16173TIP3    H269935   3.668   6.328   5.949  0.9992 -0.9329 -0.5781
16174TIP3   OH269936   5.129   5.939  16.844  0.2930 -0.4060  0.1601
16174TIP3    H169937   5.206   5.928  16.900  1.1418  0.5988 -0.7511
16174TIP3    H269938   5.058   5.961  16.904  1.0608  0.1030  0.8983
16175TIP3   OH269939   4.713   0.283   1.028 -0.0477  0.2836 -0.2615
16175TIP3    H169940   4.782   0.229   1.068 -0.7413  0.0045  0.5803
16175TIP3    H269941   4.679   0.336   1.100 -1.3274 -0.2282 -0.4734
16176TIP3   OH269942   2.005   4.432  16.609  0.7868  0.0488  0.8940
16176TIP3    H169943   2.096   4.459  16.620  1.5769 -1.2443 -1.5688
16176TIP3    H269944   1.983   4.460  16.520 -0.6676 -1.0889  0.8635
16177TIP3   OH269945   3.236   5.817  15.403 -0.5143 -0.6332 -0.4239
16177TIP3    H169946   3.175   5.878  15.445  0.4536 -0.6541  1.0933
16177TIP3    H269947   3.260   5.756  15.473  2.1062  0.0429 -0.6306
16178TIP3   OH269948   4.006   0.692   1.786 -0.3544 -0.0264  0.0419
16178TIP3    H169949   4.060   0.643   1.848  0.2719 -0.1393 -0.5855
16178TIP3    H269950   3.933   0.724   1.839 -0.2654 -0.8145  0.6640
16179TIP3   OH269951   4.308   5.545   3.530 -0.3088  0.5358  0.0596
16179TIP3    H169952   4.297   5.452   3.553  2.9339  0.1410  0.4080
16179TIP3    H269953   4.261   5.554   3.448  0.5037 -1.8485 -0.7652
16180TIP3   OH269954   5.097   2.401   1.090  0.5144  0.3640  0.2928
16180TIP3    H169955   5.191   2.396   1.105  0.3923 -1.8973  0.7156
16180TIP3    H269956   5.072   2.311   1.067 -1.7891  0.5244  1.8436
16181TIP3   OH269957   5.435   0.070  14.731  0.0037 -0.0727 -0.4132
16181TIP3    H169958   5.485   0.090  14.810 -0.0085 -0.9228 -0.1885
16181TIP3    H269959   5.343   0.078  14.758 -0.0253 -1.6939  0.0247
16182TIP3   OH269960   6.002   6.593  11.294  0.2880  0.0883 -1.0308
16182TIP3    H169961   6.045   6.677  11.310  0.2582 -0.1104  0.1518
16182TIP3    H269962   5.926   6.615  11.240  0.4623  0.7720 -1.0065
16183TIP3   OH269963   2.863   2.651   0.038 -0.8046 -0.3483  0.4828
16183TIP3    H169964   2.911   2.718  -0.010  0.0819 -1.6062 -0.4619
16183TIP3    H269965   2.789   2.697   0.077  2.9276  2.5493  5.1434
16184TIP3   OH269966   5.183   3.888  15.549 -0.0610 -0.7147  0.1215
16184TIP3    H169967   5.155   3.826  15.616  0.8142  0.4590  1.6295
16184TIP3    H269968   5.266   3.854  15.517  0.4462 -0.3278  0.9873
16185TIP3   OH269969   0.174   3.582   2.825  0.0572  0.3390  0.3290
16185TIP3    H169970   0.177   3.639   2.902  2.4375  1.0494 -0.2197
16185TIP3    H269971   0.155   3.641   2.752  0.6878  0.1516  0.0056
16186TIP3   OH269972   4.777   6.442  12.999 -0.0803  0.4375  0.0871
16186TIP3    H169973   4.743   6.524  13.034 -0.9181 -1.2073  3.5333
16186TIP3    H269974   4.857   6.426  13.050 -0.3287 -1.1990  0.0056
16187TIP3   OH269975   0.769   5.728   0.725 -0.7097 -0.9008 -0.0745
16187TIP3    H169976   0.822   5.763   0.654 -0.7396 -0.9827 -0.1369
16187TIP3    H269977   0.821   5.655   0.760 -0.1579 -0.1358  0.7418
16188TIP3   OH269978   6.634   2.398   5.985  0.8746 -0.3824  0.2497
16188TIP3    H169979   6.543   2.407   6.012  0.6990 -0.4921 -0.3071
16188TIP3    H269980   6.675   2.481   6.011  0.3033  0.2233 -0.7317
16189TIP3   OH269981   2.306   1.667  16.279 -0.4919  0.2519 -0.2884
16189TIP3    H169982   2.289   1.702  16.366  1.1051  3.0100 -0.9787
16189TIP3    H269983   2.328   1.575  16.294 -1.2908  0.3811  2.0739
16190TIP3   OH269984   3.812   3.897  14.806 -0.3262  0.5750  0.9546
16190TIP3    H169985   3.757   3.951  14.749 -0.3715 -0.2050  0.2460
16190TIP3    H269986   3.750   3.853  14.864 -0.6066 -1.1058 -0.5164
16191TIP3   OH269987   4.956   6.608   2.592  0.3782 -1.0184 -0.0460
16191TIP3    H169988   4.871   6.578   2.625  0.3982 -0.2860  0.7040
16191TIP3    H269989   4.974   6.687   2.642  1.1426 -0.7326 -0.7608
16192TIP3   OH269990   0.970   2.213  12.835  0.3050 -0.4436 -0.1476
16192TIP3    H169991   1.054   2.177  12.865 -0.1651 -2.4137 -1.0169
16192TIP3    H269992   0.948   2.281  12.899  1.3614 -1.5817  1.5010
16193TIP3   OH269993   6.416   1.422  12.661  0.3069  0.0006 -0.1014
16193TIP3    H169994   6.407   1.363  12.585 -0.0012  1.7797 -1.5126
16193TIP3    H269995   6.371   1.376  12.732 -3.5400  0.1958 -2.1265
16194TIP3   OH269996   5.652   5.034  12.105  0.2876  0.5039  0.7015
16194TIP3    H169997   5.716   5.075  12.162 -1.6478  2.2831  1.7443
16194TIP3    H269998   5.630   5.102  12.041  0.1245 -0.4025 -0.2424
16195TIP3   OH269999   5.016   1.522  13.086  0.1099 -0.3137 -0.0858
16195TIP3    H170000   5.009   1.431  13.056  1.4497 -0.6977  0.6507
16195TIP3    H270001   4.981   1.521  13.175  1.7398 -0.5342  0.5942
16196TIP3   OH270002   3.422   5.840   4.174  0.1903  0.6942  0.3770
16196TIP3    H170003   3.380   5.890   4.105 -0.0369  1.3079  0.9413
16196TIP3    H270004   3.514   5.838   4.150 -0.1486 -0.7583 -0.9293
16197TIP3   OH270005   2.784   2.024  13.172 -0.1755  0.1767  0.0326
16197TIP3    H170006   2.806   1.977  13.092 -0.3350 -0.6183  0.4473
16197TIP3    H270007   2.721   1.967  13.217  0.5613  0.2020  1.1402
16198TIP3   OH270008   0.525   5.268  15.522  0.4516  0.0589 -0.2229
16198TIP3    H170009   0.619   5.285  15.516  0.9852 -2.5554 -0.3750
16198TIP3    H270010   0.518   5.185  15.571 -1.7735  0.1827 -0.2196
16199TIP3   OH270011   5.692   4.272   1.194 -0.7135  0.4706 -0.5887
16199TIP3    H170012   5.607   4.262   1.238 -0.4653  1.3034  0.0986
16199TIP3    H270013   5.676   4.239   1.106 -2.0279  1.4581 -0.7636
16200TIP3   OH270014   5.350   5.311  14.272 -0.4817 -0.2350  0.0030
16200TIP3    H170015   5.411   5.373  14.311 -0.0155  0.7660 -2.1801
16200TIP3    H270016   5.265   5.333  14.309 -0.0017  0.3746  0.7643
16201TIP3   OH270017   1.779   0.625   2.023 -0.2119  0.0249 -0.1051
16201TIP3    H170018   1.801   0.717   2.008 -2.3195  0.7973  1.0792
16201TIP3    H270019   1.755   0.592   1.936 -2.0069  1.3844 -0.1752
16202TIP3   OH270020   4.840   1.906  14.053  0.3994 -0.4500 -0.4815
16202TIP3    H170021   4.843   1.881  13.961 -0.0292  0.6367 -0.8015
16202TIP3    H270022   4.834   2.001  14.052  2.1393 -0.2823  0.7099
16203TIP3   OH270023   3.553   6.265  12.234  0.0808 -0.0434 -0.3570
16203TIP3    H170024   3.577   6.280  12.326 -0.9933 -1.5211  0.1979
16203TIP3    H270025   3.609   6.325  12.185  1.4512  0.0118  1.1865
16204TIP3   OH270026   3.407   1.240  13.530 -0.6823  0.2658 -0.1039
16204TIP3    H170027   3.433   1.170  13.470 -0.5833 -1.7723  2.1906
16204TIP3    H270028   3.490   1.275  13.563 -0.7480  1.0801 -0.7628
16205TIP3   OH270029   6.137   5.183  12.659 -0.3038 -0.1664 -0.3072
16205TIP3    H170030   6.065   5.140  12.707 -0.5818 -1.2743 -1.6700
16205TIP3    H270031   6.109   5.182  12.568  2.0847 -1.9882 -1.0996
16206TIP3   OH270032   2.271   1.225  11.847 -0.0286 -0.0685  0.1675
16206TIP3    H170033   2.194   1.168  11.847 -0.4326  0.4475  0.9381
16206TIP3    H270034   2.268   1.268  11.932  2.2672 -1.5584  1.1062
16207TIP3   OH270035   2.276   0.222   5.338 -0.3684 -0.9717 -0.3699
16207TIP3    H170036   2.190   0.225   5.381  0.2895 -3.8279  1.3795
16207TIP3    H270037   2.258   0.191   5.250 -1.2566  0.3357 -0.6919
16208TIP3   OH270038   2.572   4.494  12.506 -0.1649  0.4727 -0.5362
16208TIP3    H170039   2.606   4.563  12.449  0.9982  3.3209  3.1457
16208TIP3    H270040   2.478   4.511  12.512  0.0392  1.5060 -0.0356
16209TIP3   OH270041   5.024   1.583  15.285  0.1015  0.3700  0.0257
16209TIP3    H170042   5.022   1.653  15.349  0.5912 -0.2624  0.7471
16209TIP3    H270043   4.954   1.605  15.223 -0.1536  1.1631  0.5832
16210TIP3   OH270044   0.242   3.412   5.383 -0.1614 -0.2017  0.4557
16210TIP3    H170045   0.235   3.343   5.317  2.9056  0.4297 -0.6832
16210TIP3    H270046   0.172   3.474   5.361 -1.7167 -1.9308  0.3190
16211TIP3   OH270047   3.672   6.414  14.612 -0.1039  0.0343  0.4618
16211TIP3    H170048   3.605   6.384  14.550  1.9240  0.7953 -2.2826
16211TIP3    H270049   3.643   6.501  14.638  0.2393  0.8112 -1.5344
16212TIP3   OH270050   3.239   5.692  17.076 -0.4058 -0.6272 -0.2001
16212TIP3    H170051   3.234   5.769  17.021 -0.6184 -0.5831 -0.1213
16212TIP3    H270052   3.316   5.706  17.131 -1.3208  0.2640  0.8992
16213TIP3   OH270053   1.338   4.705  16.359 -0.3019  0.3137 -0.0659
16213TIP3    H170054   1.383   4.759  16.295  0.1317 -1.0013 -0.9066
16213TIP3    H270055   1.255   4.683  16.318 -0.7511  0.8345  0.5348
16214TIP3   OH270056   0.713   6.489  12.022  0.1006  0.0566 -0.4868
16214TIP3    H170057   0.710   6.585  12.024  0.8801  0.1251  2.1623
16214TIP3    H270058   0.805   6.468  12.036 -0.0453 -1.0879 -1.1398
16215TIP3   OH270059   3.426   2.841  12.334  0.0304 -0.2780  0.8527
16215TIP3    H170060   3.518   2.843  12.358  0.0506 -1.1272  0.8851
16215TIP3    H270061   3.419   2.768  12.272 -0.3003  0.8595 -0.5145
16216TIP3   OH270062   0.422   3.468   3.997 -0.8545  0.4092  0.2081
16216TIP3    H170063   0.509   3.499   3.969  0.0159 -3.0634 -1.4243
16216TIP3    H270064   0.361   3.526   3.950  0.5582  1.5890 -0.2817
16217TIP3   OH270065   3.658   6.726  11.177 -0.8640  0.1472 -0.4598
16217TIP3    H170066   3.599   6.694  11.245 -0.3237 -0.0892 -0.0962
16217TIP3    H270067   3.622   6.811  11.151 -1.7146 -0.2767 -0.6827
16218TIP3   OH270068   2.337   4.412  15.567  0.1977  0.5585  0.1653
16218TIP3    H170069   2.430   4.393  15.581 -0.2848 -1.0881  1.3936
16218TIP3    H270070   2.331   4.508  15.573  1.4881  0.5615  2.2971
16219TIP3   OH270071   4.208   4.966   6.717  0.3400  0.3810  0.0195
16219TIP3    H170072   4.300   4.987   6.732 -0.1369  0.9826  2.6759
16219TIP3    H270073   4.172   5.044   6.673  1.0739  0.1028 -1.1193
16220TIP3   OH270074   1.847   3.857   4.251  0.5117  0.2520  0.2095
16220TIP3    H170075   1.752   3.859   4.238  0.5322  1.3796  0.1248
16220TIP3    H270076   1.872   3.949   4.257  1.5229 -0.0521  0.8666
16221TIP3   OH270077   2.201   5.331   3.320 -0.0579  0.1671 -0.1553
16221TIP3    H170078   2.142   5.405   3.311  0.8566  0.7384 -1.9885
16221TIP3    H270079   2.273   5.364   3.373  0.2754  0.5668 -0.8450
16222TIP3   OH270080   3.822   3.968   2.340  0.2034 -0.4638  0.3922
16222TIP3    H170081   3.741   3.929   2.373 -0.2757  0.2446  0.0859
16222TIP3    H270082   3.848   4.030   2.407  0.1455 -0.2358  0.2052
16223TIP3   OH270083   2.805   2.450   3.335 -0.1446 -0.0041  0.1932
16223TIP3    H170084   2.789   2.408   3.251  2.2978 -1.4110  0.3398
16223TIP3    H270085   2.870   2.518   3.316  2.0973 -1.7487  1.1764
16224TIP3   OH270086   5.449   4.676   2.923 -0.2154 -0.5806 -0.3944
16224TIP3    H170087   5.482   4.713   3.005 -1.5422 -0.9205  0.3210
16224TIP3    H270088   5.368   4.723   2.907 -1.0165 -1.9347 -0.4142
16225TIP3   OH270089   5.108   3.092  15.534 -0.0314  0.2634  0.5952
16225TIP3    H170090   5.125   3.127  15.621 -0.1854  0.8264  0.4031
16225TIP3    H270091   5.022   3.127  15.510 -0.7276 -1.1903  0.8682
16226TIP3   OH270092   6.693   2.101  13.161  0.1032 -0.9450 -0.0269
16226TIP3    H170093   6.606   2.112  13.198 -0.4781 -0.1145 -1.5738
16226TIP3    H270094   6.747   2.072  13.235 -1.3668 -1.0218  1.0512
16227TIP3   OH270095   5.623   2.946   3.458 -0.2185  0.0853  0.1254
16227TIP3    H170096   5.659   3.017   3.511 -0.9252  1.2866 -0.9357
16227TIP3    H270097   5.552   2.910   3.511  0.8755 -0.6248  1.1582
16228TIP3   OH270098   4.210   5.063  17.294 -0.2555 -0.6591 -0.0373
16228TIP3    H170099   4.212   5.142  17.240  0.1593 -0.0051  0.8966
16228TIP3    H270100   4.129   5.070  17.344  0.9078  0.4376  1.8077
16229TIP3   OH270101   4.642   3.341   2.412  0.2017  0.0841 -0.2603
16229TIP3    H170102   4.713   3.403   2.428  0.6589 -0.2542 -0.9192
16229TIP3    H270103   4.568   3.395   2.387  0.8056  0.3412 -1.5714
16230TIP3   OH270104   1.356   3.727  14.616 -0.0353  0.0670 -0.3120
16230TIP3    H170105   1.416   3.681  14.674  0.5664 -1.2339 -1.8896
16230TIP3    H270106   1.281   3.749  14.672 -0.2183 -2.5758  0.6435
16231TIP3   OH270107   0.214   3.876   1.873 -0.2926 -0.0963  0.1148
16231TIP3    H170108   0.137   3.878   1.930 -1.0730 -1.2002 -0.8505
16231TIP3    H270109   0.276   3.818   1.919 -0.4331 -0.0250  0.3980
16232TIP3   OH270110   4.497   2.253  12.468 -0.0580  0.0143  0.0912
16232TIP3    H170111   4.564   2.289  12.527 -0.0823 -0.5126  0.4524
16232TIP3    H270112   4.455   2.330  12.429 -1.0119  0.4421  1.8473
16233TIP3   OH270113   4.516   2.824   6.466  0.3597  0.2618  0.0792
16233TIP3    H170114   4.545   2.763   6.533 -0.9445  0.6308  1.0294
16233TIP3    H270115   4.421   2.828   6.476  0.3673  2.1564 -0.1813
16234TIP3   OH270116   0.188   5.707   4.152  0.8245 -0.4019  0.0464
16234TIP3    H170117   0.113   5.691   4.096 -0.1204 -0.0592  1.1730
16234TIP3    H270118   0.152   5.708   4.241  1.9427  1.0282  0.5225
16235TIP3   OH270119   2.293   3.243  11.670 -0.4284 -0.0434 -0.0221
16235TIP3    H170120   2.337   3.267  11.752 -1.1431 -2.0960  1.0468
16235TIP3    H270121   2.205   3.279  11.680 -0.8031 -1.0931  0.5563
16236TIP3   OH270122   4.461   6.329  11.925  0.0225  0.2554  0.0453
16236TIP3    H170123   4.376   6.290  11.947  1.3211 -1.5626  2.2970
16236TIP3    H270124   4.513   6.318  12.004  3.3164 -1.4289 -2.1335
16237TIP3   OH270125   2.222   5.496  15.697  0.6272 -0.5571 -0.1556
16237TIP3    H170126   2.130   5.501  15.671  0.5456 -0.2453  0.1904
16237TIP3    H270127   2.235   5.571  15.755  0.8945 -1.0485  0.4354
16238TIP3   OH270128   4.296   5.005   2.885 -0.6303 -0.6352  0.2956
16238TIP3    H170129   4.221   5.045   2.840 -1.1644 -0.7344  1.0756
16238TIP3    H270130   4.266   4.994   2.975  0.3031 -0.7619  0.5933
16239TIP3   OH270131   2.137   4.480   0.237 -0.0932 -0.1403  0.0749
16239TIP3    H170132   2.194   4.445   0.305 -0.7931  0.1058  0.8098
16239TIP3    H270133   2.050   4.445   0.259 -0.8722  2.1616  0.9841
16240TIP3   OH270134   3.659   0.959  12.971  0.0574 -0.1798 -0.0282
16240TIP3    H170135   3.749   0.989  12.963 -0.5821  1.8950  0.0424
16240TIP3    H270136   3.628   0.953  12.880  0.8359 -3.0178 -0.2138
16241TIP3   OH270137   2.362   0.143   4.696  0.6301  0.1427  0.0358
16241TIP3    H170138   2.335   0.081   4.628  2.3283 -1.3179  0.6278
16241TIP3    H270139   2.388   0.221   4.648  0.3028 -0.2845 -0.8622
16242TIP3   OH270140   5.529   4.286  14.447 -0.3292 -0.1405  0.3181
16242TIP3    H170141   5.579   4.328  14.376 -2.5882 -0.2574 -1.4610
16242TIP3    H270142   5.588   4.220  14.482  1.6439  1.3903  0.0480
16243TIP3   OH270143   2.218   3.433   2.482  0.2286  0.2913 -0.2448
16243TIP3    H170144   2.294   3.459   2.533  0.4311  1.0834 -0.9287
16243TIP3    H270145   2.251   3.371   2.418  0.0676 -0.2955  0.2239
16244TIP3   OH270146   5.553   2.596   0.984 -0.0790 -0.2597 -0.1638
16244TIP3    H170147   5.541   2.503   1.003  0.6527 -0.5152 -0.9194
16244TIP3    H270148   5.566   2.600   0.889  3.3298  0.1884  0.2005
16245TIP3   OH270149   0.206   4.334  11.519 -0.6044 -0.5146 -0.4263
16245TIP3    H170150   0.126   4.282  11.514 -0.6061 -0.5779  0.1523
16245TIP3    H270151   0.255   4.295  11.592 -1.3794  1.3537  1.1804
16246TIP3   OH270152   5.172   1.099  11.946  0.2153  0.4208  0.5221
16246TIP3    H170153   5.120   1.023  11.919  0.4262 -0.0454  1.3923
16246TIP3    H270154   5.106   1.166  11.966  0.0464  0.6536 -0.7478
16247TIP3   OH270155   6.676   5.855  11.554  0.3423  0.0895 -0.2184
16247TIP3    H170156   6.755   5.855  11.500 -0.5533  0.1601 -1.5654
16247TIP3    H270157   6.663   5.948  11.576  1.0924 -0.0106  0.7530
16248TIP3   OH270158   5.313   4.864  12.981  0.2889  0.1482 -0.5231
16248TIP3    H170159   5.339   4.856  12.889  0.1119  3.4021 -0.9649
16248TIP3    H270160   5.374   4.928  13.018 -0.9977  0.5282  1.0486
16249TIP3   OH270161   1.200   0.134   3.513 -0.6951 -0.2804 -0.0064
16249TIP3    H170162   1.198   0.089   3.597 -1.8721 -1.9620 -0.8728
16249TIP3    H270163   1.110   0.163   3.499 -0.2797  0.9452 -0.2018
16250TIP3   OH270164   4.184   0.891  15.226  0.0929 -0.4778  0.0780
16250TIP3    H170165   4.212   0.934  15.145  0.2367 -1.4276 -0.3978
16250TIP3    H270166   4.237   0.930  15.295  0.0112  0.3029 -0.2944
16251TIP3   OH270167   0.912   4.620  16.422 -0.0045 -1.1983 -0.4114
16251TIP3    H170168   0.994   4.573  16.407  0.4734 -0.2120 -0.9871
16251TIP3    H270169   0.938   4.697  16.473 -0.4490 -0.4954 -1.2268
16252TIP3   OH270170   6.041   2.881  13.039 -0.1379 -0.2102  0.6792
16252TIP3    H170171   6.100   2.922  12.977 -2.7454  0.3057 -1.6683
16252TIP3    H270172   6.070   2.790  13.044 -0.1027 -0.3884 -1.7343
16253TIP3   OH270173   6.476   6.743   0.656 -0.4074  0.1994 -0.0621
16253TIP3    H170174   6.421   6.750   0.578 -1.8549  0.9943  0.9801
16253TIP3    H270175   6.501   6.651   0.660 -1.6355 -0.1749 -0.6023
16254TIP3   OH270176   3.815   6.036  14.063 -0.2047  0.2290 -0.4346
16254TIP3    H170177   3.825   5.942  14.076  0.0484  0.4667  1.1983
16254TIP3    H270178   3.726   6.046  14.027 -1.0276 -0.4918  1.2796
16255TIP3   OH270179   2.297   0.114  14.259  0.1711 -0.5511 -0.2903
16255TIP3    H170180   2.274   0.203  14.284  0.0240 -0.2521 -1.4491
16255TIP3    H270181   2.225   0.060  14.293  0.2772 -0.2445  0.4384
16256TIP3   OH270182   5.726   3.637  11.621  0.1906  0.1785  0.1399
16256TIP3    H170183   5.664   3.691  11.573 -0.5811 -2.3230 -1.8911
16256TIP3    H270184   5.671   3.578  11.673  0.9564  0.2544  1.0537
16257TIP3   OH270185   0.788   5.574   0.374  0.6624 -0.3192 -0.2227
16257TIP3    H170186   0.731   5.572   0.450 -0.0156  2.8987 -0.4918
16257TIP3    H270187   0.749   5.512   0.312 -1.8832  0.8275  0.1009
16258TIP3   OH270188   3.271   3.484   6.593  0.2059  0.2044  0.0222
16258TIP3    H170189   3.208   3.424   6.553  1.0893 -0.1191 -0.9034
16258TIP3    H270190   3.225   3.569   6.593 -0.7099 -0.2709  0.5416
16259TIP3   OH270191   2.388   1.997  16.220  0.0904  0.3022 -0.0313
16259TIP3    H170192   2.342   1.951  16.149 -0.3352 -1.2256  1.1703
16259TIP3    H270193   2.404   2.084  16.185 -2.0474  0.3056 -1.2304
16260TIP3   OH270194   1.444   1.720  14.647 -0.4563  0.5168  0.2078
16260TIP3    H170195   1.517   1.662  14.624 -0.6282 -0.6477  2.3731
16260TIP3    H270196   1.370   1.686  14.597 -0.0664  0.2723 -0.2177
16261TIP3   OH270197   6.359   5.034   3.998 -0.1935  0.3598  0.0210
16261TIP3    H170198   6.332   5.100   3.934  1.0653 -0.5213 -1.4912
16261TIP3    H270199   6.284   5.025   4.057 -0.8852  2.1473 -0.5378
16262TIP3   OH270200   1.704   4.885  14.906 -0.2825  0.6382 -0.4195
16262TIP3    H170201   1.723   4.943  14.833  2.2491  1.4685  0.7907
16262TIP3    H270202   1.612   4.901  14.926 -0.0651  3.1344 -1.0914
16263TIP3   OH270203   5.994   4.353   0.910  0.8468  0.4230  0.5407
16263TIP3    H170204   5.994   4.448   0.916  1.2048  0.4717 -0.1010
16263TIP3    H270205   6.024   4.323   0.996 -0.1895  0.8508  1.0662
16264TIP3   OH270206   5.671   1.326  15.744  0.1101 -0.3279 -0.1085
16264TIP3    H170207   5.734   1.398  15.740 -2.2695  1.9794  0.7640
16264TIP3    H270208   5.694   1.280  15.824 -0.0163  1.2621  0.8998
16265TIP3   OH270209   5.553   1.641  11.908 -0.5358 -0.1530 -0.4273
16265TIP3    H170210   5.475   1.695  11.912 -1.2444 -0.8341 -3.0512
16265TIP3    H270211   5.622   1.700  11.878 -0.6563 -0.0922 -0.5869
16266TIP3   OH270212   4.704   6.526   2.665 -0.5932  0.3413 -0.2702
16266TIP3    H170213   4.656   6.534   2.747 -0.3264  1.5366 -0.2157
16266TIP3    H270214   4.652   6.575   2.601  0.0680  0.8626 -0.4182
16267TIP3   OH270215   2.447   2.837   0.943  0.4303 -0.0036  0.4854
16267TIP3    H170216   2.365   2.800   0.976  0.8879 -2.1027 -0.5422
16267TIP3    H270217   2.426   2.928   0.922 -1.9519 -0.7825 -0.8533
16268TIP3   OH270218   3.626   5.982   5.429 -0.3323  0.2290 -0.2984
16268TIP3    H170219   3.586   6.004   5.345 -1.1805  2.3036  0.5850
16268TIP3    H270220   3.717   6.009   5.420 -0.4549  0.5757 -0.5217
16269TIP3   OH270221   2.717   5.323   2.461 -0.5313 -0.3298  0.2657
16269TIP3    H170222   2.723   5.252   2.397  1.5100 -0.5395  0.6091
16269TIP3    H270223   2.737   5.281   2.545 -0.4878  0.4410  0.6472
16270TIP3   OH270224   1.267   1.748   5.266  0.0533 -0.3633  0.4525
16270TIP3    H170225   1.180   1.777   5.294 -0.2985  0.7869 -1.6374
16270TIP3    H270226   1.251   1.685   5.197  0.8849 -0.2303  0.1216
16271TIP3   OH270227   3.482   0.266  16.009  0.2424  0.2262  0.0555
16271TIP3    H170228   3.452   0.189  15.960 -0.4333 -0.1773  1.0649
16271TIP3    H270229   3.436   0.339  15.968  0.4316  0.0178 -0.5334
16272TIP3   OH270230   6.173   4.342  13.991 -1.3064 -0.4917 -0.3235
16272TIP3    H170231   6.097   4.305  14.038  0.3852 -2.8801  0.7420
16272TIP3    H270232   6.144   4.349  13.901 -2.6049 -2.0734 -0.0867
16273TIP3   OH270233   5.299   2.359   6.603 -0.3043  0.4505  0.0000
16273TIP3    H170234   5.269   2.449   6.591 -0.0837  0.9697  2.8074
16273TIP3    H270235   5.218   2.308   6.610 -0.4487  0.1834 -2.4856
16274TIP3   OH270236   4.776   1.337  13.430 -0.1546 -0.0022  0.1126
16274TIP3    H170237   4.712   1.359  13.497 -1.0517 -0.3266 -0.6185
16274TIP3    H270238   4.797   1.421  13.388 -0.8640 -0.0271 -0.3033
16275TIP3   OH270239   6.745   0.010   1.353 -0.4584  0.0270  0.2293
16275TIP3    H170240   6.719   0.069   1.282  1.4106 -1.8482 -2.1705
16275TIP3    H270241   6.668  -0.045   1.367 -0.1203 -1.2368 -2.2488
16276TIP3   OH270242   4.896   0.800  11.233 -0.3532  0.4091  0.2437
16276TIP3    H170243   4.926   0.736  11.168  0.2716 -0.7569  1.6164
16276TIP3    H270244   4.965   0.865  11.236 -0.7922  0.9557 -0.8573
16277TIP3   OH270245   5.990   5.952  13.687  0.3328  0.2085 -0.3652
16277TIP3    H170246   5.934   6.025  13.661  1.0002  0.9638  0.2884
16277TIP3    H270247   6.035   5.926  13.606  0.1977  0.6139 -0.5702
16278TIP3   OH270248   0.327   5.698   1.467  0.5162  0.1253  0.2850
16278TIP3    H170249   0.388   5.713   1.539 -0.6973 -4.1443  2.5552
16278TIP3    H270250   0.370   5.633   1.412 -0.1238  0.5486 -0.7488
16279TIP3   OH270251   0.639   5.429  11.953  0.0761  0.1235  0.5557
16279TIP3    H170252   0.603   5.353  11.998  0.7979  0.3499  1.5472
16279TIP3    H270253   0.730   5.405  11.934 -1.0048 -1.4334 -4.0895
16280TIP3   OH270254   6.636   2.740   5.549  0.0388 -0.2451 -0.4204
16280TIP3    H170255   6.624   2.677   5.620  1.6233 -0.5640 -0.4083
16280TIP3    H270256   6.675   2.817   5.592 -0.7729  0.2965 -0.6348
16281TIP3   OH270257   0.515   2.464  12.556  0.3154  0.2007 -0.1755
16281TIP3    H170258   0.560   2.384  12.586 -0.1069 -0.2089 -0.6108
16281TIP3    H270259   0.466   2.435  12.479  1.1940  1.1657 -1.1305
16282TIP3   OH270260   5.659   4.513  10.443 -0.1288  0.1420  0.2550
16282TIP3    H170261   5.713   4.477  10.513 -0.9191 -0.5320  0.5363
16282TIP3    H270262   5.609   4.438  10.411  0.3940  0.3855 -1.2039
16283TIP3   OH270263   4.249   0.328  11.386  0.0653  0.3176 -0.4896
16283TIP3    H170264   4.236   0.311  11.293 -1.1345 -1.4767 -0.0531
16283TIP3    H270265   4.318   0.267  11.413 -1.9203 -1.6684  0.4181
16284TIP3   OH270266   0.864   5.762  12.292  0.4965  0.5740 -0.2521
16284TIP3    H170267   0.841   5.694  12.229  0.4322 -0.1779  0.5481
16284TIP3    H270268   0.896   5.713  12.368  1.5249  1.4814 -0.0728
16285TIP3   OH270269   3.208   5.217  13.040  0.3518  0.0216 -0.2273
16285TIP3    H170270   3.295   5.201  13.076  0.2330 -0.2637 -0.0653
16285TIP3    H270271   3.185   5.135  12.996 -0.7667 -0.7389  1.6450
16286TIP3   OH270272   6.544   0.781   2.105  0.0388 -0.5674  0.2691
16286TIP3    H170273   6.523   0.778   2.011  0.5117 -1.7494  0.1856
16286TIP3    H270274   6.464   0.812   2.146 -0.0680  0.2950 -0.5513
16287TIP3   OH270275   3.758   1.684  12.650 -0.2926  0.3810  0.1299
16287TIP3    H170276   3.829   1.660  12.710  0.1153  0.1251 -0.4468
16287TIP3    H270277   3.795   1.669  12.563 -0.0439  2.9637 -0.2935
16288TIP3   OH270278   5.872   4.776   1.251  0.4851  0.0345 -0.0914
16288TIP3    H170279   5.860   4.681   1.258 -1.9143  0.3120  0.6651
16288TIP3    H270280   5.911   4.801   1.335 -1.3556 -0.0422  0.8510
16289TIP3   OH270281   6.288   3.781  16.603  0.2755 -0.4321  0.2130
16289TIP3    H170282   6.225   3.710  16.599 -0.9599  0.6613 -0.7844
16289TIP3    H270283   6.251   3.843  16.666  1.2442 -0.5659  0.9404
16290TIP3   OH270284   5.861   0.919   0.435  0.5933  0.6209 -0.6058
16290TIP3    H170285   5.812   0.976   0.495  0.5200 -0.3151  0.2632
16290TIP3    H270286   5.938   0.970   0.411  0.0650  1.4438 -0.5939
16291TIP3   OH270287   3.118   1.365   6.438 -0.2330 -0.0141  0.1983
16291TIP3    H170288   3.185   1.427   6.466 -0.3085  0.2996 -0.3043
16291TIP3    H270289   3.035   1.411   6.455 -0.4176 -1.0284  2.3802
16292TIP3   OH270290   2.147   0.288   3.283  0.3436  0.3714  0.0303
16292TIP3    H170291   2.156   0.371   3.330 -1.2738  1.0483 -0.7587
16292TIP3    H270292   2.058   0.258   3.306 -0.4929  0.7116 -2.4866
16293TIP3   OH270293   2.780   6.406  13.173  0.1554  0.1261 -0.3796
16293TIP3    H170294   2.747   6.336  13.229 -0.1655  0.2788 -0.3726
16293TIP3    H270295   2.845   6.451  13.227 -0.1596  0.2789 -0.1201
16294TIP3   OH270296   5.385   2.325   1.513 -0.6849 -0.2085  0.6023
16294TIP3    H170297   5.481   2.326   1.519 -0.6121  0.2930 -0.5532
16294TIP3    H270298   5.357   2.393   1.574 -0.2372  0.5459 -0.0147
16295TIP3   OH270299   6.331   5.700  12.727 -0.6023  0.0011 -0.8434
16295TIP3    H170300   6.389   5.641  12.775 -3.2370 -0.7562  1.7123
16295TIP3    H270301   6.279   5.643  12.670 -2.0363 -0.0488  0.4361
16296TIP3   OH270302   1.493   0.534  13.968 -0.3602 -0.6173  0.2120
16296TIP3    H170303   1.578   0.518  13.926 -0.0239  1.8751 -0.2136
16296TIP3    H270304   1.505   0.614  14.017 -2.7394  0.4052 -0.7079
16297TIP3   OH270305   4.736   1.609   5.964 -0.0322  0.7492  0.0225
16297TIP3    H170306   4.698   1.683   5.915  2.5824  2.8264  0.9192
16297TIP3    H270307   4.764   1.547   5.896  0.4445  2.0001 -0.9536
16298TIP3   OH270308   6.071   0.421   2.941 -0.1723 -0.2217  0.3711
16298TIP3    H170309   6.016   0.477   2.886 -0.0640 -0.1262  0.3584
16298TIP3    H270310   6.150   0.408   2.890  0.3828  0.7564  0.9429
16299TIP3   OH270311   4.122   2.817   5.256 -0.1533 -0.4021  0.1463
16299TIP3    H170312   4.212   2.790   5.278 -0.2251 -0.9192 -0.1689
16299TIP3    H270313   4.101   2.885   5.320  0.4174 -0.3656  0.3046
16300TIP3   OH270314   4.803   0.590   3.545 -0.1168 -0.1010  0.0961
16300TIP3    H170315   4.757   0.637   3.475  0.6682 -0.8402 -0.9293
16300TIP3    H270316   4.766   0.502   3.543  0.4626 -0.3443  0.0959
16301TIP3   OH270317   2.620   3.368   5.762  0.3031  0.0866 -0.2041
16301TIP3    H170318   2.655   3.294   5.712  0.2872  0.4057 -0.6934
16301TIP3    H270319   2.538   3.336   5.798  0.2733 -0.1188 -0.4553
16302TIP3   OH270320   1.595   3.245  12.583 -0.5221  0.6693 -0.1163
16302TIP3    H170321   1.513   3.294  12.582 -0.3956  1.0376  1.9805
16302TIP3    H270322   1.632   3.262  12.670  0.6285 -1.3711 -0.1374
16303TIP3   OH270323   2.406   4.391   3.538  0.0457 -0.2211  0.3634
16303TIP3    H170324   2.458   4.430   3.468  1.5968 -1.3121  0.8525
16303TIP3    H270325   2.437   4.301   3.544 -3.3072 -1.6314 -0.6373
16304TIP3   OH270326   1.879   1.930  14.100 -0.1666 -0.0760  0.1845
16304TIP3    H170327   1.858   1.840  14.124 -2.2897  0.3397 -0.0002
16304TIP3    H270328   1.915   1.923  14.011 -1.6186 -0.6339 -0.3901
16305TIP3   OH270329   4.844   0.822  16.237 -0.1894  0.2704  0.5207
16305TIP3    H170330   4.828   0.916  16.228  1.5761  0.6287  0.6950
16305TIP3    H270331   4.758   0.781  16.228 -0.8698  1.8410 -0.3473
16306TIP3   OH270332   1.991   4.878   2.939 -0.1716  0.1046 -0.1070
16306TIP3    H170333   1.996   4.783   2.931  0.3884  0.1842 -0.7599
16306TIP3    H270334   1.929   4.905   2.871 -0.9085  0.1558  0.5583
16307TIP3   OH270335   1.785   4.678  11.886  0.6004 -0.5851  0.5663
16307TIP3    H170336   1.871   4.708  11.858 -0.4047  1.6900 -0.3630
16307TIP3    H270337   1.759   4.614  11.820  1.4158 -1.0532  0.6789
16308TIP3   OH270338   1.125   2.647   5.406 -0.3052  0.0536  0.0430
16308TIP3    H170339   1.063   2.655   5.478 -0.6021 -0.9997 -0.0819
16308TIP3    H270340   1.108   2.724   5.352 -1.2087  0.0047  0.2419
16309TIP3   OH270341   1.358   4.029   0.345  0.7964 -0.1135  0.2386
16309TIP3    H170342   1.331   4.049   0.434 -0.4078 -3.8266  0.8700
16309TIP3    H270343   1.423   3.960   0.354  0.4978 -0.7408 -1.7548
16310TIP3   OH270344   5.803   0.427  13.806  0.1633  0.0372 -0.4009
16310TIP3    H170345   5.802   0.460  13.896  0.0585 -0.9658 -0.0256
16310TIP3    H270346   5.878   0.368  13.802  0.6270  0.6634 -1.1976
16311TIP3   OH270347   6.638   2.411  11.614 -0.5469 -0.4100 -0.4924
16311TIP3    H170348   6.596   2.349  11.674  0.8445 -0.5908  0.3543
16311TIP3    H270349   6.714   2.363  11.581 -1.5157 -0.4795 -2.7973
16312TIP3   OH270350   4.257   1.442   0.634 -0.0517 -0.3275  0.1140
16312TIP3    H170351   4.221   1.369   0.584  1.5210 -0.1122 -1.4399
16312TIP3    H270352   4.211   1.519   0.602 -0.6978 -0.4459  0.7253
16313TIP3   OH270353   4.919   0.494  16.280 -0.6378  0.0092  0.0366
16313TIP3    H170354   4.936   0.587  16.269  1.4153 -0.3351  0.0172
16313TIP3    H270355   4.928   0.457  16.192  2.3840 -0.7270  0.5633
16314TIP3   OH270356   3.828   5.757  17.069 -0.1275 -0.2501 -0.6204
16314TIP3    H170357   3.877   5.675  17.061 -0.0097 -0.3016  0.4911
16314TIP3    H270358   3.736   5.731  17.068 -0.1312 -0.8219  3.0569
16315TIP3   OH270359   5.974   3.210   1.531  0.0686 -0.1573 -0.0104
16315TIP3    H170360   5.905   3.206   1.596 -0.8309  1.1753 -0.8231
16315TIP3    H270361   6.000   3.302   1.529 -0.1448 -0.0845 -1.6987
16316TIP3   OH270362   1.435   1.384   0.793  0.1672  0.0031 -0.4282
16316TIP3    H170363   1.499   1.313   0.800 -0.3652 -1.0201 -3.9151
16316TIP3    H270364   1.488   1.461   0.771  0.4503 -0.0573  0.0213
16317TIP3   OH270365   3.168   2.461  11.886  0.3022  0.0389 -0.5473
16317TIP3    H170366   3.150   2.380  11.838 -0.9649 -0.0672  0.0661
16317TIP3    H270367   3.181   2.432  11.976  0.6109  0.4507 -0.4592
16318TIP3   OH270368   2.327   1.707  12.453  0.1943 -0.9123 -0.7195
16318TIP3    H170369   2.268   1.782  12.452  1.1706 -0.0302  1.3926
16318TIP3    H270370   2.269   1.631  12.456 -0.8201 -0.1588 -0.7569
16319TIP3   OH270371   4.317   4.207  16.129 -0.1105  0.3535 -0.2203
16319TIP3    H170372   4.299   4.259  16.207  2.5956  2.6923 -0.9954
16319TIP3    H270373   4.383   4.143  16.158  0.5477  0.9184 -0.4385
16320TIP3   OH270374   1.489   2.177  13.300 -0.1623 -0.6693  0.5883
16320TIP3    H170375   1.446   2.256  13.333 -0.4657 -0.7804  0.4640
16320TIP3    H270376   1.542   2.208  13.226 -0.5138 -0.6255  0.3506
16321TIP3   OH270377   0.575   4.681  14.147 -0.6935  0.1341 -0.0034
16321TIP3    H170378   0.540   4.738  14.078  1.0340  0.0768 -0.9722
16321TIP3    H270379   0.666   4.666  14.122 -0.4032 -0.9957  1.5965
16322TIP3   OH270380   0.978   3.561  12.045 -0.1354 -0.5590 -0.0235
16322TIP3    H170381   0.949   3.637  12.095 -0.6542 -0.2420 -0.7801
16322TIP3    H270382   0.926   3.488  12.078 -0.0541 -0.4694  0.2985
16323TIP3   OH270383   6.073   5.489   5.034 -0.7315  0.0732  0.0848
16323TIP3    H170384   6.124   5.539   5.099 -1.1457  1.2282 -0.4472
16323TIP3    H270385   6.139   5.452   4.975 -0.4452  0.5701  0.0869
16324TIP3   OH270386   0.173   1.107  12.601  0.3321 -0.4639  0.2536
16324TIP3    H170387   0.134   1.063  12.676  0.2467  0.3940  0.7273
16324TIP3    H270388   0.267   1.099  12.614  0.3372  0.8489  1.1821
16325TIP3   OH270389   5.597   1.505   5.134  0.2882  0.6009 -0.2392
16325TIP3    H170390   5.597   1.590   5.178  0.3175  1.2056 -1.3802
16325TIP3    H270391   5.686   1.472   5.146 -0.3589 -0.4965  2.4236
16326TIP3   OH270392   3.488   6.307  14.952  0.3224 -0.3954 -0.2285
16326TIP3    H170393   3.454   6.377  14.896  0.1395  1.0060  1.5696
16326TIP3    H270394   3.440   6.316  15.034  0.6132 -2.3824  0.2086
16327TIP3   OH270395   0.543   4.503   2.881  0.2509  0.1305  0.1998
16327TIP3    H170396   0.551   4.565   2.953 -0.1106  0.1352  0.2374
16327TIP3    H270397   0.464   4.452   2.902  0.6129 -0.4211  0.2337
16328TIP3   OH270398   4.374   4.080  13.194  0.5982  0.2686 -0.3932
16328TIP3    H170399   4.309   4.146  13.217  0.6190  0.0664  0.2676
16328TIP3    H270400   4.450   4.130  13.165  0.6854  0.5499  0.2935
16329TIP3   OH270401   4.595   5.685  11.786 -0.4243  0.0357  0.0330
16329TIP3    H170402   4.570   5.595  11.805 -0.9188  0.3377  0.8520
16329TIP3    H270403   4.560   5.736  11.859  1.6176  0.6292  0.6695
16330TIP3   OH270404   0.899   6.508  13.772  0.3448  0.6758  0.2323
16330TIP3    H170405   0.886   6.551  13.687  0.6231  0.4617  0.0834
16330TIP3    H270406   0.902   6.415  13.752 -2.3498  0.3774  0.7709
16331TIP3   OH270407   4.327   4.412  11.670  0.2013  0.2231  0.0009
16331TIP3    H170408   4.359   4.423  11.580  1.2062  0.2198  0.3504
16331TIP3    H270409   4.381   4.342  11.706 -1.5675 -1.2355 -0.0207
16332TIP3   OH270410   5.940   5.469  14.412  0.5495  0.0978 -0.2659
16332TIP3    H170411   5.921   5.450  14.320  0.4302  0.5976 -0.3475
16332TIP3    H270412   5.962   5.562  14.413  1.1889 -0.0533  0.1141
16333TIP3   OH270413   2.652   4.440   6.159 -0.5938  0.2820  0.3741
16333TIP3    H170414   2.727   4.429   6.218 -0.9909  0.3768  0.9060
16333TIP3    H270415   2.631   4.533   6.164  0.4878  0.6552 -1.3223
16334TIP3   OH270416   5.524   4.040  11.799  0.2247  0.3286 -0.1270
16334TIP3    H170417   5.482   3.961  11.832 -1.5853  1.0878 -0.4492
16334TIP3    H270418   5.567   4.013  11.718  1.1216 -0.6711  0.6657
16335TIP3   OH270419   1.558   1.297  16.490  0.2303  0.2542 -0.1531
16335TIP3    H170420   1.498   1.271  16.421 -0.5074  1.6659 -0.0778
16335TIP3    H270421   1.626   1.229  16.490 -2.0883 -2.2548  0.7340
16336TIP3   OH270422   0.563   3.176   4.183 -0.0853  0.2138  0.4833
16336TIP3    H170423   0.576   3.159   4.276  0.8535 -0.1794  0.2901
16336TIP3    H270424   0.468   3.180   4.172 -0.2557 -1.4198  1.1788
16337TIP3   OH270425   2.151   1.788  16.085 -1.4238  0.0856 -0.4288
16337TIP3    H170426   2.204   1.735  16.144 -1.5688  1.8124  1.3384
16337TIP3    H270427   2.174   1.757  15.998  2.2036  0.4632  0.2309
16338TIP3   OH270428   0.989   1.640  12.422 -0.5473  0.0885 -0.1251
16338TIP3    H170429   1.034   1.725  12.425  1.8326 -1.0106 -1.4786
16338TIP3    H270430   1.039   1.589  12.358 -2.4642 -2.0471 -0.0442
16339TIP3   OH270431   6.053   4.979   5.154 -0.1744  0.1142  0.5388
16339TIP3    H170432   6.013   5.066   5.161  1.4349  0.7633  2.4342
16339TIP3    H270433   6.038   4.939   5.240  0.6513 -0.7754  0.2850
16340TIP3   OH270434   2.181   3.907   0.801 -0.8047  0.3314  0.3759
16340TIP3    H170435   2.231   3.882   0.722 -1.3651 -0.6780  0.3252
16340TIP3    H270436   2.119   3.835   0.813 -1.3857  0.9627  1.1804
16341TIP3   OH270437   2.633   0.110   6.124 -0.0876 -0.1407  0.3449
16341TIP3    H170438   2.541   0.096   6.148 -0.8859  1.6856 -1.4178
16341TIP3    H270439   2.648   0.203   6.138  0.4170  0.3287 -2.6648
16342TIP3   OH270440   3.749   1.007  15.632  1.0104 -0.2572  0.1779
16342TIP3    H170441   3.757   1.031  15.724  0.1520  0.9550 -0.0414
16342TIP3    H270442   3.794   0.922  15.625 -0.2577 -1.1476  2.0188
16343TIP3   OH270443   1.660   4.069   3.302 -0.0157 -0.0860  0.1498
16343TIP3    H170444   1.668   4.091   3.210 -0.6519  1.1507  0.3616
16343TIP3    H270445   1.566   4.057   3.317 -0.0304  0.7459  0.8324
16344TIP3   OH270446   2.619   5.909   1.117 -0.2564 -0.3075  0.1691
16344TIP3    H170447   2.667   5.871   1.191 -0.3143 -0.4368  0.1402
16344TIP3    H270448   2.626   6.004   1.130 -0.9024 -0.3386  0.7437
16345TIP3   OH270449   0.304   6.096   3.909 -0.2195 -0.4672 -0.3330
16345TIP3    H170450   0.240   6.166   3.921 -0.1147 -0.0975 -1.7939
16345TIP3    H270451   0.357   6.098   3.989 -0.9966  0.2951  0.1783
16346TIP3   OH270452   0.150   4.769  15.317  0.1713  0.0495 -0.2769
16346TIP3    H170453   0.230   4.821  15.311  0.5391 -0.4966 -0.1251
16346TIP3    H270454   0.173   4.694  15.372 -0.5659  0.1168  0.1352
16347TIP3   OH270455   2.287   4.014   0.314  0.1300  0.4387  0.0433
16347TIP3    H170456   2.327   4.048   0.394 -1.9363  2.2565  0.3956
16347TIP3    H270457   2.235   3.939   0.343 -0.0968  0.6916  0.2934
16348TIP3   OH270458   4.812   3.704   3.775 -0.2189  0.0649 -0.3766
16348TIP3    H170459   4.882   3.639   3.763  0.4995  0.7214  0.1187
16348TIP3    H270460   4.858   3.788   3.778 -0.8257  0.3930  1.6193
16349TIP3   OH270461   1.566   6.376   4.819 -0.0172  0.0091 -0.1845
16349TIP3    H170462   1.571   6.358   4.726 -0.2271 -0.8782 -0.0323
16349TIP3    H270463   1.635   6.441   4.835  1.9037 -1.8383 -0.4833
16350TIP3   OH270464   6.223   5.940  15.797  0.5533  0.7057  0.0422
16350TIP3    H170465   6.136   5.901  15.783  0.3538  0.3618  1.9752
16350TIP3    H270466   6.216   6.029  15.762  0.0738  0.0490 -1.6545
16351TIP3   OH270467   2.052   1.781   1.772 -0.3805 -0.2666  0.6752
16351TIP3    H170468   2.121   1.830   1.728 -0.8102  0.7467  1.1015
16351TIP3    H270469   1.978   1.784   1.712 -0.5562  0.0141  0.9028
16352TIP3   OH270470   2.151   4.740   0.356 -0.6366  0.2132  0.2560
16352TIP3    H170471   2.240   4.770   0.335  0.0919 -1.7364  0.3601
16352TIP3    H270472   2.144   4.655   0.315 -2.8452  0.7248 -0.5590
16353TIP3   OH270473   0.222   1.813  16.070 -0.3514  0.3014 -0.2678
16353TIP3    H170474   0.209   1.889  16.127  0.0691  0.0665  0.1514
16353TIP3    H270475   0.212   1.737  16.128  1.7465  0.0803 -0.1160
16354TIP3   OH270476   3.386   0.976  15.048  0.2531  0.4570  0.2393
16354TIP3    H170477   3.406   1.034  15.122  1.2311  2.2358 -1.3576
16354TIP3    H270478   3.463   0.981  14.992 -0.4200 -0.9659 -0.8808
16355TIP3   OH270479   6.662   3.857  16.072  0.3312  0.0279  0.1943
16355TIP3    H170480   6.612   3.776  16.081  0.4360 -0.1013 -0.3472
16355TIP3    H270481   6.716   3.844  15.994  0.7133  0.4284  0.3863
16356TIP3   OH270482   2.343   6.580  14.612 -0.0766  0.3898 -0.2448
16356TIP3    H170483   2.420   6.626  14.577 -0.3557  0.2457 -1.0631
16356TIP3    H270484   2.297   6.646  14.664 -0.0649  0.8244 -0.7837
16357TIP3   OH270485   6.474   0.487   3.744  0.2863 -0.1812  0.3479
16357TIP3    H170486   6.485   0.525   3.831  2.5294 -2.3214  1.1037
16357TIP3    H270487   6.404   0.422   3.755 -0.8467  0.9329 -0.0065
16358TIP3   OH270488   2.624   3.387  13.896  0.0598 -0.5222 -0.0374
16358TIP3    H170489   2.565   3.316  13.871 -1.3691  0.5002  0.3139
16358TIP3    H270490   2.579   3.432  13.967  1.7573 -0.3285  0.9719
16359TIP3   OH270491   0.588   2.085  14.939  0.3664  0.8012  0.4084
16359TIP3    H170492   0.673   2.104  14.899  0.2765  2.0546  0.7412
16359TIP3    H270493   0.578   2.152  15.007 -0.5644  0.2210  0.8704
16360TIP3   OH270494   6.228   0.858   1.845  0.0734 -0.1023  0.5541
16360TIP3    H170495   6.142   0.890   1.873 -0.6902  1.1963 -2.7973
16360TIP3    H270496   6.280   0.937   1.831  1.7754 -0.8573  2.2177
16361TIP3   OH270497   1.110   2.154   2.589 -0.1721 -0.1937  0.2385
16361TIP3    H170498   1.171   2.085   2.563  1.8254  0.8734  1.7458
16361TIP3    H270499   1.134   2.228   2.534  0.0824  0.3060  1.0042
16362TIP3   OH270500   0.423   1.499  11.699 -0.2964  0.2316  0.6701
16362TIP3    H170501   0.386   1.541  11.777 -0.5584 -0.1627  0.7617
16362TIP3    H270502   0.492   1.443  11.733 -0.8319 -0.4324  0.6951
16363TIP3   OH270503   3.497   6.306   4.090 -0.1842  0.5244 -0.2598
16363TIP3    H170504   3.469   6.345   4.173  0.6017 -0.7244  0.6500
16363TIP3    H270505   3.422   6.255   4.061 -0.3464  0.6881 -0.1308
16364TIP3   OH270506   6.069   5.342  13.399  0.1999  0.0147 -0.0313
16364TIP3    H170507   6.094   5.256  13.435 -0.2741 -0.0967  0.0347
16364TIP3    H270508   6.137   5.401  13.431  1.7244 -0.6883 -1.7850
16365TIP3   OH270509   0.376   3.886   4.470 -0.1018  0.5024 -0.0719
16365TIP3    H170510   0.447   3.844   4.421 -1.0079 -0.0423 -0.9340
16365TIP3    H270511   0.355   3.823   4.540 -0.1308  0.4028 -0.1703
16366TIP3   OH270512   5.668   6.079   5.953  0.0829  0.0381  0.1482
16366TIP3    H170513   5.666   6.118   5.865  0.3349 -0.6029 -0.1454
16366TIP3    H270514   5.672   6.155   6.012  0.8003  0.4608 -0.4214
16367TIP3   OH270515   1.306   5.679   2.117 -0.3953 -0.1631  0.0883
16367TIP3    H170516   1.333   5.595   2.080  1.0217  0.3786 -0.1931
16367TIP3    H270517   1.244   5.656   2.186  0.7329 -1.5318  0.7079
16368TIP3   OH270518   4.478   2.696   3.066 -0.2487 -0.6719  0.0991
16368TIP3    H170519   4.492   2.689   3.160 -0.2496  0.4323  0.1874
16368TIP3    H270520   4.450   2.786   3.052 -0.1127 -0.7849 -0.9771
16369TIP3   OH270521   5.099   5.315  14.454 -0.6705  0.3856 -0.2448
16369TIP3    H170522   5.031   5.319  14.387 -0.9273 -3.0912 -0.3852
16369TIP3    H270523   5.052   5.321  14.537 -0.9508 -0.1400 -0.3629
16370TIP3   OH270524   4.821   0.028  12.235 -0.4585 -0.2615  0.0848
16370TIP3    H170525   4.733  -0.009  12.224  0.1850 -1.5825 -0.8369
16370TIP3    H270526   4.879  -0.048  12.228  0.6682  0.2358  2.8175
16371TIP3   OH270527   3.796   5.642  15.360  0.3063  0.5161  0.2286
16371TIP3    H170528   3.851   5.628  15.437  2.1016  1.9780 -0.7033
16371TIP3    H270529   3.851   5.616  15.287 -0.8319  0.5495 -0.6609
16372TIP3   OH270530   5.987   5.838  11.101  0.5847 -0.2432 -0.0291
16372TIP3    H170531   5.912   5.778  11.107 -0.9318  1.6729  1.3160
16372TIP3    H270532   6.038   5.820  11.180  0.2335  0.1005  0.2780
16373TIP3   OH270533   4.926   1.140  12.537  0.4397  0.4250 -0.4135
16373TIP3    H170534   4.937   1.054  12.497 -0.0579  0.0973  0.1549
16373TIP3    H270535   4.851   1.178  12.492 -1.1291 -0.5764  1.2578
16374TIP3   OH270536   2.710   5.549   6.473  0.1888  0.3966 -0.0562
16374TIP3    H170537   2.794   5.588   6.448  0.7027  0.0283  1.0561
16374TIP3    H270538   2.681   5.503   6.394  1.2579  0.1498 -0.3167
16375TIP3   OH270539   2.311   4.731  12.328  0.4027 -0.0091 -0.0827
16375TIP3    H170540   2.309   4.649  12.378 -0.1868  0.2280  0.2936
16375TIP3    H270541   2.373   4.786  12.376  0.8876 -0.2628 -0.4002
16376TIP3   OH270542   0.248   0.303  15.316  0.5059 -0.1818 -0.3523
16376TIP3    H170543   0.166   0.350  15.334  0.4696 -0.3673 -0.0411
16376TIP3    H270544   0.307   0.371  15.282  0.1672 -0.0811 -0.7516
16377TIP3   OH270545   4.948   5.624  13.866  0.4638  0.9633  0.1568
16377TIP3    H170546   4.952   5.704  13.919  0.7281  1.2502 -0.2903
16377TIP3    H270547   4.980   5.650  13.780  1.3828  0.1775  0.2423
16378TIP3   OH270548   1.921   0.465  16.728  0.0528  0.1099  0.1000
16378TIP3    H170549   1.973   0.394  16.690 -0.2543 -0.2038  0.2648
16378TIP3    H270550   1.978   0.501  16.797 -0.4228 -1.0546  1.1302
16379TIP3   OH270551   4.908   2.128   3.262  0.1950 -0.7741  0.5387
16379TIP3    H170552   4.971   2.133   3.190 -0.1038 -1.6434  0.1947
16379TIP3    H270553   4.829   2.170   3.229  0.1124 -1.0236  0.4176
16380TIP3   OH270554   4.609   1.497  16.183  0.0265  0.4324  0.2083
16380TIP3    H170555   4.694   1.537  16.200 -0.6783  1.9959  0.1350
16380TIP3    H270556   4.573   1.548  16.111 -0.3940 -1.1190 -0.7390
16381TIP3   OH270557   4.086   4.503  16.233  0.7127  0.2416 -0.6390
16381TIP3    H170558   4.106   4.517  16.141  0.4040  0.0414 -0.7400
16381TIP3    H270559   4.021   4.432  16.233  0.5300  0.4045 -0.2841
16382TIP3   OH270560   6.533   1.868  11.859  0.4427 -0.8378  0.4369
16382TIP3    H170561   6.536   1.796  11.922 -0.3992 -2.2856 -1.0648
16382TIP3    H270562   6.616   1.861  11.812  1.1108  0.2965  1.4253
16383TIP3   OH270563   3.423   4.414   4.489 -0.9468  0.3638  0.0155
16383TIP3    H170564   3.477   4.339   4.465  0.3790  0.5334  2.1820
16383TIP3    H270565   3.333   4.387   4.471 -0.2892 -0.3527 -2.6406
16384TIP3   OH270566   4.232   0.462   1.086  0.5160 -0.3488  0.0339
16384TIP3    H170567   4.220   0.528   1.154  1.5750 -0.1951  0.0851
16384TIP3    H270568   4.143   0.433   1.064  0.1450 -0.1427  1.2201
16385TIP3   OH270569   6.513   0.783   3.345 -0.2574  0.2399  0.1885
16385TIP3    H170570   6.554   0.735   3.417 -0.2032 -0.2052 -0.1324
16385TIP3    H270571   6.424   0.748   3.340 -0.2405  0.2196  0.0015
16386TIP3   OH270572   3.012   0.290   5.891  0.0974  0.4122 -0.0776
16386TIP3    H170573   3.042   0.245   5.970 -0.5540  0.9723  0.4938
16386TIP3    H270574   2.927   0.251   5.871 -0.5979  1.5545  0.5744
16387TIP3   OH270575   3.225   0.452  13.894  0.2782 -0.0962  0.1932
16387TIP3    H170576   3.266   0.476  13.977  1.6062 -0.4668 -0.3191
16387TIP3    H270577   3.136   0.425  13.917 -0.1460  2.0095  1.1918
16388TIP3   OH270578   5.515   3.221  13.253 -0.0167  0.4700  0.2917
16388TIP3    H170579   5.426   3.241  13.284 -1.0558 -0.7486 -1.7127
16388TIP3    H270580   5.502   3.170  13.174  2.5112 -0.4811  0.4044
16389TIP3   OH270581   4.145   5.748   3.103  0.0465 -0.1273  0.1761
16389TIP3    H170582   4.165   5.684   3.035  0.1618  3.1048 -3.1303
16389TIP3    H270583   4.230   5.788   3.124 -0.2101 -0.0516  1.1305
16390TIP3   OH270584   1.243   2.954   1.251  0.5736  0.1047  0.1917
16390TIP3    H170585   1.271   2.864   1.270 -0.0433 -0.0806  0.2397
16390TIP3    H270586   1.219   2.990   1.336 -1.2226 -0.3949 -0.0659
16391TIP3   OH270587   6.051   0.783   6.799 -0.4130 -0.4946  0.0949
16391TIP3    H170588   6.032   0.689   6.798 -0.9420 -0.4110 -1.4505
16391TIP3    H270589   5.965   0.825   6.808 -0.3821 -0.1628 -1.0019
16392TIP3   OH270590   6.216   4.336   4.990  0.3039  0.7334  0.2280
16392TIP3    H170591   6.150   4.406   4.987 -2.3206 -1.5677  0.1330
16392TIP3    H270592   6.249   4.331   4.901 -0.9668  0.5959 -0.2597
16393TIP3   OH270593   5.619   1.849   0.503  0.9284  0.6744 -0.3744
16393TIP3    H170594   5.589   1.789   0.570  0.1548  0.7351 -0.6528
16393TIP3    H270595   5.608   1.801   0.421  3.1524  0.0805 -0.3938
16394TIP3   OH270596   1.693   1.134   2.820  0.2866 -1.0458  0.1864
16394TIP3    H170597   1.612   1.133   2.770  0.3422 -0.8315  0.0887
16394TIP3    H270598   1.733   1.049   2.803  0.7730 -0.6251 -0.9203
16395TIP3   OH270599   1.481   1.364  11.603  0.1619 -0.3157  0.0063
16395TIP3    H170600   1.544   1.433  11.623 -1.5280  1.5928 -0.9590
16395TIP3    H270601   1.491   1.349  11.508 -0.9094  0.0986 -0.1796
16396TIP3   OH270602   3.915   6.191  16.303 -0.0710  0.4352 -0.1009
16396TIP3    H170603   3.828   6.229  16.295 -0.0820  0.2516 -0.8743
16396TIP3    H270604   3.972   6.250  16.255 -0.0771 -0.4713 -1.2533
16397TIP3   OH270605   1.082   4.710  15.121  0.2165  0.5065  0.1334
16397TIP3    H170606   1.072   4.784  15.181 -0.7261  0.6612 -0.1869
16397TIP3    H270607   1.115   4.749  15.039  0.2805  0.4875  0.1505
16398TIP3   OH270608   2.737   6.630  15.817 -0.2161  0.6495 -0.2433
16398TIP3    H170609   2.683   6.695  15.771 -1.2713 -0.6089 -0.8538
16398TIP3    H270610   2.790   6.590  15.748  0.1949  0.6365  0.0770
16399TIP3   OH270611   0.792   1.726   1.956 -0.3096  0.1288  0.1506
16399TIP3    H170612   0.747   1.642   1.953  0.6751 -0.4441  0.6882
16399TIP3    H270613   0.831   1.736   1.870 -0.2064 -0.0952  0.1707
16400TIP3   OH270614   1.593   1.632  11.700 -0.3778  0.1109 -0.2150
16400TIP3    H170615   1.584   1.641  11.606  1.1254  0.9637 -0.2950
16400TIP3    H270616   1.660   1.695  11.725 -0.1014 -0.7235  1.3009
16401TIP3   OH270617   6.401   3.794  17.083  0.1403  0.4728  0.1606
16401TIP3    H170618   6.308   3.773  17.083  0.1351  0.4521 -1.0313
16401TIP3    H270619   6.409   3.869  17.143 -0.3078 -0.8246  1.9359
16402TIP3   OH270620   4.288   4.727   1.161  0.4498 -0.4970  0.3974
16402TIP3    H170621   4.265   4.790   1.093 -2.0916 -1.8816 -0.1437
16402TIP3    H270622   4.371   4.760   1.197  0.3281  1.9183 -1.2893
16403TIP3   OH270623   3.136   3.548  12.283 -0.1429  0.3931 -0.0284
16403TIP3    H170624   3.185   3.467  12.266 -0.7927 -0.2891  1.2232
16403TIP3    H270625   3.180   3.588  12.358 -0.5671  0.5674  0.1334
16404TIP3   OH270626   6.470   2.761   4.729 -0.3691  0.4315  0.1917
16404TIP3    H170627   6.460   2.834   4.669  0.4313 -1.0993 -1.9140
16404TIP3    H270628   6.556   2.724   4.707 -1.1698 -1.7197  0.4920
16405TIP3   OH270629   1.110   6.159  11.099  0.6550  0.7228 -0.2515
16405TIP3    H170630   1.026   6.127  11.066  0.1580  1.4484  0.2544
16405TIP3    H270631   1.126   6.239  11.049  0.7769  0.8678  0.0196
16406TIP3   OH270632   2.878   6.349  13.697 -0.1861  0.3700  0.0582
16406TIP3    H170633   2.846   6.282  13.636  0.0945  0.6474 -0.3977
16406TIP3    H270634   2.953   6.308  13.740 -1.3063 -0.3984  1.3533
16407TIP3   OH270635   4.717   2.634   4.169  0.2604 -0.6291 -0.6395
16407TIP3    H170636   4.777   2.573   4.210 -0.5540 -1.1738 -0.2421
16407TIP3    H270637   4.732   2.717   4.215  1.1304 -0.6052 -0.9575
16408TIP3   OH270638   5.429   6.544  11.701 -0.2842  0.1279  0.3073
16408TIP3    H170639   5.500   6.586  11.749  0.4751 -0.3515 -0.3617
16408TIP3    H270640   5.382   6.494  11.768  0.9396 -0.7782  0.5383
16409TIP3   OH270641   6.346   0.972   2.099  0.9255  0.2716 -0.0306
16409TIP3    H170642   6.386   1.049   2.140 -0.1453  1.0971 -0.5021
16409TIP3    H270643   6.350   0.989   2.005 -0.7891  0.5313 -0.0857
16410TIP3   OH270644   3.936   5.880  15.773 -0.5461 -0.7984  0.4508
16410TIP3    H170645   3.876   5.876  15.699  1.7217 -1.0210 -1.5009
16410TIP3    H270646   4.004   5.815  15.753  0.4862 -0.4364  2.4283
16411TIP3   OH270647   4.707   3.927   0.977  0.2306 -0.1994  0.4818
16411TIP3    H170648   4.773   3.955   0.913 -0.0478  0.5460  0.5076
16411TIP3    H270649   4.726   3.835   0.993  0.4874 -0.3164 -0.4562
16412TIP3   OH270650   0.347   3.986  14.033  0.2490 -0.0418  0.7392
16412TIP3    H170651   0.335   3.912  13.975  1.1203  0.2131  0.2167
16412TIP3    H270652   0.269   3.986  14.089 -1.6325  0.8752 -1.6946
16413TIP3   OH270653   4.656   6.586  16.272  0.0631  0.3653 -0.9953
16413TIP3    H170654   4.670   6.674  16.238  1.4056 -0.2475 -2.0904
16413TIP3    H270655   4.569   6.590  16.312 -0.0970  2.0506 -1.4350
16414TIP3   OH270656   2.849   2.908   0.331 -0.2582 -0.2735 -0.6038
16414TIP3    H170657   2.785   2.908   0.261 -0.5049  2.6628 -0.5112
16414TIP3    H270658   2.819   2.976   0.392  0.4106 -2.0934  1.9543
16415TIP3   OH270659   0.487   1.070  11.658  0.2188 -0.3015  0.0887
16415TIP3    H170660   0.580   1.060  11.642  0.1336  0.4377 -0.9348
16415TIP3    H270661   0.482   1.122  11.739  0.7496  1.8543 -1.1791
16416TIP3   OH270662   0.109   6.232  15.246 -1.0632 -0.3639 -0.3174
16416TIP3    H170663   0.157   6.314  15.236 -1.6596  0.1758  0.9240
16416TIP3    H270664   0.067   6.240  15.332  0.2980 -2.7090  0.6629
16417TIP3   OH270665   1.689   5.198   5.298 -0.5049  0.5625  0.0644
16417TIP3    H170666   1.690   5.128   5.232 -0.1554 -1.6462  2.2441
16417TIP3    H270667   1.619   5.173   5.358  1.2700  0.6230  2.3004
16418TIP3   OH270668   2.930   6.297   5.242  0.1923 -0.2942 -0.6146
16418TIP3    H170669   2.991   6.370   5.248  0.7808 -0.8717  1.7716
16418TIP3    H270670   2.847   6.332   5.273 -0.1386 -0.0660 -1.7355
16419TIP3   OH270671   3.400   2.106   2.289 -0.1694 -0.3207 -0.3042
16419TIP3    H170672   3.492   2.132   2.293 -0.5137  0.8033  1.4573
16419TIP3    H270673   3.365   2.153   2.214  0.4297  0.1689 -0.2830
16420TIP3   OH270674   6.388   5.134   3.299 -0.2130 -0.5741 -0.1698
16420TIP3    H170675   6.418   5.193   3.368 -1.1665  2.8317 -2.4177
16420TIP3    H270676   6.462   5.075   3.283  1.0993  0.4610  1.6781
16421TIP3   OH270677   4.916   4.717  10.932  0.3577  0.6546 -0.1494
16421TIP3    H170678   4.919   4.810  10.955  0.8908  0.9725 -1.3954
16421TIP3    H270679   4.910   4.717  10.836  2.3233 -0.5721 -0.3334
16422TIP3   OH270680   4.378   2.769   5.287  0.3836  0.6655 -0.2963
16422TIP3    H170681   4.394   2.748   5.379 -0.9957  0.2822 -0.1325
16422TIP3    H270682   4.428   2.849   5.272  1.1534  0.3716  0.6017
16423TIP3   OH270683   4.989   1.845   3.672  0.7491  0.1113  0.3223
16423TIP3    H170684   5.084   1.854   3.669  0.6331  1.7860  0.9311
16423TIP3    H270685   4.957   1.898   3.599  0.3111 -1.6447 -0.8251
16424TIP3   OH270686   2.074   6.479  13.874  0.0341  0.1195 -0.0024
16424TIP3    H170687   2.151   6.422  13.861 -0.2868 -0.4734  0.5959
16424TIP3    H270688   2.102   6.564  13.841  1.8926  0.6199  2.5308
16425TIP3   OH270689   3.339   3.425   1.436  0.0894  0.3619  0.3557
16425TIP3    H170690   3.383   3.452   1.356 -0.0601  0.5670  0.3394
16425TIP3    H270691   3.375   3.339   1.456 -0.7233 -0.2198 -0.5814
16426TIP3   OH270692   0.914   3.252   2.622 -0.2390 -0.1053 -0.3350
16426TIP3    H170693   0.886   3.187   2.557  2.7059 -1.2480 -0.6028
16426TIP3    H270694   0.893   3.213   2.706  2.0928 -1.8360 -0.4686
16427TIP3   OH270695   4.906   2.778   3.862  0.4502 -0.5571 -0.1979
16427TIP3    H170696   4.984   2.737   3.824 -0.0574 -0.3140 -1.5675
16427TIP3    H270697   4.884   2.848   3.800 -0.5961 -0.3420  0.4056
16428TIP3   OH270698   5.981   4.049   3.017 -0.1144  0.0574  0.1725
16428TIP3    H170699   6.050   4.078   2.957 -0.1466  0.1778  0.1921
16428TIP3    H270700   5.908   4.108   2.999 -0.3711 -0.3574 -0.1667
16429TIP3   OH270701   3.260   2.804  11.539 -0.2343  0.4070  0.0389
16429TIP3    H170702   3.329   2.828  11.601 -0.2993  1.2020 -0.1955
16429TIP3    H270703   3.288   2.719  11.504  0.1958  0.3244  0.5721
16430TIP3   OH270704   0.758   2.465   1.263 -0.0186 -0.5318  0.5502
16430TIP3    H170705   0.724   2.554   1.269  2.0749  0.3025  0.5573
16430TIP3    H270706   0.682   2.410   1.284 -1.2304  1.2317  1.0573
16431TIP3   OH270707   5.999   6.243  12.247 -0.0777 -0.0730 -0.8444
16431TIP3    H170708   6.046   6.175  12.296 -0.0926 -0.8984 -1.9313
16431TIP3    H270709   5.928   6.269  12.305  0.0960 -0.7970 -0.2872
16432TIP3   OH270710   4.050   0.564  10.687  0.3042  0.1250  0.2282
16432TIP3    H170711   4.011   0.643  10.649  0.6610 -0.6204 -1.8048
16432TIP3    H270712   4.049   0.580  10.782 -1.3468  1.7522 -0.0088
16433TIP3   OH270713   2.332   5.529  14.393 -0.0912  0.2842  0.0305
16433TIP3    H170714   2.292   5.445  14.368 -0.6204 -0.1054  2.0526
16433TIP3    H270715   2.262   5.593  14.380 -0.0397  0.2567 -0.4185
16434TIP3   OH270716   5.123   6.645   1.727  0.1814  0.4245  0.4121
16434TIP3    H170717   5.066   6.722   1.725 -0.8547 -0.3214 -1.2241
16434TIP3    H270718   5.092   6.595   1.803 -0.1076  0.9022  0.6191
16435TIP3   OH270719   4.038   3.169   0.302  0.0112  0.4500 -0.2553
16435TIP3    H170720   4.091   3.091   0.318  0.3692  1.0548  1.7326
16435TIP3    H270721   3.949   3.135   0.290  0.1942 -0.2804  0.3709
16436TIP3   OH270722   2.838   6.139  16.206 -0.1214  0.4765 -0.2879
16436TIP3    H170723   2.767   6.178  16.155  0.7703  0.3147 -1.7198
16436TIP3    H270724   2.795   6.097  16.280 -1.6784 -0.7077 -1.7873
16437TIP3   OH270725   2.394   1.240   1.082  0.0187  0.2386  0.1670
16437TIP3    H170726   2.384   1.309   1.017 -0.5652  2.1147  2.1360
16437TIP3    H270727   2.379   1.159   1.033 -0.2759  1.5399 -2.0336
16438TIP3   OH270728   4.532   1.658   4.427  0.2813  0.7263 -0.1906
16438TIP3    H170729   4.447   1.693   4.401 -0.1736 -1.3679 -1.7560
16438TIP3    H270730   4.595   1.725   4.398 -0.7512  1.9788  0.3669
16439TIP3   OH270731   5.040   1.423   0.751 -0.4902 -0.5193  0.1674
16439TIP3    H170732   5.064   1.398   0.661 -0.7610  1.3350 -0.4713
16439TIP3    H270733   4.957   1.470   0.741 -0.6231 -0.4547  1.4355
16440TIP3   OH270734   6.628   3.185   4.679 -0.2464  0.4437 -0.6666
16440TIP3    H170735   6.542   3.204   4.715 -0.5146 -0.6888 -0.6731
16440TIP3    H270736   6.613   3.113   4.617  0.9419 -1.1015  0.7246
16441TIP3   OH270737   4.526   1.022   0.207 -0.0840 -0.2964 -0.5353
16441TIP3    H170738   4.499   1.113   0.223  1.2237 -0.0146  0.2569
16441TIP3    H270739   4.463   0.969   0.255 -1.5378  0.0998 -1.9071
16442TIP3   OH270740   3.586   3.337   6.171 -0.1537  0.1030  0.1741
16442TIP3    H170741   3.636   3.305   6.246  0.9134 -0.8691 -0.8873
16442TIP3    H270742   3.575   3.259   6.115 -0.2150  0.9474 -1.0431
16443TIP3   OH270743   4.199   3.072  13.795  0.5450  0.1976  0.5181
16443TIP3    H170744   4.206   3.135  13.724  0.2201  1.3253  1.4573
16443TIP3    H270745   4.107   3.076  13.822  0.7900  0.2312  1.3853
16444TIP3   OH270746   2.988   1.073  15.991 -0.2771 -0.1187  0.4786
16444TIP3    H170747   2.920   1.044  15.929 -0.7427  1.1269  0.3747
16444TIP3    H270748   3.070   1.062  15.944 -0.6594  1.2464 -0.5865
16445TIP3   OH270749   6.219   5.315  15.766  0.1274 -0.2517 -0.2891
16445TIP3    H170750   6.128   5.340  15.782 -0.3277 -0.1373 -2.6552
16445TIP3    H270751   6.215   5.224  15.739  0.4246  0.2820 -2.2891
16446TIP3   OH270752   3.807   3.160   5.126  0.3769 -0.4391  0.1098
16446TIP3    H170753   3.778   3.074   5.156  2.6881 -0.6778  1.9866
16446TIP3    H270754   3.812   3.213   5.206  0.1407  1.0910 -0.8412
16447TIP3   OH270755   1.954   4.750   4.983  0.5471 -0.1954 -0.0669
16447TIP3    H170756   1.959   4.845   4.978  2.4357 -0.2986 -0.7442
16447TIP3    H270757   1.964   4.721   4.893  0.6152 -1.0595  0.2135
16448TIP3   OH270758   4.220   2.344  12.104  0.0376  0.7691 -0.2269
16448TIP3    H170759   4.282   2.330  12.032  3.0583  0.3157  2.2688
16448TIP3    H270760   4.191   2.435  12.094  1.0482  0.9728 -1.5110
16449TIP3   OH270761   6.537   6.112   1.166 -0.5137  0.7257 -0.5056
16449TIP3    H170762   6.594   6.079   1.235 -1.7435  0.9972  0.6756
16449TIP3    H270763   6.449   6.101   1.200 -1.1750  0.6657 -2.1318
16450TIP3   OH270764   0.355   0.060  13.755  0.4699  0.1586 -0.7048
16450TIP3    H170765   0.285   0.099  13.808 -0.5926 -0.4825 -1.5797
16450TIP3    H270766   0.431   0.059  13.812 -0.9433 -1.6954  1.2751
16451TIP3   OH270767   0.705   5.886   4.822  0.0427  0.1190 -0.2706
16451TIP3    H170768   0.735   5.860   4.909  1.1060 -0.4099 -0.7746
16451TIP3    H270769   0.611   5.898   4.832  0.3802  1.9825  1.4205
16452TIP3   OH270770   4.950   3.685  16.235  0.0139 -0.0450  0.5843
16452TIP3    H170771   4.987   3.599  16.254  1.6598  1.0840  2.9735
16452TIP3    H270772   4.944   3.728  16.320 -0.3503  2.3798 -0.5789
16453TIP3   OH270773   5.024   3.845   5.113 -0.1521 -0.5267 -0.1800
16453TIP3    H170774   4.955   3.900   5.149 -0.1377 -0.0229 -0.8946
16453TIP3    H270775   5.022   3.863   5.019  1.2906 -0.1029 -0.1547
16454TIP3   OH270776   1.369   6.089  12.994 -0.3165 -0.9959  0.4335
16454TIP3    H170777   1.276   6.072  13.009 -0.3805 -1.0668 -0.0386
16454TIP3    H270778   1.393   6.029  12.923 -0.0012 -0.7187  0.3062
16455TIP3   OH270779   0.414   2.136  16.454  0.1980 -0.6517  0.1036
16455TIP3    H170780   0.488   2.100  16.503 -0.4471 -0.9361  0.8918
16455TIP3    H270781   0.454   2.184  16.381  1.1413 -1.0512  0.3449
16456TIP3   OH270782   4.850   1.402  17.371 -0.3386  0.0789  0.0892
16456TIP3    H170783   4.939   1.423  17.343 -1.2625  3.3014 -0.8101
16456TIP3    H270784   4.812   1.354  17.297  0.2302 -0.1157 -0.0792
16457TIP3   OH270785   1.110   1.963   0.559  0.1774 -0.1385 -0.4831
16457TIP3    H170786   1.064   2.040   0.594 -1.2197 -0.4515 -1.5290
16457TIP3    H270787   1.128   1.909   0.635 -0.0211  0.6120  0.1114
16458TIP3   OH270788   2.620   2.701   4.484 -0.4092 -0.5432 -0.3867
16458TIP3    H170789   2.713   2.709   4.465  0.4831 -1.4088  3.0560
16458TIP3    H270790   2.611   2.615   4.526 -2.7630 -0.4546 -0.5825
16459TIP3   OH270791   2.892   5.889   1.815 -0.1141 -0.1615 -0.0356
16459TIP3    H170792   2.919   5.898   1.724  1.4232 -1.6131  0.2236
16459TIP3    H270793   2.880   5.795   1.827  0.8427 -0.1153  1.5465
16460TIP3   OH270794   6.354   4.529   2.309  0.3456  0.8225  0.0505
16460TIP3    H170795   6.350   4.570   2.222 -0.6935  0.3017 -0.1600
16460TIP3    H270796   6.420   4.461   2.300  1.0942  1.5398  0.0116
16461TIP3   OH270797   5.788   4.102  16.624 -0.7797 -0.6412 -0.2774
16461TIP3    H170798   5.797   4.023  16.571 -0.6000 -1.0586  0.3646
16461TIP3    H270799   5.825   4.172  16.570 -0.2542 -1.1217 -0.5478
16462TIP3   OH270800   0.216   1.663   1.780  0.2151 -0.1001  0.2734
16462TIP3    H170801   0.151   1.717   1.824 -1.4818 -1.7476 -0.0585
16462TIP3    H270802   0.263   1.619   1.850  0.8850  0.9506  0.5101
16463TIP3   OH270803   5.034   3.598  16.937 -0.7284 -0.1628 -0.4319
16463TIP3    H170804   4.952   3.607  16.986 -0.1876 -1.8756  0.8703
16463TIP3    H270805   5.019   3.525  16.877 -0.3364 -0.0845 -0.6299
16464TIP3   OH270806   0.482   2.136  13.750  0.6093 -0.1415 -0.3878
16464TIP3    H170807   0.569   2.097  13.739  1.3420  1.3465 -0.1258
16464TIP3    H270808   0.450   2.101  13.833  1.7591  0.6906  0.4401
16465TIP3   OH270809   3.252   2.643   5.137 -0.3413 -0.3815 -0.2965
16465TIP3    H170810   3.347   2.650   5.121 -0.1094 -0.9146  0.7649
16465TIP3    H270811   3.214   2.717   5.089  0.5396 -0.5372 -1.2859
16466TIP3   OH270812   5.501   0.477  15.186  0.1719 -1.2265  0.2323
16466TIP3    H170813   5.582   0.442  15.151  1.5852 -1.0101  2.9838
16466TIP3    H270814   5.513   0.572  15.188 -1.2681 -0.9558 -1.7611
16467TIP3   OH270815   5.566   6.102   3.655 -0.1434 -0.4044 -0.1478
16467TIP3    H170816   5.474   6.127   3.665  0.3864  0.9099  1.9018
16467TIP3    H270817   5.562   6.012   3.622 -2.1672 -0.6390  0.5626
16468TIP3   OH270818   3.965   6.520  12.008 -0.2658  0.4522 -0.2010
16468TIP3    H170819   4.037   6.558  12.060 -1.0751  0.9075  0.6229
16468TIP3    H270820   3.900   6.590  12.003 -1.0641 -0.2675 -0.1018
16469TIP3   OH270821   1.997   1.031   3.888 -0.0839 -1.0651  0.5067
16469TIP3    H170822   2.043   1.096   3.942  0.2953 -1.6692  0.9330
16469TIP3    H270823   2.021   1.052   3.798 -0.8196  0.0358  0.5442
16470TIP3   OH270824   5.986   3.832  10.803  0.7170 -0.0153 -0.1199
16470TIP3    H170825   5.938   3.862  10.726 -0.5693 -2.0695 -0.2019
16470TIP3    H270826   6.078   3.843  10.780  0.3457  0.3863 -1.5220
16471TIP3   OH270827   5.881   5.493   5.369  0.9105  0.0062  0.8013
16471TIP3    H170828   5.881   5.412   5.420 -0.9708  0.2407  1.2269
16471TIP3    H270829   5.809   5.482   5.306 -0.1533  1.7716  1.6280
16472TIP3   OH270830   6.124   4.606  15.784 -0.4464  0.3149 -0.1205
16472TIP3    H170831   6.083   4.617  15.870 -2.2653 -0.4857 -0.8470
16472TIP3    H270832   6.175   4.686  15.772 -1.2546  1.0529  1.1173
16473TIP3   OH270833   5.585   3.278  16.576  0.2774 -0.2372 -0.2755
16473TIP3    H170834   5.591   3.336  16.500 -0.6123  0.6061  0.2728
16473TIP3    H270835   5.568   3.336  16.650 -0.2127 -1.1554  0.3602
16474TIP3   OH270836   0.578   1.170  10.495  0.1489  0.2890  0.4680
16474TIP3    H170837   0.588   1.258  10.530 -0.5115  0.3164  0.6158
16474TIP3    H270838   0.534   1.182  10.411 -0.3395  0.0764  0.6884
16475TIP3   OH270839   4.408   0.165  13.734 -0.0910  0.2171 -0.2611
16475TIP3    H170840   4.487   0.207  13.701  0.3147 -0.0385  0.3725
16475TIP3    H270841   4.422   0.072  13.717 -0.8708  0.2963 -1.4217
16476TIP3   OH270842   4.956   2.493   4.880  0.0857  0.0634  0.1432
16476TIP3    H170843   5.027   2.555   4.892  1.9833 -2.2667  1.9024
16476TIP3    H270844   4.934   2.498   4.787  2.8992  0.5441 -0.5710
16477TIP3   OH270845   5.501   3.792   4.480  0.3605  0.5030 -0.1370
16477TIP3    H170846   5.433   3.735   4.445  0.4610  0.2043  0.1437
16477TIP3    H270847   5.476   3.807   4.571  0.2756  1.0019 -0.2443
16478TIP3   OH270848   3.317   3.597  14.969  0.0561 -0.0720 -0.4703
16478TIP3    H170849   3.304   3.522  14.911  1.4209  0.2799 -1.2883
16478TIP3    H270850   3.330   3.559  15.056 -0.4063 -0.7093 -0.6747
16479TIP3   OH270851   1.745   2.730  17.400  0.2869  0.5551 -0.2780
16479TIP3    H170852   1.839   2.727  17.382  0.8344 -0.7497  2.2902
16479TIP3    H270853   1.739   2.742  17.495 -2.1526  0.4383 -0.3521
16480TIP3   OH270854   1.945   1.340   0.728  0.1308  0.2063 -0.3651
16480TIP3    H170855   1.990   1.272   0.777 -1.5872  0.1071  1.1752
16480TIP3    H270856   1.976   1.329   0.638  2.0107 -0.7579  0.3439
16481TIP3   OH270857   5.200   3.890  15.062 -0.4014 -0.1567 -0.0724
16481TIP3    H170858   5.207   3.982  15.037  0.5836 -0.6739 -1.8768
16481TIP3    H270859   5.118   3.861  15.021 -0.7080 -0.1074  0.4908
16482TIP3   OH270860   3.537   3.141   4.034  0.2165 -0.2900 -0.1642
16482TIP3    H170861   3.489   3.210   3.988  0.3461 -1.1573 -1.6675
16482TIP3    H270862   3.473   3.106   4.096  0.6060  2.1631  1.8021
16483TIP3   OH270863   4.773   0.547   0.431  0.2032 -0.3967 -0.2481
16483TIP3    H170864   4.819   0.502   0.502 -0.3412  0.1006  0.4218
16483TIP3    H270865   4.843   0.578   0.373  0.6460 -0.8176  0.0600
16484TIP3   OH270866   1.027   6.419   3.545  0.3124  0.2411  0.1696
16484TIP3    H170867   0.936   6.444   3.526  0.3775  0.0428 -0.4326
16484TIP3    H270868   1.022   6.326   3.566  0.5146 -0.0374 -0.9641
16485TIP3   OH270869   1.792   1.368  11.653  0.2109 -0.1395  0.3047
16485TIP3    H170870   1.762   1.284  11.687 -1.7794  1.1465  1.9477
16485TIP3    H270871   1.822   1.348  11.564 -1.9960 -2.2888 -0.0708
16486TIP3   OH270872   4.262   1.293  14.703 -0.4724 -0.4242  0.3618
16486TIP3    H170873   4.244   1.374  14.656  1.1614 -0.9362 -1.2908
16486TIP3    H270874   4.267   1.318  14.795 -0.7748  1.1894 -0.0435
16487TIP3   OH270875   4.327   4.797  16.099  0.0610  0.2110 -0.2927
16487TIP3    H170876   4.403   4.855  16.111 -0.6970  0.9769  0.9428
16487TIP3    H270877   4.251   4.855  16.105 -0.7227 -0.8961  1.0062
16488TIP3   OH270878   3.177   5.250   1.977 -0.0917  0.0688 -0.9649
16488TIP3    H170879   3.268   5.268   1.953  0.3696 -0.4293  0.2921
16488TIP3    H270880   3.164   5.299   2.059 -1.0323  0.3303 -1.2633
16489TIP3   OH270881   0.420   1.886   1.776 -0.4232  0.0873  0.1184
16489TIP3    H170882   0.398   1.978   1.763 -0.1119 -0.0093 -1.2882
16489TIP3    H270883   0.342   1.838   1.748  0.1728 -0.1244 -1.2829
16490TIP3   OH270884   6.578   2.957  11.643 -0.0957 -0.1233  0.0210
16490TIP3    H170885   6.496   2.957  11.594  0.2578 -0.2016 -0.5782
16490TIP3    H270886   6.589   2.866  11.672  0.9707 -0.6708 -1.9474
16491TIP3   OH270887   2.963   4.538  10.624 -0.0546 -0.2469 -0.4011
16491TIP3    H170888   2.920   4.457  10.652  0.3277 -0.4654 -0.4397
16491TIP3    H270889   3.021   4.561  10.696 -0.4700  0.2227 -0.2135
16492TIP3   OH270890   3.887   5.244  15.236  0.3340  0.6239 -0.2874
16492TIP3    H170891   3.903   5.152  15.214 -1.0654 -0.8762  3.8789
16492TIP3    H270892   3.963   5.269  15.289 -0.9340  0.5423  1.6697
16493TIP3   OH270893   0.167   2.028   5.557 -0.4369 -0.5735  0.0587
16493TIP3    H170894   0.251   2.056   5.520 -0.4858  0.8585  0.9588
16493TIP3    H270895   0.189   1.994   5.643 -0.6523 -1.2559 -0.1541
16494TIP3   OH270896   4.643   5.756   3.960 -0.6411 -0.8847  0.4254
16494TIP3    H170897   4.561   5.722   3.924 -0.6143  0.1174 -0.6398
16494TIP3    H270898   4.709   5.733   3.894 -0.5861  0.9903 -0.2375
16495TIP3   OH270899   2.414   5.868   1.955  0.0894 -0.1608 -0.4639
16495TIP3    H170900   2.370   5.922   2.020  0.3260  0.0087 -0.4440
16495TIP3    H270901   2.507   5.891   1.963  0.0587  0.2839 -1.2509
16496TIP3   OH270902   2.490   3.636  12.298  0.2985 -0.5185  0.0264
16496TIP3    H170903   2.466   3.703  12.362  3.3816  0.1504  0.6175
16496TIP3    H270904   2.521   3.562  12.351  0.7254 -0.8534 -0.6800
16497TIP3   OH270905   3.941   4.056   3.773  0.8854  0.4794 -0.1071
16497TIP3    H170906   4.020   4.066   3.721  1.1608  1.6951  0.5218
16497TIP3    H270907   3.895   3.982   3.732  1.7516  0.5246 -1.2149
16498TIP3   OH270908   4.825   4.941   3.252  0.1059 -0.4687  0.1789
16498TIP3    H170909   4.844   5.029   3.284  0.7528 -1.4872  2.8698
16498TIP3    H270910   4.906   4.914   3.207 -0.0725  0.2342 -0.5984
16499TIP3   OH270911   2.227   0.960  15.639 -0.0984 -0.0653  0.2070
16499TIP3    H170912   2.203   1.052  15.625 -0.6916  0.1925  2.4007
16499TIP3    H270913   2.294   0.943  15.574 -1.7384  1.1326 -1.9445
16500TIP3   OH270914   6.491   2.664  16.804 -0.3398  0.8486  0.3299
16500TIP3    H170915   6.507   2.587  16.749 -0.1277  0.6040  0.7300
16500TIP3    H270916   6.558   2.659  16.872 -0.8577  0.9298  0.8481
16501TIP3   OH270917   5.755   3.005  17.169 -0.8372  0.1424  0.2148
16501TIP3    H170918   5.677   3.038  17.123  0.1912  0.4261 -1.3968
16501TIP3    H270919   5.805   3.084  17.191  0.0230 -0.1432 -0.6705
16502TIP3   OH270920   1.313   3.021   6.228  0.7807 -0.2029  0.2477
16502TIP3    H170921   1.307   2.937   6.273  2.3415 -0.1181  0.6680
16502TIP3    H270922   1.291   3.086   6.294  1.2920 -0.1873  0.4068
16503TIP3   OH270923   3.641   1.367   3.356 -0.1423 -0.4068 -0.0772
16503TIP3    H170924   3.634   1.299   3.423  1.0267 -0.6476 -0.1699
16503TIP3    H270925   3.634   1.449   3.404  1.0155 -0.5683  0.4122
16504TIP3   OH270926   3.540   1.351   1.316 -0.0199  0.4037 -0.7634
16504TIP3    H170927   3.596   1.289   1.269 -0.0041  0.8602 -1.3592
16504TIP3    H270928   3.555   1.332   1.408  0.6700  0.1173 -0.9286
16505TIP3   OH270929   1.693   3.592  14.725  0.1707 -0.2440  0.3213
16505TIP3    H170930   1.663   3.618  14.812 -1.3068  0.1208 -0.2598
16505TIP3    H270931   1.622   3.537  14.691  1.2356 -1.2937 -0.2273
16506TIP3   OH270932   2.027   5.410   0.807  0.6906 -0.0428  0.2090
16506TIP3    H170933   2.043   5.503   0.796 -2.0820  0.3573 -1.3346
16506TIP3    H270934   2.034   5.374   0.718  1.2455 -1.2557  0.7132
16507TIP3   OH270935   1.321   4.059   6.108  0.1782 -0.0644 -0.3026
16507TIP3    H170936   1.301   4.102   6.191  1.3986  1.2791 -0.6645
16507TIP3    H270937   1.335   4.131   6.047 -0.7091 -1.0293 -1.7021
16508TIP3   OH270938   4.226   4.731  14.129  0.0206  0.4108  0.2358
16508TIP3    H170939   4.282   4.671  14.080 -0.3859  1.4714 -1.6242
16508TIP3    H270940   4.274   4.814  14.128  0.2112  0.3552  2.0887
16509TIP3   OH270941   1.576   0.774  14.435 -0.2719 -0.2786  0.1489
16509TIP3    H170942   1.622   0.852  14.404  0.8991 -0.4977  1.2570
16509TIP3    H270943   1.641   0.704  14.431 -0.8591 -0.8630  0.5895
16510TIP3   OH270944   2.756   0.106  12.094 -0.0811 -0.4796  0.2205
16510TIP3    H170945   2.724   0.180  12.043 -2.1539 -1.9055 -0.6617
16510TIP3    H270946   2.716   0.117  12.181  0.1173 -0.2258  0.2783
16511TIP3   OH270947   6.003   3.005   4.371 -0.7020 -0.1471 -0.2431
16511TIP3    H170948   5.927   3.020   4.315 -2.0277 -2.0218  0.9326
16511TIP3    H270949   6.061   2.950   4.318 -1.0979 -0.3765 -0.4469
16512TIP3   OH270950   4.112   4.996  12.980  0.5989 -0.5829  0.4196
16512TIP3    H170951   4.045   5.058  13.009 -0.8692 -0.9856 -1.8378
16512TIP3    H270952   4.096   4.917  13.032  0.5097 -0.0616  1.1890
16513TIP3   OH270953   3.518   1.745  17.363 -0.6176 -0.4310 -0.6337
16513TIP3    H170954   3.424   1.757  17.351 -0.6449 -0.2309 -0.2634
16513TIP3    H270955   3.525   1.684  17.437 -0.4739  1.4027  0.9691
16514TIP3   OH270956   1.698   4.229   5.542 -0.1276  0.4344 -1.2255
16514TIP3    H170957   1.641   4.291   5.587 -1.6395 -1.8898  0.2388
16514TIP3    H270958   1.641   4.157   5.517  2.0908 -2.2445  0.7075
16515TIP3   OH270959   6.199   1.058  12.828 -0.4980 -0.3579  0.4116
16515TIP3    H170960   6.235   1.136  12.869  0.6831 -0.8551  0.3615
16515TIP3    H270961   6.265   0.991  12.842 -0.7106 -0.9091 -1.0561
16516TIP3   OH270962   5.127   2.147   5.255  0.5332  0.2358 -0.4183
16516TIP3    H170963   5.099   2.211   5.190  0.3401  0.1408 -0.4294
16516TIP3    H270964   5.212   2.179   5.286 -0.1746  1.2297  0.5614
16517TIP3   OH270965   2.644   1.754   2.129 -0.0550  0.1895  0.0564
16517TIP3    H170966   2.656   1.763   2.035  1.0120  0.9791  0.2487
16517TIP3    H270967   2.657   1.661   2.146  1.1306  0.2449 -0.4136
16518TIP3   OH270968   3.120   4.292  11.781  0.0558 -0.4818 -0.1367
16518TIP3    H170969   3.034   4.334  11.779 -0.1800 -0.8943  0.8199
16518TIP3    H270970   3.128   4.249  11.695  0.4893  1.8055 -1.3276
16519TIP3   OH270971   0.618   4.522   0.696 -0.2758  0.0938 -0.1267
16519TIP3    H170972   0.624   4.427   0.686  1.1770 -0.0935  2.0027
16519TIP3    H270973   0.594   4.535   0.787  1.5219  1.7682  0.1649
16520TIP3   OH270974   0.459   0.466   1.152 -0.0092  0.3875 -0.7830
16520TIP3    H170975   0.397   0.538   1.154  0.0769  0.4568  0.9182
16520TIP3    H270976   0.433   0.409   1.225  3.4182  1.7709  1.7921
16521TIP3   OH270977   5.961   0.608  15.872  0.1414 -0.6950 -0.1974
16521TIP3    H170978   5.925   0.522  15.894  0.8310 -1.0440 -0.3899
16521TIP3    H270979   5.997   0.597  15.784  0.4705 -0.2914 -0.1187
16522TIP3   OH270980   2.301   5.595   5.725  0.2974 -0.2719  0.6338
16522TIP3    H170981   2.228   5.533   5.731 -1.7745  2.1162  1.6180
16522TIP3    H270982   2.334   5.584   5.636 -2.0983 -0.5759 -0.2830
16523TIP3   OH270983   4.476   5.153   2.707 -0.0572 -0.1149 -0.6702
16523TIP3    H170984   4.424   5.094   2.762  1.8077 -0.6754  0.5826
16523TIP3    H270985   4.485   5.233   2.759  0.7120 -0.1924 -0.6793
16524TIP3   OH270986   3.829   1.051   5.780 -0.3343  0.1506  0.1106
16524TIP3    H170987   3.803   1.015   5.865  0.0895  2.2688  1.2097
16524TIP3    H270988   3.924   1.055   5.784 -0.3430  0.8070 -0.2179
16525TIP3   OH270989   4.381   0.557   2.710 -0.2294  0.4916  0.3406
16525TIP3    H170990   4.405   0.472   2.673  2.6065  1.0291  0.7539
16525TIP3    H270991   4.312   0.589   2.652  1.9959  0.0229 -2.8414
16526TIP3   OH270992   0.550   0.214  16.980 -0.3307  0.6064  0.4201
16526TIP3    H170993   0.529   0.285  17.040 -1.1411  0.5272  0.2413
16526TIP3    H270994   0.483   0.147  16.997 -0.7840  0.7280 -0.7993
16527TIP3   OH270995   2.926   3.440  12.053 -0.0405 -0.2534 -0.1495
16527TIP3    H170996   3.005   3.387  12.048 -0.4028 -0.8689  0.5452
16527TIP3    H270997   2.945   3.507  12.119  0.5630  0.7644 -1.3088
16528TIP3   OH270998   5.733   3.077  13.391  0.0147 -0.0013  0.7120
16528TIP3    H170999   5.775   3.100  13.308 -1.4618 -0.4046 -0.1908
16528TIP3    H271000   5.651   3.127  13.392  0.8696  1.5166  2.8770
16529TIP3   OH271001   1.389   3.204   2.812  0.0177 -0.5042  0.4982
16529TIP3    H171002   1.325   3.233   2.747  0.5557 -1.4384 -0.4844
16529TIP3    H271003   1.338   3.193   2.893 -0.9249 -0.5751 -0.0951
16530TIP3   OH271004   4.241   4.056   2.408  0.7550  0.2005 -0.3987
16530TIP3    H171005   4.220   4.067   2.316 -0.7399  1.0345  0.0078
16530TIP3    H271006   4.308   3.988   2.410 -0.3079 -0.9598 -1.9902
16531TIP3   OH271007   4.881   3.278   4.250 -0.2929 -0.1204  0.2383
16531TIP3    H171008   4.841   3.204   4.204 -1.7412  0.1635  0.9772
16531TIP3    H271009   4.949   3.238   4.304  0.2671 -0.6550 -0.8251
16532TIP3   OH271010   2.037   3.880  13.767  0.3823 -0.1722 -0.4603
16532TIP3    H171011   1.965   3.933  13.801  0.3862 -1.3385  1.5406
16532TIP3    H271012   2.084   3.938  13.708 -0.7330  1.4039  0.1435
16533TIP3   OH271013   3.840   5.067   1.614  0.4504  0.4050 -0.0753
16533TIP3    H171014   3.909   5.084   1.550  0.8107 -1.6316 -0.2948
16533TIP3    H271015   3.760   5.095   1.569  0.6476 -1.3579 -1.6612
16534TIP3   OH271016   2.128   2.130  13.077  0.4725 -0.5635 -0.1841
16534TIP3    H171017   2.213   2.149  13.038  0.4063 -2.3368 -1.2869
16534TIP3    H271018   2.139   2.045  13.119 -0.3264 -0.0802  1.0446
16535TIP3   OH271019   5.336   3.201   1.375 -0.0132 -0.2048  0.4566
16535TIP3    H171020   5.251   3.167   1.404  0.2385 -0.7426  0.5730
16535TIP3    H271021   5.400   3.151   1.425  0.4025 -0.5498 -0.4029
16536TIP3   OH271022   3.996   0.882   5.525 -0.3631  0.5778 -0.1387
16536TIP3    H171023   4.050   0.860   5.600 -1.7669 -1.3370  0.3831
16536TIP3    H271024   4.053   0.869   5.449  0.7601  1.5460  0.5059
16537TIP3   OH271025   3.533   6.073  16.234  0.1300  0.4140 -0.0633
16537TIP3    H171026   3.586   6.139  16.189  0.7335 -0.2375 -0.3337
16537TIP3    H271027   3.511   6.010  16.166 -0.1500  0.1566  0.2640
16538TIP3   OH271028   0.210   3.020   2.300 -0.0683  0.1208  0.0412
16538TIP3    H171029   0.165   3.074   2.235 -0.7705 -1.1734 -0.5685
16538TIP3    H271030   0.228   3.081   2.372  1.5816  1.8381 -1.6908
16539TIP3   OH271031   0.419   1.798  14.555  0.5027 -0.3496 -0.1855
16539TIP3    H171032   0.459   1.879  14.586  0.0590  0.2122 -1.0458
16539TIP3    H271033   0.346   1.782  14.615 -0.5886  0.9316 -1.1099
16540TIP3   OH271034   5.465   3.740   0.537  0.5006 -0.4626 -0.0352
16540TIP3    H171035   5.465   3.833   0.558 -0.2921 -0.0619 -1.6874
16540TIP3    H271036   5.374   3.720   0.515 -0.0401 -2.3812  3.2066
16541TIP3   OH271037   4.314   1.908   2.217 -0.3186  0.5822 -0.0611
16541TIP3    H171038   4.402   1.902   2.178  0.1694 -1.1064  1.1807
16541TIP3    H271039   4.256   1.871   2.150  0.6625 -3.4548  1.0245
16542TIP3   OH271040   5.366   2.393   1.237 -0.0837 -0.0344  0.5667
16542TIP3    H171041   5.378   2.343   1.318  0.1559 -0.7887  0.0719
16542TIP3    H271042   5.435   2.361   1.179 -0.2722  0.4853  0.0558
16543TIP3   OH271043   6.349   2.179  15.013  0.1965  0.6094  0.4794
16543TIP3    H171044   6.339   2.273  15.029 -0.4255  0.5854  0.2690
16543TIP3    H271045   6.358   2.140  15.100 -2.2336  0.5772  0.7843
16544TIP3   OH271046   1.105   4.266  11.807 -0.0892  0.4705  0.2338
16544TIP3    H171047   1.169   4.197  11.786 -0.9438 -0.4191  0.4884
16544TIP3    H271048   1.107   4.325  11.731 -0.0588 -0.3800 -0.4399
16545TIP3   OH271049   6.589   4.778  12.762  0.2579  0.4936 -0.1673
16545TIP3    H171050   6.547   4.851  12.715  1.2173  1.4281  0.3883
16545TIP3    H271051   6.640   4.733  12.695  0.5139  0.9820 -0.3068
16546TIP3   OH271052   3.908   5.707  12.483 -0.2920  0.0132 -0.1913
16546TIP3    H171053   3.930   5.776  12.546  0.9305  0.2723 -0.8692
16546TIP3    H271054   3.992   5.666  12.462 -1.0238 -1.8688  0.3632
16547TIP3   OH271055   6.210   4.764   3.311 -0.3142 -0.1558  0.0321
16547TIP3    H171056   6.287   4.711   3.330 -1.4264 -1.3674  1.4462
16547TIP3    H271057   6.177   4.790   3.397 -2.0343 -0.5065 -0.4789
16548TIP3   OH271058   2.016   1.663  17.149 -0.1483  0.7698  0.4616
16548TIP3    H171059   2.038   1.711  17.229 -0.4514  0.7464  0.5589
16548TIP3    H271060   1.997   1.731  17.084 -1.6983  0.7853  0.9066
16549TIP3   OH271061   6.046   4.450  12.196 -0.3201  0.7091  0.1682
16549TIP3    H171062   6.098   4.379  12.234 -0.6448  0.1303 -0.4424
16549TIP3    H271063   6.089   4.468  12.112 -0.3044  1.1545  0.2732
16550TIP3   OH271064   0.569   6.410  13.240  0.0638 -0.0324 -0.1070
16550TIP3    H171065   0.520   6.366  13.171  0.3845  0.4979 -0.6845
16550TIP3    H271066   0.659   6.378  13.230  0.2471  0.5485 -0.3682
16551TIP3   OH271067   3.481   0.248   4.347  0.4256  0.0793  0.4827
16551TIP3    H171068   3.449   0.238   4.257 -0.0122  2.0229  0.3963
16551TIP3    H271069   3.408   0.220   4.402 -0.3009  1.4437  0.2443
16552TIP3   OH271070   1.002   2.901  12.673  0.2225 -0.4341  0.2862
16552TIP3    H171071   0.946   2.917  12.596 -0.3252 -0.5147  0.6613
16552TIP3    H271072   0.949   2.930  12.747  0.4633 -1.0391  0.6974
16553TIP3   OH271073   0.138   4.341   3.526 -0.5750  0.1658  0.2531
16553TIP3    H171074   0.225   4.344   3.485 -0.1525  0.4444  1.1487
16553TIP3    H271075   0.106   4.253   3.509 -0.1332  0.0725 -0.1136
16554TIP3   OH271076   4.780   0.896   2.608  0.5432 -0.0837 -0.7486
16554TIP3    H171077   4.789   0.964   2.676  0.1188  0.3920 -1.1625
16554TIP3    H271078   4.693   0.860   2.621  1.4221 -1.8375  0.6283
16555TIP3   OH271079   4.733   0.686   1.786  0.6878 -0.2251 -1.3655
16555TIP3    H171080   4.704   0.764   1.739  1.4427  0.2925 -0.9936
16555TIP3    H271081   4.655   0.632   1.794  0.0735  0.6459 -1.3309
16556TIP3   OH271082   1.460   6.709  12.098  0.0939  0.9570  0.1401
16556TIP3    H171083   1.428   6.777  12.038 -2.0158 -1.2942 -1.4903
16556TIP3    H271084   1.418   6.728  12.181 -0.9100  1.3458 -0.4394
16557TIP3   OH271085   6.325   6.393   1.295 -0.1824  0.1230  0.2462
16557TIP3    H171086   6.348   6.319   1.352  0.8809  0.6751  0.5571
16557TIP3    H271087   6.240   6.421   1.327 -0.5619 -0.9029  0.1836
16558TIP3   OH271088   5.203   4.640  15.697 -0.4556  0.5748 -0.1494
16558TIP3    H171089   5.152   4.619  15.619  3.0197 -2.1473 -2.0068
16558TIP3    H271090   5.223   4.733  15.689 -0.9745  0.5582 -2.0255
16559TIP3   OH271091   6.267   1.747  12.445 -0.4401  0.1398  0.3284
16559TIP3    H171092   6.238   1.776  12.358 -1.1847 -0.9823  0.1856
16559TIP3    H271093   6.212   1.672  12.465  1.1232 -0.9207  0.8610
16560TIP3   OH271094   4.978   0.222  14.141  0.0991 -0.3927 -0.4192
16560TIP3    H171095   4.885   0.241  14.155  0.0292 -0.5256 -0.6827
16560TIP3    H271096   4.989   0.228  14.046  0.0966 -1.4894 -0.5112
16561TIP3   OH271097   3.099   1.396   3.126 -0.0591 -0.4426 -0.4322
16561TIP3    H171098   3.167   1.336   3.156 -0.7660 -1.3281 -0.5806
16561TIP3    H271099   3.022   1.341   3.111 -1.0783  0.6540  0.5404
16562TIP3   OH271100   6.529   2.457  13.209 -0.5348  0.3744 -0.1576
16562TIP3    H171101   6.624   2.446  13.216 -0.5708 -0.6155 -0.9503
16562TIP3    H271102   6.493   2.390  13.268 -0.7609  1.7225  1.2999
16563TIP3   OH271103   1.876   6.096   5.251 -0.2656 -0.0329 -0.3256
16563TIP3    H171104   1.812   6.030   5.224 -0.5679 -0.2044  0.7656
16563TIP3    H271105   1.889   6.150   5.173 -0.2065 -1.2235 -1.1527
16564TIP3   OH271106   1.017   2.549   1.377  0.2837  0.2258 -0.3666
16564TIP3    H171107   0.957   2.484   1.338  0.4926  0.0375 -0.3758
16564TIP3    H271108   1.057   2.503   1.450 -0.3446  0.6790  0.2788
16565TIP3   OH271109   5.293   2.898   5.859  0.1792 -0.2499 -0.4691
16565TIP3    H171110   5.293   2.987   5.893  0.0450  0.4329 -2.1430
16565TIP3    H271111   5.284   2.909   5.764  0.5288 -2.0337 -0.7414
16566TIP3   OH271112   6.274   3.525  13.045  0.1741  0.4133 -0.2510
16566TIP3    H171113   6.273   3.515  13.141 -2.4605  0.7857 -0.1813
16566TIP3    H271114   6.234   3.611  13.030  2.1026  1.1388 -1.6857
16567TIP3   OH271115   3.131   0.095  10.851  0.0626  0.4334  0.6242
16567TIP3    H171116   3.067   0.048  10.904 -1.0231  0.3887 -0.6683
16567TIP3    H271117   3.082   0.125  10.775  1.3525  1.3250  0.1033
16568TIP3   OH271118   4.485   2.792  16.697  0.5297  0.1888 -0.3658
16568TIP3    H171119   4.464   2.855  16.765  0.0724 -1.9866  1.6536
16568TIP3    H271120   4.407   2.791  16.640 -0.8659 -0.8467  1.4673
16569TIP3   OH271121   6.317   4.704   2.090 -0.0637 -0.2061 -0.0564
16569TIP3    H171122   6.331   4.728   1.998  1.6585  1.0778  0.5019
16569TIP3    H271123   6.225   4.676   2.093 -0.4872  0.7983 -1.9428
16570TIP3   OH271124   3.936   1.112   2.569  0.0963  0.0994 -0.2261
16570TIP3    H171125   3.909   1.192   2.615  0.2794  0.1067 -0.1340
16570TIP3    H271126   3.948   1.047   2.638 -0.7709 -0.2195 -0.3545
16571TIP3   OH271127   2.535   1.843  10.968  0.5004 -0.0704 -0.3261
16571TIP3    H171128   2.529   1.924  10.918  1.0088  0.3348  0.2646
16571TIP3    H271129   2.518   1.869  11.059 -2.2069 -1.0502 -0.4423
16572TIP3   OH271130   5.887   2.207   2.562 -0.4686 -0.1846 -0.1916
16572TIP3    H171131   5.932   2.282   2.522  0.0293 -0.5221 -0.2602
16572TIP3    H271132   5.927   2.198   2.648  1.7050 -2.3114 -1.3267
16573TIP3   OH271133   3.459   0.142   2.415  0.4990  0.2340  0.9058
16573TIP3    H171134   3.451   0.055   2.377  0.0329 -0.0986  1.7371
16573TIP3    H271135   3.375   0.184   2.397  0.0959 -0.0910  1.9286
16574TIP3   OH271136   2.025   1.629   0.456  0.3668  0.2444 -0.4444
16574TIP3    H171137   2.016   1.688   0.531 -0.0046 -0.1730 -0.1574
16574TIP3    H271138   1.980   1.674   0.384  1.9691  1.3271 -0.8260
16575TIP3   OH271139   4.989   1.330   2.998 -0.2430 -0.0584  0.0124
16575TIP3    H171140   5.043   1.345   3.075 -0.8892  0.5391  0.3544
16575TIP3    H271141   4.916   1.276   3.029 -0.4424  0.0844 -0.2046
16576TIP3   OH271142   2.134   5.098  15.693  0.1653 -0.1323 -0.3089
16576TIP3    H171143   2.083   5.136  15.765  0.1187  0.4583 -0.6494
16576TIP3    H271144   2.112   5.005  15.695 -0.0594 -0.0713  0.2572
16577TIP3   OH271145   5.782   2.838  13.243 -0.0981 -0.1224 -0.4455
16577TIP3    H171146   5.747   2.920  13.278  2.5088  0.3342  1.4274
16577TIP3    H271147   5.845   2.865  13.176 -1.2530 -0.7791 -1.8420
16578TIP3   OH271148   5.068   1.711  16.628 -0.2305  0.1250  0.0504
16578TIP3    H171149   5.094   1.634  16.576  1.9656  0.0580  1.1272
16578TIP3    H271150   5.028   1.673  16.706  1.6773 -0.0387  1.0110
16579TIP3   OH271151   4.363   3.534  13.646 -0.0985  0.4915 -0.3283
16579TIP3    H171152   4.443   3.487  13.667  0.8188  1.5799 -1.2785
16579TIP3    H271153   4.322   3.551  13.731  1.1670  0.7861  0.2416
16580TIP3   OH271154   0.763   5.384  12.519 -0.2472  0.1955  0.1129
16580TIP3    H171155   0.822   5.449  12.558  0.6214 -0.2693 -0.3999
16580TIP3    H271156   0.723   5.340  12.594  1.6140 -0.8854  0.5179
16581TIP3   OH271157   4.285   4.708  13.739  0.0069  0.0228 -0.0422
16581TIP3    H171158   4.230   4.786  13.751  1.4919  1.1414 -0.2553
16581TIP3    H271159   4.222   4.637  13.729 -1.4223  1.2948 -0.6285
16582TIP3   OH271160   1.690   6.737  16.692  0.4302 -0.1945 -0.2513
16582TIP3    H171161   1.602   6.714  16.660 -0.7134 -0.1085  2.5425
16582TIP3    H271162   1.733   6.653  16.707 -0.3501 -0.3611  1.2418
16583TIP3   OH271163   4.385   3.436   5.316  0.6815  0.1844 -0.4052
16583TIP3    H171164   4.464   3.491   5.323  0.6116  0.3790 -1.0400
16583TIP3    H271165   4.346   3.462   5.232  0.0383 -0.0410 -0.1791
16584TIP3   OH271166   2.749   0.137   5.877  0.2257  0.4792  0.3406
16584TIP3    H171167   2.705   0.100   5.954  1.2669 -1.7685 -0.0724
16584TIP3    H271168   2.746   0.067   5.811  2.0585  1.2082 -0.5944
16585TIP3   OH271169   6.690   5.118   3.440 -0.3402  0.4528  0.3275
16585TIP3    H171170   6.751   5.191   3.448 -0.0461  0.1783  0.6511
16585TIP3    H271171   6.608   5.151   3.475 -1.2247  1.7676 -2.6519
16586TIP3   OH271172   6.296   0.051   3.905 -0.0189  0.1719 -0.1433
16586TIP3    H171173   6.360  -0.017   3.926 -0.3030  0.0500  0.3448
16586TIP3    H271174   6.236   0.052   3.980 -0.3060  0.6187 -0.3721
16587TIP3   OH271175   1.118   6.563   4.747  0.7103 -0.2377 -0.2752
16587TIP3    H171176   1.049   6.542   4.810  1.1689  0.8455  0.6032
16587TIP3    H271177   1.090   6.645   4.706  0.5645 -0.7709 -1.2920
16588TIP3   OH271178   0.459   4.731   5.930 -0.1504  0.4220  0.1382
16588TIP3    H171179   0.460   4.644   5.969 -0.5026  0.9502  1.3714
16588TIP3    H271180   0.392   4.727   5.862  0.5311 -0.5396 -0.4951
16589TIP3   OH271181   3.058   3.296  12.523  0.3135  0.0653 -0.2908
16589TIP3    H171182   3.107   3.302  12.441 -0.2306 -0.6459 -0.6811
16589TIP3    H271183   2.993   3.365  12.517  2.8365  2.8301  1.3818
16590TIP3   OH271184   2.956   1.187   6.183 -0.4752 -0.1342  0.2875
16590TIP3    H171185   3.006   1.159   6.260 -1.2044 -0.9968  0.4559
16590TIP3    H271186   2.959   1.112   6.124  0.9247  0.8630 -0.9922
16591TIP3   OH271187   3.773   3.823   4.328  0.0308  0.4052  0.1750
16591TIP3    H171188   3.806   3.751   4.381 -0.8181  0.3644  0.6740
16591TIP3    H271189   3.836   3.894   4.341  0.5115 -0.0237  0.2158
16592TIP3   OH271190   6.681   1.374   5.085 -0.3202  0.0891  0.0945
16592TIP3    H171191   6.728   1.457   5.072 -0.1043  0.0351  0.5217
16592TIP3    H271192   6.697   1.352   5.176  1.2116 -1.3971 -0.4827
16593TIP3   OH271193   1.550   5.145  16.671  0.6010  0.3637  0.5636
16593TIP3    H171194   1.557   5.050  16.673  1.6736  0.4260  0.3189
16593TIP3    H271195   1.513   5.164  16.584  2.2517  0.2504 -0.1987
16594TIP3   OH271196   5.382   5.611   2.825 -0.2318  0.2509  0.5394
16594TIP3    H171197   5.380   5.696   2.871  2.8396 -1.9034  5.4720
16594TIP3    H271198   5.311   5.561   2.865 -1.2438 -0.0150 -1.4666
16595TIP3   OH271199   5.658   2.902  11.974  0.2300  0.8263  0.6209
16595TIP3    H171200   5.712   2.978  11.953 -0.4391  0.9540 -0.8096
16595TIP3    H271201   5.717   2.828  11.968  0.3042  0.9642 -0.9101
16596TIP3   OH271202   4.140   1.794  16.067  0.9162 -0.3373  0.5894
16596TIP3    H171203   4.074   1.777  16.001 -0.5661 -0.2581  1.9907
16596TIP3    H271204   4.199   1.857  16.026 -0.1033 -0.0828 -0.5486
16597TIP3   OH271205   2.916   5.692   0.598 -0.0661 -0.0892 -0.2235
16597TIP3    H171206   2.977   5.657   0.533 -0.6763  0.3459 -1.0515
16597TIP3    H271207   2.909   5.785   0.575 -2.9196 -0.5744 -1.7522
16598TIP3   OH271208   2.903   1.502  13.531 -0.0950  0.2466  0.1331
16598TIP3    H171209   2.893   1.584  13.482  1.7265  1.0321  0.9637
16598TIP3    H271210   2.989   1.468  13.503 -0.0569 -0.4650  1.0742
16599TIP3   OH271211   5.245   5.921   2.433  0.1831 -0.8567 -0.7370
16599TIP3    H171212   5.318   5.871   2.468  1.5735  0.2944 -1.8742
16599TIP3    H271213   5.285   5.984   2.373 -1.6587  0.4235 -0.7064
16600TIP3   OH271214   4.051   5.907  11.132 -0.2983  0.7955  0.4671
16600TIP3    H171215   3.986   5.976  11.118 -1.0157  0.3338  1.4291
16600TIP3    H271216   4.002   5.825  11.124  0.3757  0.4087  0.1883
16601TIP3   OH271217   5.379   4.267  17.316  0.0338 -0.5351  0.6031
16601TIP3    H171218   5.466   4.273  17.354 -0.0932  0.2880  0.7874
16601TIP3    H271219   5.364   4.352  17.275 -0.7254 -0.6241  0.6754
16602TIP3   OH271220   4.340   1.447   2.884  0.1072 -0.0476 -0.4312
16602TIP3    H171221   4.365   1.523   2.830 -0.5770  0.6846  0.2636
16602TIP3    H271222   4.276   1.400   2.831  1.8126 -1.1551 -1.6218
16603TIP3   OH271223   4.670   2.171   6.407  0.4487  0.7631 -0.1417
16603TIP3    H171224   4.594   2.166   6.465  0.2171 -1.0515 -0.5508
16603TIP3    H271225   4.739   2.208   6.462 -0.0315 -0.0060  1.0232
16604TIP3   OH271226   0.835   4.532   3.769 -0.2780 -0.1906  0.1785
16604TIP3    H171227   0.773   4.460   3.774 -1.3792  0.7668  0.6997
16604TIP3    H271228   0.787   4.608   3.802  1.4626  0.4049  1.5027
16605TIP3   OH271229   2.305   1.896  14.577  0.6487 -0.1307  0.0944
16605TIP3    H171230   2.358   1.875  14.501 -0.8681 -1.3934 -0.6856
16605TIP3    H271231   2.217   1.910  14.542  0.1449  0.4535  1.4894
16606TIP3   OH271232   5.864   4.881  14.924 -0.2788 -0.2712 -0.0222
16606TIP3    H171233   5.827   4.794  14.909  0.4063 -0.4775 -0.5166
16606TIP3    H271234   5.816   4.914  15.001 -1.6981 -0.4133 -0.8031
16607TIP3   OH271235   1.650   1.353   0.234 -0.0973 -0.3742  0.9327
16607TIP3    H171236   1.635   1.368   0.327  0.2815 -0.1756  0.9636
16607TIP3    H271237   1.704   1.427   0.206  0.9017 -1.1171  0.8564
16608TIP3   OH271238   3.873   3.009  16.599 -0.2155  0.0798  0.3683
16608TIP3    H171239   3.808   3.070  16.633 -0.4631  0.0042  0.0441
16608TIP3    H271240   3.949   3.063  16.579 -0.3239  0.2352  0.3731
16609TIP3   OH271241   3.690   3.953   2.824  0.2451 -0.4622  0.3252
16609TIP3    H171242   3.673   4.007   2.747  0.5764 -0.6871  0.0909
16609TIP3    H271243   3.616   3.969   2.882  1.5907  2.3710  1.4831
16610TIP3   OH271244   6.557   2.549  12.858 -0.0075  0.7840 -0.1384
16610TIP3    H171245   6.481   2.605  12.875  0.0696  0.4564  1.3511
16610TIP3    H271246   6.628   2.587  12.908  0.3681  0.0864 -0.1218
16611TIP3   OH271247   2.081   6.530   2.142  0.3098 -0.8821  0.3802
16611TIP3    H171248   2.160   6.584   2.140  1.0183 -1.7618  2.2798
16611TIP3    H271249   2.086   6.478   2.062  0.5000  0.6319 -0.6177
16612TIP3   OH271250   2.856   5.712  11.274 -0.0029 -0.5398  0.6685
16612TIP3    H171251   2.779   5.768  11.263 -1.3650 -1.8251  2.7845
16612TIP3    H271252   2.871   5.712  11.369  1.8719 -1.3132  0.4106
16613TIP3   OH271253   3.685   2.190  13.375  0.1982 -0.0325  0.3734
16613TIP3    H171254   3.603   2.151  13.345  0.2916 -1.3427  1.6739
16613TIP3    H271255   3.753   2.143  13.327  0.2321  0.2732  0.1193
16614TIP3   OH271256   5.544   3.454   5.433  0.4579  0.5142  0.4673
16614TIP3    H171257   5.508   3.414   5.512  0.8559 -0.3297  0.2370
16614TIP3    H271258   5.639   3.442   5.441  0.4558 -0.1776 -0.4412
16615TIP3   OH271259   4.870   1.380  15.038  0.1032 -0.2531  0.0060
16615TIP3    H171260   4.791   1.389  15.091  1.1783  0.6055  1.5484
16615TIP3    H271261   4.881   1.285  15.029 -0.4079 -0.4108  0.8879
16616TIP3   OH271262   6.417   4.161   4.826 -0.6762  0.4549  0.8127
16616TIP3    H171263   6.508   4.175   4.853  0.0892 -2.0386 -0.2390
16616TIP3    H271264   6.396   4.239   4.775  1.4178  0.4006 -0.2390
16617TIP3   OH271265   2.004   3.490   0.626  0.4389  0.6691 -0.2808
16617TIP3    H171266   2.054   3.413   0.597 -0.3208  0.1270 -0.1971
16617TIP3    H271267   1.918   3.479   0.585  0.7305  2.1843 -1.3624
16618TIP3   OH271268   3.475   1.429   4.194 -0.5607  0.2922 -0.1357
16618TIP3    H171269   3.554   1.481   4.204 -0.8073  1.0626 -1.8264
16618TIP3    H271270   3.436   1.428   4.282 -1.1830  4.0538 -0.1752
16619TIP3   OH271271   2.747   3.397   2.275 -0.5299 -0.0355 -0.2733
16619TIP3    H171272   2.744   3.487   2.243  0.2511  0.2154  0.3202
16619TIP3    H271273   2.770   3.405   2.367  1.6167 -0.9224 -0.6814
16620TIP3   OH271274   1.514   6.018   5.920 -0.4161 -0.2255  0.0857
16620TIP3    H171275   1.589   6.012   5.861 -0.3040 -0.0528  0.2102
16620TIP3    H271276   1.542   6.079   5.988 -1.2817  1.2511 -0.8103
16621TIP3   OH271277   2.710   6.680   2.844  0.2729 -0.1429 -0.1918
16621TIP3    H171278   2.732   6.709   2.756  0.7955  0.5397  0.1612
16621TIP3    H271279   2.693   6.586   2.834  0.6953 -0.1473 -0.9482
16622TIP3   OH271280   0.623   5.088   4.817  0.6061  0.3727  0.4548
16622TIP3    H171281   0.719   5.095   4.809  0.6452 -0.3976  0.1216
16622TIP3    H271282   0.610   5.014   4.877  0.2318  2.3756  3.0303
16623TIP3   OH271283   5.007   6.529  13.833 -0.3631 -0.0987  0.4459
16623TIP3    H171284   4.961   6.580  13.901 -0.4335 -0.3331  0.5745
16623TIP3    H271285   5.007   6.587  13.757  1.4491  0.9904  1.1986
16624TIP3   OH271286   4.826   6.714   0.392 -0.1529  0.7279  0.1877
16624TIP3    H171287   4.878   6.773   0.447 -0.3119  0.8665  0.1875
16624TIP3    H271288   4.874   6.712   0.309 -0.9480  2.0522 -0.3316
16625TIP3   OH271289   5.157   4.794  15.983  0.4530  0.5481  0.2097
16625TIP3    H171290   5.154   4.734  15.909  0.5602  0.7692  0.0265
16625TIP3    H271291   5.242   4.837  15.976 -0.7341  2.8151 -1.3055
16626TIP3   OH271292   4.194   2.912  17.169 -0.1830 -0.1444  0.7163
16626TIP3    H171293   4.187   2.817  17.162 -0.6841 -0.1865  1.6093
16626TIP3    H271294   4.104   2.944  17.163  0.0944  0.4038 -1.0289
16627TIP3   OH271295   5.637   0.016  17.207  0.2799  0.1005 -0.3550
16627TIP3    H171296   5.663  -0.048  17.273  0.6028 -0.5418 -1.1009
16627TIP3    H271297   5.718   0.062  17.185  0.5192 -0.8412 -1.5325
16628TIP3   OH271298   0.141   2.874  16.857  0.5070  0.3018  0.3372
16628TIP3    H171299   0.111   2.789  16.889  2.2895 -0.0813  1.1260
16628TIP3    H271300   0.114   2.936  16.925  1.7345 -0.0965  1.2414
16629TIP3   OH271301   2.340   5.351  15.459 -0.3312  0.4589 -0.2273
16629TIP3    H171302   2.405   5.420  15.446  3.4708 -2.8510 -0.7475
16629TIP3    H271303   2.348   5.328  15.552 -0.3535 -0.3191 -0.4122
16630TIP3   OH271304   6.595   6.682  12.141  0.2511 -0.4276  0.0038
16630TIP3    H171305   6.689   6.687  12.128  0.3716 -0.3969  0.8147
16630TIP3    H271306   6.573   6.761  12.189 -0.4721  0.4188 -1.6416
16631TIP3   OH271307   0.112   6.060  17.436  0.3000  0.5145 -0.2190
16631TIP3    H171308   0.158   6.064  17.520  0.3205  0.4211 -0.2259
16631TIP3    H271309   0.180   6.038  17.373  0.0800 -0.5682 -0.0966
16632TIP3   OH271310   2.595   5.055   1.256  0.2902 -0.7052  0.0345
16632TIP3    H171311   2.668   5.094   1.306 -0.4797 -0.1186  0.7321
16632TIP3    H271312   2.606   5.090   1.168 -0.3033  1.0413  0.6120
16633TIP3   OH271313   3.499   3.869   5.907 -0.3151 -0.4157  0.0408
16633TIP3    H171314   3.482   3.920   5.986 -0.4476  0.2581 -0.4104
16633TIP3    H271315   3.523   3.783   5.938 -1.2736 -0.4233  0.7985
16634TIP3   OH271316   1.081   3.250  16.157  0.0991  0.0453 -0.0435
16634TIP3    H171317   1.000   3.245  16.207  1.4684 -2.1990  2.1784
16634TIP3    H271318   1.142   3.297  16.213  0.1835  2.6371 -2.1072
16635TIP3   OH271319   0.409   1.435  12.042  0.1693  0.2433  0.5627
16635TIP3    H171320   0.347   1.450  12.114  0.4186  2.0682  0.4504
16635TIP3    H271321   0.429   1.523  12.009  0.6620 -0.5039 -1.2412
16636TIP3   OH271322   6.557   5.476   1.026  0.1136 -0.1505  0.3010
16636TIP3    H171323   6.551   5.459   1.120  1.2779 -0.0440  0.4025
16636TIP3    H271324   6.588   5.566   1.019  2.5056 -0.9481 -0.1333
16637TIP3   OH271325   4.711   4.542  13.087  0.1030  0.0744 -0.1901
16637TIP3    H171326   4.662   4.496  13.156 -0.8607  1.1483 -0.1205
16637TIP3    H271327   4.651   4.546  13.013  0.1252  1.2635 -0.1683
16638TIP3   OH271328   5.944   0.157   2.911 -0.3448 -0.3984  0.5598
16638TIP3    H171329   6.027   0.202   2.897 -1.2673  0.6280 -2.2995
16638TIP3    H271330   5.890   0.221   2.958 -0.5831  0.3060 -0.6182
16639TIP3   OH271331   6.355   4.060  15.983  0.0998 -0.4657  0.0408
16639TIP3    H171332   6.305   3.978  15.991  1.0086 -1.1800 -1.2232
16639TIP3    H271333   6.359   4.094  16.072 -1.5280 -1.0446  0.3705
16640TIP3   OH271334   3.401   6.319   1.144  0.1712  0.1192 -0.9011
16640TIP3    H171335   3.350   6.399   1.143  0.3462  0.2276 -1.5977
16640TIP3    H271336   3.358   6.262   1.080 -0.4341 -0.6568  0.1624
16641TIP3   OH271337   2.544   4.659  13.956  0.3471  0.9824 -0.1074
16641TIP3    H171338   2.501   4.742  13.937 -1.6728  0.4682  1.7853
16641TIP3    H271339   2.611   4.680  14.021 -0.5454  1.0999  0.8008
16642TIP3   OH271340   5.171   1.378   4.985 -0.1592  0.7756  0.4454
16642TIP3    H171341   5.110   1.428   4.932 -0.7742 -0.9593 -0.5839
16642TIP3    H271342   5.237   1.346   4.923  1.0012  1.4106  1.2989
16643TIP3   OH271343   6.424   5.156  15.143 -0.1911  0.1233  0.4765
16643TIP3    H171344   6.437   5.220  15.073 -1.6795 -0.1849 -0.1248
16643TIP3    H271345   6.415   5.072  15.097  0.0285 -0.2682  1.1318
16644TIP3   OH271346   0.391   0.873  14.734  0.8530 -0.1732 -0.0759
16644TIP3    H171347   0.368   0.918  14.653  1.2347 -1.2224 -0.8004
16644TIP3    H271348   0.314   0.820  14.755  0.7212  0.1656  0.2992
16645TIP3   OH271349   3.047   1.487  14.046  0.1728 -0.0552  0.2526
16645TIP3    H171350   3.068   1.403  14.006 -2.1148 -0.5851  0.0660
16645TIP3    H271351   2.977   1.468  14.109 -1.0248  1.8054 -0.4394
16646TIP3   OH271352   5.372   1.894   1.969  0.4066 -0.2878  0.8764
16646TIP3    H171353   5.276   1.889   1.971  0.2411  1.8865  3.1529
16646TIP3    H271354   5.396   1.860   1.883 -2.3058 -1.9470  0.6599
16647TIP3   OH271355   1.293   0.093   6.316 -0.1095  0.2154  0.9448
16647TIP3    H171356   1.208   0.095   6.272  0.4601  1.8468 -0.2193
16647TIP3    H271357   1.343   0.025   6.269 -0.0644  0.7995  0.1089
16648TIP3   OH271358   4.028   1.825   4.013 -0.3047 -0.0939  0.2380
16648TIP3    H171359   4.009   1.755   3.949  0.2207 -0.9395  0.9865
16648TIP3    H271360   3.945   1.839   4.058 -0.0646 -1.3125  1.1079
16649TIP3   OH271361   2.786   5.991   2.635 -0.0863 -0.1120 -0.9154
16649TIP3    H171362   2.792   5.899   2.661  0.8210 -0.2589 -1.5869
16649TIP3    H271363   2.693   6.003   2.614 -0.3220 -0.7120 -0.2484
16650TIP3   OH271364   3.411   1.394  14.025 -0.5630  0.0743 -0.0488
16650TIP3    H171365   3.411   1.472  13.968  2.1897  0.6777  0.6261
16650TIP3    H271366   3.444   1.324  13.969 -0.5077  0.0190  0.0530
16651TIP3   OH271367   0.229   0.522  11.653 -0.6382  0.7186 -0.0430
16651TIP3    H171368   0.203   0.486  11.738 -2.6105 -0.0213 -0.9175
16651TIP3    H271369   0.248   0.614  11.671 -1.4209  0.6686  1.1301
16652TIP3   OH271370   1.734   6.105  17.349 -0.6083 -0.2003  0.1605
16652TIP3    H171371   1.726   6.112  17.444  0.3189 -0.1723  0.2465
16652TIP3    H271372   1.807   6.162  17.327  0.2327 -1.4297 -0.3653
16653TIP3   OH271373   0.277   2.776   1.490  0.7583 -0.6020  0.4320
16653TIP3    H171374   0.244   2.864   1.508 -1.6302 -1.1112 -1.0408
16653TIP3    H271375   0.331   2.787   1.411  2.5029 -0.1428  1.6070
16654TIP3   OH271376   2.626   1.528   5.750 -1.1176 -0.3712  0.0030
16654TIP3    H171377   2.721   1.526   5.755 -1.0824 -0.0783 -0.5336
16654TIP3    H271378   2.598   1.449   5.795 -0.6597  0.0394  1.0394
16655TIP3   OH271379   0.182   6.496   2.296  0.5951 -0.0877 -0.3462
16655TIP3    H171380   0.253   6.532   2.243  0.1124 -0.7220 -1.4612
16655TIP3    H271381   0.110   6.483   2.234 -1.0062  1.7951  0.9557
16656TIP3   OH271382   3.979   1.000   0.115  0.2775 -0.1446  0.2434
16656TIP3    H171383   3.911   1.061   0.144 -0.7347 -1.2934  0.3255
16656TIP3    H271384   4.018   1.043   0.038  0.4257  1.1613  1.0196
16657TIP3   OH271385   3.139   3.463   3.941  0.2022  0.0064 -0.1124
16657TIP3    H171386   3.074   3.459   3.871 -1.7775  0.3105  1.5988
16657TIP3    H271387   3.101   3.410   4.012  1.6906  0.4290  1.0463
16658TIP3   OH271388   5.949   1.902   2.458 -0.0164  0.2393 -0.6039
16658TIP3    H171389   5.969   1.831   2.520 -1.9108 -0.3457 -0.5858
16658TIP3    H271390   5.895   1.962   2.509 -2.6054 -0.8318 -1.9202
16659TIP3   OH271391   6.245   5.162  12.234 -0.0131  0.0596  0.2527
16659TIP3    H171392   6.288   5.237  12.194 -0.0630  0.1299  0.3306
16659TIP3    H271393   6.169   5.199  12.279 -1.1937 -0.2532 -1.3715
16660TIP3   OH271394   1.398   1.837   4.072 -0.0044  0.4092 -0.0829
16660TIP3    H171395   1.350   1.872   3.997 -0.6264 -0.3092 -0.0281
16660TIP3    H271396   1.364   1.748   4.083  1.5821 -0.2319 -0.2440
16661TIP3   OH271397   0.892   6.506  14.043  0.6935 -0.2051  0.1420
16661TIP3    H171398   0.957   6.438  14.060 -1.0053 -1.8335  0.5165
16661TIP3    H271399   0.895   6.519  13.948  0.8308 -1.0652  0.0206
16662TIP3   OH271400   5.482   1.573   4.259 -0.4245  0.5624  0.1244
16662TIP3    H171401   5.391   1.579   4.230 -1.1186  2.5058  2.3600
16662TIP3    H271402   5.478   1.586   4.353  2.0504 -1.2482  0.5804
16663TIP3   OH271403   5.537   4.556  16.276  0.3041  0.2220 -0.1260
16663TIP3    H171404   5.464   4.617  16.263 -0.0422  0.1211  1.1859
16663TIP3    H271405   5.496   4.476  16.307  1.0763  0.7497  2.4707
16664TIP3   OH271406   3.250   2.692  16.466 -0.2558 -0.0357 -0.2605
16664TIP3    H171407   3.274   2.705  16.374 -1.0496 -0.0428 -0.4737
16664TIP3    H271408   3.190   2.764  16.486 -0.4474 -0.2954  0.1134
16665TIP3   OH271409   1.069   6.152   3.835 -0.0161  0.3895  0.2898
16665TIP3    H171410   1.096   6.117   3.920  0.5021  1.6355  0.6735
16665TIP3    H271411   0.981   6.119   3.822 -0.3852  0.7492  1.6721
16666TIP3   OH271412   1.804   0.151  10.861 -0.3169 -0.2037  0.0995
16666TIP3    H171413   1.734   0.181  10.919  0.5240  0.5100  0.7691
16666TIP3    H271414   1.848   0.232  10.833  0.1077 -0.6285 -0.4826
16667TIP3   OH271415   3.680   2.258  14.774 -0.0317 -0.4056  0.0848
16667TIP3    H171416   3.669   2.331  14.713  1.0873  0.9153  1.3846
16667TIP3    H271417   3.592   2.221  14.784 -0.3792 -0.1096 -1.6281
16668TIP3   OH271418   4.088   4.630   5.257 -0.0998  0.2202  0.2904
16668TIP3    H171419   4.126   4.589   5.178  0.9211  1.4743  0.1054
16668TIP3    H271420   4.164   4.651   5.311 -0.6212  1.5054  0.5502
16669TIP3   OH271421   0.078   3.061   0.306 -0.0182  0.0322  0.2108
16669TIP3    H171422   0.051   2.986   0.360  0.0870 -1.4193 -1.6434
16669TIP3    H271423   0.162   3.035   0.270 -0.0534  1.0039 -0.5924
16670TIP3   OH271424   1.390   3.646  16.356  0.7030  0.1589  0.6754
16670TIP3    H171425   1.295   3.646  16.366  0.6768  0.8188  0.4506
16670TIP3    H271426   1.422   3.711  16.418  0.8780  1.0700 -0.3401
16671TIP3   OH271427   6.414   1.709   0.185  0.3675  0.0211 -0.0046
16671TIP3    H171428   6.472   1.778   0.217  0.1943  1.4534 -2.4690
16671TIP3    H271429   6.392   1.736   0.095 -1.8694 -1.9053 -0.1432
16672TIP3   OH271430   1.026   5.441   1.310 -0.4194 -0.7272  0.2160
16672TIP3    H171431   1.052   5.350   1.324 -0.4230 -1.0046 -1.3631
16672TIP3    H271432   1.102   5.493   1.338  0.0563 -1.2849 -0.0279
16673TIP3   OH271433   5.229   5.426   4.289  0.0440 -0.2080  0.0235
16673TIP3    H171434   5.140   5.457   4.274 -0.4079 -0.9595  1.0824
16673TIP3    H271435   5.283   5.482   4.233 -1.0926  0.1755 -0.7287
16674TIP3   OH271436   6.086   1.971   5.032  0.3395  0.3109  0.4212
16674TIP3    H171437   6.134   1.968   5.114 -0.4584 -0.3279  0.8848
16674TIP3    H271438   6.057   2.062   5.024 -1.3493 -0.0301  1.9320
16675TIP3   OH271439   2.625   4.503   4.153  0.1637  0.0633 -0.1617
16675TIP3    H171440   2.704   4.449   4.160  0.1953 -0.0794 -1.3609
16675TIP3    H271441   2.561   4.446   4.109 -0.5544  0.2423  0.6211
16676TIP3   OH271442   2.024   4.122  14.927 -0.0836 -0.0655 -0.3747
16676TIP3    H171443   2.025   4.167  14.843 -0.9980 -0.1271 -0.4349
16676TIP3    H271444   1.957   4.054  14.916 -0.8676  0.5050  0.6910
16677TIP3   OH271445   4.127   1.260  12.640  0.3047 -0.2133  0.1421
16677TIP3    H171446   4.198   1.310  12.680  1.0389 -1.9198  1.0966
16677TIP3    H271447   4.072   1.233  12.714 -1.7619  1.5762 -0.6160
16678TIP3   OH271448   3.443   0.327   3.713  0.2886  0.2158  0.2387
16678TIP3    H171449   3.513   0.313   3.648  0.3254 -0.1327  0.3533
16678TIP3    H271450   3.464   0.267   3.784 -0.7482 -0.7182 -0.2177
16679TIP3   OH271451   0.665   4.112  15.582  0.8856 -0.7268 -0.4489
16679TIP3    H171452   0.703   4.026  15.562  0.5839 -1.0420  0.2971
16679TIP3    H271453   0.658   4.114  15.677 -1.1537 -0.7903 -0.5444
16680TIP3   OH271454   0.302   6.724   5.122  0.0258 -0.0734  0.2458
16680TIP3    H171455   0.390   6.763   5.121  0.0842 -0.1578  1.3169
16680TIP3    H271456   0.294   6.680   5.038  1.3199 -0.7407  0.4496
16681TIP3   OH271457   1.439   4.223  11.650 -0.5992  0.5124 -0.3919
16681TIP3    H171458   1.351   4.202  11.618 -0.5476  0.6831 -0.6481
16681TIP3    H271459   1.497   4.165  11.601 -0.6815 -0.5780  0.7519
16682TIP3   OH271460   2.549   5.511   3.008 -0.4202 -0.4877  0.3213
16682TIP3    H171461   2.495   5.534   2.932  0.0290  0.2407  0.2223
16682TIP3    H271462   2.628   5.564   2.998  0.6718 -2.0980  0.0585
16683TIP3   OH271463   1.502   2.259  16.398 -0.3084  0.3151 -0.3223
16683TIP3    H171464   1.584   2.213  16.385  1.6910  3.4399  0.1703
16683TIP3    H271465   1.469   2.227  16.482  0.8771 -0.3513 -0.0950
16684TIP3   OH271466   1.803   1.828  16.643  0.2203  0.1884 -0.0519
16684TIP3    H171467   1.870   1.763  16.664  0.3300  0.4285  0.3513
16684TIP3    H271468   1.765   1.797  16.561  0.6278 -0.1038 -0.1365
16685TIP3   OH271469   2.495   5.942  17.357 -0.1853 -0.0207  0.5124
16685TIP3    H171470   2.499   6.002  17.282 -2.1239 -0.7443 -0.2513
16685TIP3    H271471   2.447   5.991  17.424  0.3648  0.1405  0.7906
16686TIP3   OH271472   4.094   0.365  14.228 -0.0511  0.2046 -0.9409
16686TIP3    H171473   4.176   0.416  14.228 -0.3762  0.8498  1.3072
16686TIP3    H271474   4.025   0.431  14.218 -0.3710 -0.1042 -0.7777
16687TIP3   OH271475   3.203   6.012  13.395  0.0215  0.0204 -0.0532
16687TIP3    H171476   3.131   6.058  13.351  1.5557  2.3753 -0.2588
16687TIP3    H271477   3.271   6.004  13.328 -0.4161 -3.3818 -0.2637
16688TIP3   OH271478   2.058   4.275   1.839 -0.1652 -0.3335 -0.4945
16688TIP3    H171479   2.032   4.364   1.864  2.2924  0.6671 -1.2004
16688TIP3    H271480   2.081   4.232   1.922 -0.5265 -0.0392 -0.2373
16689TIP3   OH271481   4.651   1.264  14.073 -0.0098 -0.1834  0.2155
16689TIP3    H171482   4.567   1.235  14.108 -0.4261  0.9442  0.1910
16689TIP3    H271483   4.703   1.285  14.150 -0.8774  2.1637  0.2378
16690TIP3   OH271484   2.793   4.096  12.127  0.0440 -0.0961  0.8287
16690TIP3    H171485   2.749   4.055  12.201  0.6778 -1.8280  0.2980
16690TIP3    H271486   2.812   4.185  12.156 -2.2255  0.1795  1.6962
16691TIP3   OH271487   0.083   2.317  12.909 -0.0161 -0.1839  0.1897
16691TIP3    H171488   0.027   2.242  12.892  0.8791 -0.8977  0.3192
16691TIP3    H271489   0.079   2.331  13.003  1.0397 -1.0707  0.3826
16692TIP3   OH271490   0.996   6.277  13.291 -0.2542  0.5281 -0.0738
16692TIP3    H171491   0.983   6.339  13.220  1.4137  0.1039 -0.7838
16692TIP3    H271492   1.081   6.298  13.327  0.4702 -1.4507 -0.4862
16693TIP3   OH271493   1.838   0.220   1.862 -0.2402 -0.2949 -0.2055
16693TIP3    H171494   1.785   0.153   1.906 -0.2249  0.9282  1.7582
16693TIP3    H271495   1.926   0.208   1.897 -0.6859  2.2086  2.0943
16694TIP3   OH271496   2.363   5.547  16.718  1.0427 -0.0500 -0.1941
16694TIP3    H171497   2.277   5.569  16.755  1.5041  2.1258 -0.2867
16694TIP3    H271498   2.356   5.454  16.696 -0.8551 -0.2422  0.9479
16695TIP3   OH271499   3.347   0.157  17.241  0.1482  0.4997 -0.6555
16695TIP3    H171500   3.373   0.149  17.149  0.9703 -0.0545 -0.3799
16695TIP3    H271501   3.332   0.250  17.253  0.2721  0.6091 -1.2936
16696TIP3   OH271502   2.565   1.658  12.254  0.2060  0.2628 -0.0450
16696TIP3    H171503   2.544   1.725  12.319  0.1963 -0.4341  0.6903
16696TIP3    H271504   2.480   1.619  12.233  0.3516 -0.3207  0.4337
16697TIP3   OH271505   4.395   3.061  11.248 -0.2021  0.4599  0.5805
16697TIP3    H171506   4.418   2.969  11.255 -1.5909  0.1936  2.1170
16697TIP3    H271507   4.306   3.061  11.213 -0.0367  1.2490  0.1361
16698TIP3   OH271508   4.762   4.324  17.334 -0.0934 -0.2690  0.1594
16698TIP3    H171509   4.758   4.380  17.256 -4.6033 -2.0140 -1.1721
16698TIP3    H271510   4.744   4.383  17.407 -1.0453  0.6341 -0.7771
16699TIP3   OH271511   3.763   3.428   0.021  0.1962 -0.0397 -0.5487
16699TIP3    H171512   3.748   3.342  -0.019 -1.0206  0.6047 -1.5539
16699TIP3    H271513   3.708   3.428   0.099 -1.4266  0.5550 -1.6566
16700TIP3   OH271514   6.452   3.369  12.733  0.3370  0.0018  0.0238
16700TIP3    H171515   6.378   3.338  12.785  0.2442  2.5210  1.6005
16700TIP3    H271516   6.529   3.336  12.779  0.2255  0.7636  0.7750
16701TIP3   OH271517   2.840   4.945   0.654 -0.2811  0.2832  0.5829
16701TIP3    H171518   2.788   4.973   0.730  0.5684  0.1784  1.2226
16701TIP3    H271519   2.867   5.026   0.612 -2.5513  0.3612 -0.9264
16702TIP3   OH271520   5.219   5.983   0.567  0.1185  0.3222  0.1275
16702TIP3    H171521   5.195   6.021   0.651  0.2539 -1.4668  1.0319
16702TIP3    H271522   5.309   6.012   0.553  0.0062  0.8482  0.4730
16703TIP3   OH271523   2.127   6.169  17.237 -0.1761  0.1832  0.0626
16703TIP3    H171524   2.132   6.103  17.306 -1.4584  1.3875  1.3720
16703TIP3    H271525   2.169   6.247  17.275 -0.5630  0.7532 -0.6548
16704TIP3   OH271526   3.250   4.855  16.399 -0.2635 -0.3795 -0.2779
16704TIP3    H171527   3.334   4.814  16.421  0.4846  1.3367  0.2563
16704TIP3    H271528   3.261   4.947  16.423 -2.1001  0.0192 -0.7802
16705TIP3   OH271529   1.542   2.492  13.633 -0.3511  0.0115 -0.3804
16705TIP3    H171530   1.625   2.444  13.641 -1.0927 -1.2297  0.1497
16705TIP3    H271531   1.515   2.508  13.724 -0.4431  0.8740 -0.5533
16706TIP3   OH271532   3.861   1.378   0.226  0.0185 -0.2810  0.3915
16706TIP3    H171533   3.956   1.389   0.213  0.4526 -1.5362  2.0951
16706TIP3    H271534   3.824   1.384   0.138  1.5371  1.3303 -0.2005
16707TIP3   OH271535   2.056   3.866   5.878  0.5090 -0.3635  0.3201
16707TIP3    H171536   2.104   3.814   5.943 -0.1478 -1.5932 -0.1370
16707TIP3    H271537   2.100   3.846   5.795  0.9165  0.6714  0.2691
16708TIP3   OH271538   2.307   1.142  17.406 -0.1742  0.2569  0.6504
16708TIP3    H171539   2.302   1.109  17.317 -1.8865 -0.7404  1.0958
16708TIP3    H271540   2.334   1.234  17.395  0.8491 -0.1704 -0.7885
16709TIP3   OH271541   4.093   6.164   5.072 -0.1515 -0.5322 -0.0244
16709TIP3    H171542   4.101   6.259   5.067 -1.3417 -0.4430 -0.3987
16709TIP3    H271543   4.161   6.138   5.135  0.1698  0.5526  0.1014
16710TIP3   OH271544   1.763   6.354  16.342  0.9486 -0.2682 -0.7999
16710TIP3    H171545   1.687   6.382  16.392  1.4845 -0.2415  0.0127
16710TIP3    H271546   1.831   6.336  16.407  0.9309 -2.6071 -1.3328
16711TIP3   OH271547   5.767   2.127   2.337  0.2496 -0.9366 -0.1270
16711TIP3    H171548   5.692   2.069   2.351  0.3603 -1.1020 -0.2114
16711TIP3    H271549   5.800   2.144   2.425 -1.1260  0.8238  0.1138
16712TIP3   OH271550   4.561   2.817  15.842 -0.2913 -0.3060  0.1167
16712TIP3    H171551   4.498   2.748  15.864  0.1620 -1.0463 -0.8545
16712TIP3    H271552   4.565   2.817  15.747  0.8706  0.0059  0.1499
16713TIP3   OH271553   3.491   6.070  14.146  0.1120 -0.5404  0.0457
16713TIP3    H171554   3.537   6.071  14.230  1.7343 -0.6515 -0.7948
16713TIP3    H271555   3.488   5.977  14.121  0.3497 -0.4360 -0.3836
16714TIP3   OH271556   3.730   4.816  12.451 -0.3932 -0.5435  0.4062
16714TIP3    H171557   3.729   4.798  12.545 -1.5834  0.6104  0.6432
16714TIP3    H271558   3.744   4.910  12.445 -0.2383 -0.6213 -0.5854
16715TIP3   OH271559   2.114   6.434  12.162  0.3319 -0.4033  0.3182
16715TIP3    H171560   2.080   6.475  12.083  0.6260 -0.1861  0.3044
16715TIP3    H271561   2.041   6.380  12.194 -0.7114  1.5317  1.3559
16716TIP3   OH271562   2.736   1.907   0.122  0.3930 -0.3316  0.2483
16716TIP3    H171563   2.657   1.951   0.153 -1.0284 -2.2157 -0.4816
16716TIP3    H271564   2.791   1.977   0.086 -0.7110  1.0789  1.2220
16717TIP3   OH271565   1.949   5.207   5.405  0.5930 -0.2246  0.2509
16717TIP3    H171566   1.860   5.215   5.373  0.5035  2.7089  0.9548
16717TIP3    H271567   2.002   5.197   5.326 -0.2539 -1.4325 -0.1994
16718TIP3   OH271568   1.188   4.233   6.608  0.1069  0.3762  0.2035
16718TIP3    H171569   1.242   4.166   6.650  2.3219  0.1626 -2.6727
16718TIP3    H271570   1.117   4.185   6.567 -0.5073  0.2743  1.3674
16719TIP3   OH271571   3.003   6.220  14.458  0.2454 -0.0526 -0.3026
16719TIP3    H171572   3.014   6.309  14.492 -0.4580  0.1940 -0.6802
16719TIP3    H271573   3.017   6.163  14.533 -0.7719  0.4539  0.2913
16720TIP3   OH271574   2.977   3.906   5.384  0.3637  0.4900  0.7789
16720TIP3    H171575   2.893   3.953   5.380 -0.1919 -0.1986  3.0988
16720TIP3    H271576   2.958   3.820   5.348 -0.0391  0.2254  1.5984
16721TIP3   OH271577   0.641   4.472   1.935  0.4137  0.2834 -0.4645
16721TIP3    H171578   0.595   4.485   2.017 -0.9804  0.3469 -1.2230
16721TIP3    H271579   0.648   4.560   1.898  0.7717  0.2207 -0.5443
16722TIP3   OH271580   2.880   0.375   6.762  0.8513 -0.7433 -0.2090
16722TIP3    H171581   2.950   0.310   6.772  0.3895 -1.2682 -0.3411
16722TIP3    H271582   2.807   0.339   6.814 -0.5078 -1.9205 -2.7226
16723TIP3   OH271583   4.770   0.363  13.676  0.2024  0.0100 -0.0065
16723TIP3    H171584   4.710   0.295  13.643  0.2726 -1.3001  2.3536
16723TIP3    H271585   4.772   0.348  13.770  0.3962  3.2104  0.5794
16724TIP3   OH271586   2.240   5.491   2.912 -0.2759  0.4750 -0.0677
16724TIP3    H171587   2.258   5.519   3.002  0.9299  1.0050 -0.4640
16724TIP3    H271588   2.211   5.400   2.921  2.3000 -0.3518  0.6630
16725TIP3   OH271589   2.755   2.798   2.823 -0.2242 -0.2242 -0.2166
16725TIP3    H171590   2.758   2.714   2.778  1.5341  0.8087 -2.2473
16725TIP3    H271591   2.841   2.805   2.864 -0.1775  0.7471 -0.4599
16726TIP3   OH271592   3.353   3.895   0.218 -0.1869 -0.5728  0.1436
16726TIP3    H171593   3.341   3.915   0.126 -0.0920  0.6864  0.3837
16726TIP3    H271594   3.447   3.904   0.233  0.0799 -2.7061 -0.0445
16727TIP3   OH271595   3.347   0.680   4.451 -0.6196 -0.2099 -0.3835
16727TIP3    H171596   3.288   0.620   4.496  0.7008 -0.8314  0.5820
16727TIP3    H271597   3.429   0.631   4.442  0.3190  1.2496 -0.0801
16728TIP3   OH271598   4.209   3.482  14.223  0.2382 -0.1190  0.2132
16728TIP3    H171599   4.139   3.528  14.177  0.5750 -2.0638 -2.4910
16728TIP3    H271600   4.206   3.516  14.313 -2.5985  1.5545 -0.4113
16729TIP3   OH271601   1.416   0.066   0.995 -0.3388 -0.4778 -0.1102
16729TIP3    H171602   1.483   0.014   1.040 -1.5610 -1.1156  1.0481
16729TIP3    H271603   1.446   0.156   1.004  1.0538 -0.8373 -0.8253
16730TIP3   OH271604   3.547   4.125   4.567 -0.1244  0.1636  0.0538
16730TIP3    H171605   3.583   4.183   4.500 -1.5017  0.3345 -0.5577
16730TIP3    H271606   3.614   4.057   4.577  0.9822  1.1945 -0.0637
16731TIP3   OH271607   3.076   2.275  14.404 -0.4125 -0.2185 -0.9702
16731TIP3    H171608   3.159   2.285  14.450  0.3559  0.2117 -2.3813
16731TIP3    H271609   3.010   2.305  14.467  0.3754 -1.4489  0.5120
16732TIP3   OH271610   3.624   5.064   1.457 -0.0423 -0.1496 -0.7707
16732TIP3    H171611   3.580   5.017   1.528  0.6175  1.5083  0.8241
16732TIP3    H271612   3.559   5.069   1.388 -1.6432  0.3982  0.7125
16733TIP3   OH271613   0.556   0.210  16.496 -0.0958  0.2973  0.3039
16733TIP3    H171614   0.639   0.245  16.465 -1.0199  2.3298 -0.0465
16733TIP3    H271615   0.539   0.136  16.438  2.5372 -1.7347  1.8883
16734TIP3   OH271616   1.453   3.267  15.858  0.1008  0.2199 -0.4373
16734TIP3    H171617   1.526   3.282  15.797  2.1864 -0.6905  1.6749
16734TIP3    H271618   1.403   3.348  15.857 -1.1462 -0.3632 -4.7230
16735TIP3   OH271619   1.604   0.847   0.975 -0.0644 -0.5737 -0.7987
16735TIP3    H171620   1.580   0.777   0.914 -0.5736 -0.0909 -1.1589
16735TIP3    H271621   1.641   0.801   1.051  0.3555 -1.1859 -1.3718
16736TIP3   OH271622   4.654   0.461  16.933  0.3293  0.1981  0.0600
16736TIP3    H171623   4.735   0.411  16.949  1.1199  0.8793 -1.5414
16736TIP3    H271624   4.685   0.545  16.900 -1.0474  0.2364 -1.2072
16737TIP3   OH271625   0.737   4.023   5.441  0.1440  0.1739  0.4141
16737TIP3    H171626   0.803   4.053   5.503  0.0340 -0.5507  0.8883
16737TIP3    H271627   0.786   3.981   5.371  0.1838 -0.4904  0.8357
16738TIP3   OH271628   3.592   5.333   2.961 -0.0067 -0.7419 -0.5732
16738TIP3    H171629   3.685   5.352   2.960 -0.2791  0.6923 -1.1513
16738TIP3    H271630   3.562   5.361   3.048 -0.0343 -0.4923 -0.6635
16739TIP3   OH271631   2.109   1.779   4.514 -0.4555 -0.2696  0.3173
16739TIP3    H171632   2.039   1.844   4.510 -0.0813  0.1850  0.8619
16739TIP3    H271633   2.095   1.733   4.596 -0.2543 -0.3330  0.3175
16740TIP3   OH271634   1.130   6.712  12.070  0.0320 -0.0913  0.4405
16740TIP3    H171635   1.185   6.633  12.068 -1.3220 -1.1740  2.7010
16740TIP3    H271636   1.106   6.723  12.162 -0.8351  2.2985  0.0124
16741TIP3   OH271637   0.472   6.032  11.060  0.1094  0.0087  0.2448
16741TIP3    H171638   0.398   6.031  11.121  0.7427  0.8258  1.0378
16741TIP3    H271639   0.461   6.112  11.009  0.2974 -0.0074  0.1776
16742TIP3   OH271640   4.996   2.835  12.013 -0.0405 -0.0689  0.0639
16742TIP3    H171641   4.913   2.788  12.009 -0.8650  1.3947 -0.5469
16742TIP3    H271642   4.979   2.919  11.970  2.0192 -0.1215 -0.9864
16743TIP3   OH271643   2.712   0.469   2.035  0.3860  0.4340 -0.0982
16743TIP3    H171644   2.687   0.512   2.116  0.7249 -1.1752  0.9178
16743TIP3    H271645   2.651   0.503   1.969 -0.1252  1.5044  0.9037
16744TIP3   OH271646   2.821   4.162   0.799  0.4080  0.6441  0.1579
16744TIP3    H171647   2.832   4.256   0.790 -1.6788  0.7617 -2.4014
16744TIP3    H271648   2.892   4.124   0.747  0.9703  0.7810  0.8105
16745TIP3   OH271649   3.536   2.968   4.379  0.3256  0.7121  0.3012
16745TIP3    H171650   3.482   2.993   4.305 -1.1264 -0.3124  0.9615
16745TIP3    H271651   3.494   3.009   4.455  2.6516  3.0561  0.4915
16746TIP3   OH271652   6.644   2.360   1.549  0.2831  0.3060 -0.0702
16746TIP3    H171653   6.584   2.392   1.482  0.3059  1.1937  0.3232
16746TIP3    H271654   6.715   2.425   1.552  1.2586 -0.6962 -0.4936
16747TIP3   OH271655   0.648   5.074   1.963 -0.8244  0.2992  0.4890
16747TIP3    H171656   0.715   5.073   1.894 -0.5303 -0.5061  0.7758
16747TIP3    H271657   0.580   5.132   1.929 -0.4930  0.2414 -0.3027
16748TIP3   OH271658   5.364   0.438  14.228 -0.1282 -0.1432  0.2136
16748TIP3    H171659   5.330   0.455  14.316  1.1071  0.0052  0.6698
16748TIP3    H271660   5.381   0.524  14.191  1.3708 -0.2360  0.6430
16749TIP3   OH271661   6.056   6.613   2.660  0.3114  0.1674  0.5705
16749TIP3    H171662   5.972   6.577   2.690  0.2078 -0.6158 -0.6065
16749TIP3    H271663   6.109   6.619   2.739 -0.4255 -0.5080  1.1368
16750TIP3   OH271664   6.483   3.942   3.952  0.8015  0.2062  0.0077
16750TIP3    H171665   6.432   3.966   4.028 -0.9996 -1.7650 -0.4980
16750TIP3    H271666   6.574   3.946   3.982  0.3382  2.3636  1.3463
16751TIP3   OH271667   5.493   3.690  10.504 -0.3949 -0.1234 -0.2418
16751TIP3    H171668   5.584   3.716  10.522 -0.3045 -0.7773  0.2789
16751TIP3    H271669   5.501   3.604  10.462 -0.7653 -0.0568 -0.4477
16752TIP3   OH271670   1.680   3.597   6.765  0.7663 -0.1729  0.2322
16752TIP3    H171671   1.668   3.504   6.743 -1.7359 -0.5472  2.7230
16752TIP3    H271672   1.629   3.644   6.700 -0.0779 -0.7285  0.4817
16753TIP3   OH271673   2.050   3.568   5.924 -0.2455  0.1428  0.1883
16753TIP3    H171674   1.986   3.597   5.859  2.0054  2.2186 -1.2535
16753TIP3    H271675   2.070   3.478   5.899 -0.2711  0.5311 -1.3214
16754TIP3   OH271676   0.571   3.891  14.629  0.1389 -0.1502 -0.0461
16754TIP3    H171677   0.561   3.846  14.545 -0.7884  0.0059 -0.0265
16754TIP3    H271678   0.587   3.982  14.605 -0.6316 -0.0129 -0.0511
16755TIP3   OH271679   1.306   5.312  13.208 -0.3060 -0.2944  0.6347
16755TIP3    H171680   1.399   5.308  13.232 -0.2320 -0.7908  0.2772
16755TIP3    H271681   1.305   5.354  13.122 -0.5279  0.9616  1.2294
16756TIP3   OH271682   5.639   2.047   1.558  0.8430 -0.2280  0.0845
16756TIP3    H171683   5.673   2.111   1.496 -1.1932  0.2824 -0.5820
16756TIP3    H271684   5.639   2.093   1.642 -3.9359  2.2540 -0.8822
16757TIP3   OH271685   3.616   6.082  17.114  0.2128  0.0887  0.2341
16757TIP3    H171686   3.697   6.031  17.113  0.3566  0.3282 -0.8245
16757TIP3    H271687   3.641   6.166  17.075 -1.0894 -0.6876 -2.4649
16758TIP3   OH271688   3.464   0.801  17.376  0.2114  0.4008 -0.4042
16758TIP3    H171689   3.545   0.832  17.336  0.3685  1.3328  0.5752
16758TIP3    H271690   3.395   0.855  17.338  0.1360  0.0973 -0.7030
16759TIP3   OH271691   4.997   0.519  11.954 -0.1218 -0.4197 -0.3842
16759TIP3    H171692   4.939   0.459  12.002  0.4523  0.4145  1.4565
16759TIP3    H271693   4.940   0.563  11.891 -0.5565 -2.8447 -1.8122
16760TIP3   OH271694   1.609   0.612  15.631  0.2837  0.2502 -0.1471
16760TIP3    H171695   1.566   0.528  15.616  0.3799  0.2965 -0.7142
16760TIP3    H271696   1.698   0.600  15.600  1.0028 -0.1434  1.9190
16761TIP3   OH271697   5.621   6.563   4.917 -0.0590  0.2359  0.6699
16761TIP3    H171698   5.699   6.604   4.955 -0.0991  0.1040  0.8943
16761TIP3    H271699   5.550   6.592   4.974 -0.3117  1.1092 -0.0671
16762TIP3   OH271700   2.769   3.977   5.161  0.0156  0.2907 -0.2882
16762TIP3    H171701   2.761   4.073   5.157 -0.4539  0.2427 -0.6944
16762TIP3    H271702   2.688   3.949   5.205  0.8108  0.1650  1.1594
16763TIP3   OH271703   4.388   4.614  15.764 -0.2798 -0.5673 -0.2606
16763TIP3    H171704   4.442   4.538  15.743 -0.9330 -0.9385 -0.6409
16763TIP3    H271705   4.437   4.689  15.731 -0.4162 -0.9770 -1.4457
16764TIP3   OH271706   1.794   2.559   0.838 -0.0052 -0.2046  0.8434
16764TIP3    H171707   1.822   2.586   0.926 -0.0323 -2.2479  1.5116
16764TIP3    H271708   1.712   2.512   0.852  0.3224 -1.1135 -0.2118
16765TIP3   OH271709   1.325   2.553   3.833 -0.7320  0.8798 -0.2985
16765TIP3    H171710   1.247   2.539   3.780 -0.3253  0.3889 -0.7767
16765TIP3    H271711   1.389   2.492   3.798  0.8755  3.3253 -1.9430
16766TIP3   OH271712   1.678   6.448  16.860 -0.6481 -0.2148  0.1234
16766TIP3    H171713   1.685   6.531  16.906 -0.2400  1.0310 -2.0746
16766TIP3    H271714   1.595   6.411  16.889 -0.9513  1.0674  0.9310
16767TIP3   OH271715   1.591   3.355   6.661  0.1940  0.3111 -0.2917
16767TIP3    H171716   1.552   3.362   6.574  0.6093  1.3173 -0.4096
16767TIP3    H271717   1.659   3.288   6.651  0.2483  0.4284 -0.7502
16768TIP3   OH271718   2.045   5.407   5.881 -0.2963 -0.1144  0.1902
16768TIP3    H171719   2.103   5.462   5.934 -0.2825  0.8370 -0.7921
16768TIP3    H271720   2.006   5.347   5.945  1.2169 -0.3262  0.9821
16769TIP3   OH271721   5.117   3.334  13.118  0.2549  0.0200  0.0039
16769TIP3    H171722   5.139   3.355  13.027 -1.0761  1.5549 -0.0108
16769TIP3    H271723   5.094   3.241  13.116 -1.3350  0.3823 -1.6081
16770TIP3   OH271724   6.501   1.537  15.216  0.5147 -0.4315  0.2677
16770TIP3    H171725   6.486   1.502  15.304  0.2568 -0.8314  0.0701
16770TIP3    H271726   6.413   1.551  15.180  0.5345  2.7864  1.2177
16771TIP3   OH271727   5.447   5.879  13.028  0.5821 -0.0119 -0.1580
16771TIP3    H171728   5.422   5.956  12.977  0.3442  0.2728  0.3815
16771TIP3    H271729   5.533   5.901  13.064  0.3102  0.1902  0.3733
16772TIP3   OH271730   1.392   6.047   0.524  0.2090  0.2452 -0.4852
16772TIP3    H171731   1.394   6.098   0.605 -0.0886  0.7212 -0.7675
16772TIP3    H271732   1.302   6.018   0.516  1.1241 -3.9482  1.8281
16773TIP3   OH271733   0.927   1.287  13.982  0.3513 -0.5222  0.3722
16773TIP3    H171734   1.004   1.282  14.039 -0.3406  1.5230  1.5738
16773TIP3    H271735   0.881   1.204  13.997  1.1692 -0.8180  1.3583
16774TIP3   OH271736   1.720   0.435   3.129  0.5633 -0.2610 -0.2633
16774TIP3    H171737   1.742   0.402   3.042 -0.1148  0.2340 -0.6330
16774TIP3    H271738   1.625   0.443   3.128  0.6914  1.5449 -0.1403
16775TIP3   OH271739   5.441   1.877   4.758 -0.4412  0.4465  0.5434
16775TIP3    H171740   5.473   1.876   4.848  0.3390  0.1593  0.2752
16775TIP3    H271741   5.381   1.802   4.752 -0.7128  0.6351  0.8958
16776TIP3   OH271742   1.375   4.343  16.350  0.1218 -0.0666  0.2512
16776TIP3    H171743   1.383   4.407  16.421 -2.4913  0.6285  0.0094
16776TIP3    H271744   1.448   4.282  16.365  2.0727  2.3082  1.1221
16777TIP3   OH271745   0.474   5.469  17.137  0.1678  0.5396 -1.5140
16777TIP3    H171746   0.544   5.452  17.200 -1.2222 -0.1922 -0.0867
16777TIP3    H271747   0.485   5.561  17.114  0.3231  1.0334  0.3610
16778TIP3   OH271748   4.653   3.730  14.730 -0.3629  0.5110  0.1214
16778TIP3    H171749   4.652   3.747  14.824 -0.1742 -1.1266  0.4423
16778TIP3    H271750   4.612   3.808  14.691  0.7451  1.7985  1.4321
16779TIP3   OH271751   5.691   1.822   3.430 -0.1373  0.0552  0.0549
16779TIP3    H171752   5.702   1.741   3.480  2.2566  0.6686  0.6669
16779TIP3    H271753   5.652   1.883   3.493 -3.2786 -0.8696 -0.7903
16780TIP3   OH271754   0.103   1.618  11.611  0.4910 -0.1914 -0.3856
16780TIP3    H171755   0.133   1.598  11.700 -0.5436 -1.8764 -0.3597
16780TIP3    H271756   0.094   1.713  11.609  0.7351 -0.1039  1.2505
16781TIP3   OH271757   5.377   2.693  14.791 -0.4212 -0.3310 -0.1873
16781TIP3    H171758   5.434   2.768  14.776 -0.0596 -0.1452  1.8405
16781TIP3    H271759   5.434   2.617  14.781  1.0787 -0.1202  4.2996
16782TIP3   OH271760   1.166   4.472  15.218 -0.8106 -0.2092 -0.3998
16782TIP3    H171761   1.094   4.452  15.278  0.4680  1.1392  1.6891
16782TIP3    H271762   1.138   4.552  15.173 -1.0140 -0.2533 -0.3550
16783TIP3   OH271763   5.829   1.154   3.817  0.4188 -0.0673 -0.0686
16783TIP3    H171764   5.824   1.155   3.912 -0.4640 -2.2632 -0.0306
16783TIP3    H271765   5.871   1.071   3.795 -0.1507  0.0106 -1.6116
16784TIP3   OH271766   0.909   5.592  11.219  0.2183  0.0236  0.0011
16784TIP3    H171767   0.986   5.543  11.191  0.0521 -0.8137  0.9061
16784TIP3    H271768   0.836   5.551  11.172 -0.1029 -1.6005  1.7841
16785TIP3   OH271769   5.559   6.408   1.311  0.4153 -0.1961  0.0976
16785TIP3    H171770   5.571   6.498   1.342 -0.5669  0.2914 -0.8235
16785TIP3    H271771   5.506   6.418   1.232 -3.1365 -1.8393  2.0605
16786TIP3   OH271772   0.078   6.584  11.869  0.0437 -0.0379 -0.0882
16786TIP3    H171773   0.106   6.556  11.956  0.9552 -0.7469 -0.5921
16786TIP3    H271774   0.160   6.591  11.819 -0.4002  1.0191 -0.7096
16787TIP3   OH271775   5.641   2.373   3.437 -0.0413 -0.2425  0.1763
16787TIP3    H171776   5.712   2.361   3.501 -0.4341 -0.1210  0.6359
16787TIP3    H271777   5.564   2.393   3.490 -0.2504  0.4230 -0.3639
16788TIP3   OH271778   1.919   0.754   2.734 -0.3885 -0.0063 -0.1002
16788TIP3    H171779   1.857   0.765   2.663 -0.4320 -0.7993 -0.1900
16788TIP3    H271780   1.981   0.688   2.703 -0.6149 -0.6275  0.7256
16789TIP3   OH271781   4.083   4.114   0.493  0.1591 -0.5977 -0.7357
16789TIP3    H171782   4.067   4.021   0.504 -1.1413 -0.2913  0.1935
16789TIP3    H271783   4.016   4.144   0.432  1.0247 -0.3879 -1.6115
16790TIP3   OH271784   2.735   5.019  15.768 -0.5748 -0.0386 -0.7679
16790TIP3    H171785   2.728   5.101  15.719  1.8987 -0.2540 -1.6326
16790TIP3    H271786   2.698   5.039  15.854 -2.6755  1.0904 -1.8495
16791TIP3   OH271787   1.847   1.476   3.840 -0.0016  0.1573  0.0759
16791TIP3    H171788   1.771   1.445   3.889 -0.8790  0.7344 -0.8897
16791TIP3    H271789   1.844   1.428   3.758 -0.2381  1.3291 -0.6156
16792TIP3   OH271790   6.335   1.241   0.188  0.1722  0.0874  0.1020
16792TIP3    H171791   6.304   1.296   0.116 -0.1792  0.5641  0.6101
16792TIP3    H271792   6.308   1.152   0.164 -1.6477  0.4762  0.5397
16793TIP3   OH271793   0.394   4.234  13.210 -0.0777  0.5346 -0.2901
16793TIP3    H171794   0.301   4.219  13.195  0.0586  0.2741 -0.9019
16793TIP3    H271795   0.432   4.146  13.213 -0.2039  0.4836  2.4689
16794TIP3   OH271796   2.910   4.440  15.466 -0.5325 -0.3882 -0.3452
16794TIP3    H171797   2.981   4.405  15.412 -1.8329 -0.5343 -2.0462
16794TIP3    H271798   2.834   4.387  15.443 -1.9349  1.7880 -0.9835
16795TIP3   OH271799   2.091   4.027   5.481  0.4068 -0.0415  0.7871
16795TIP3    H171800   2.151   4.098   5.506 -0.0403  0.5904  0.0736
16795TIP3    H271801   2.117   4.004   5.392  1.6037 -1.8938  1.5459
16796TIP3   OH271802   4.053   0.028   2.513 -0.7406  0.6236 -0.1112
16796TIP3    H171803   4.016   0.031   2.602  0.5161  2.1891  0.3952
16796TIP3    H271804   4.049   0.119   2.483  0.1500  0.3359 -1.1186
16797TIP3   OH271805   5.887   0.713  16.212  0.2183 -0.1100  0.3841
16797TIP3    H171806   5.828   0.646  16.249  0.7995 -0.9269 -0.1418
16797TIP3    H271807   5.846   0.796  16.237 -1.2042 -0.6510 -0.0333
16798TIP3   OH271808   2.422   2.710   6.346  0.4599  0.5263 -0.2796
16798TIP3    H171809   2.407   2.708   6.440  0.1068  0.7849 -0.3276
16798TIP3    H271810   2.497   2.652   6.332 -0.3441 -0.6295  0.0018
16799TIP3   OH271811   2.559   4.810  12.503 -0.0131  0.3315 -0.2302
16799TIP3    H171812   2.646   4.773  12.514  0.3407  0.9458 -0.9340
16799TIP3    H271813   2.524   4.813  12.593  0.5103 -0.3056  0.0092
16800TIP3   OH271814   5.875   1.906   6.300 -0.3426  0.1922  0.3099
16800TIP3    H171815   5.850   1.828   6.349 -1.6778  0.1785 -0.3511
16800TIP3    H271816   5.907   1.967   6.367 -1.5781 -0.0307  1.1360
16801TIP3   OH271817   5.972   0.689   1.337 -0.0171  0.3274 -0.1453
16801TIP3    H171818   6.032   0.742   1.390  0.2331 -0.8740  0.8261
16801TIP3    H271819   5.927   0.633   1.400 -1.1089  0.1781 -1.0224
16802TIP3   OH271820   0.941   4.380   0.653  0.2367  0.4493  0.2583
16802TIP3    H171821   0.885   4.433   0.710 -0.1226  0.4250 -0.0650
16802TIP3    H271822   0.927   4.290   0.683 -1.4783  0.2018 -1.0984
16803TIP3   OH271823   0.775   2.786  15.560 -0.0759 -0.5286  0.0088
16803TIP3    H171824   0.788   2.748  15.473  2.1078  1.0199 -0.4337
16803TIP3    H271825   0.829   2.732  15.618 -1.9813 -1.9162  0.5665
16804TIP3   OH271826   2.547   1.508   0.441  0.8809  0.2430 -0.1999
16804TIP3    H171827   2.581   1.593   0.470  1.2956  0.5379 -1.4752
16804TIP3    H271828   2.453   1.522   0.428  0.6408  0.0414  1.1571
16805TIP3   OH271829   1.627   0.170  13.683 -0.7770 -0.2254  0.3069
16805TIP3    H171830   1.642   0.093  13.737  0.3727  0.8970  1.6965
16805TIP3    H271831   1.714   0.210  13.674 -1.3318  0.8897 -0.3778
16806TIP3   OH271832   5.523   4.118  13.261 -0.4748  0.6076 -0.0072
16806TIP3    H171833   5.432   4.148  13.253 -1.0788 -0.8425  1.0107
16806TIP3    H271834   5.533   4.054  13.190 -0.9681 -0.8055  1.1314
16807TIP3   OH271835   2.363   5.007   2.946  0.2390  0.0099  0.5469
16807TIP3    H171836   2.331   5.031   2.859  0.3903 -1.2118  0.1350
16807TIP3    H271837   2.364   5.090   2.995  0.7422  0.8257 -0.7880
16808TIP3   OH271838   2.224   1.305  16.176 -0.5981 -0.5495 -0.0315
16808TIP3    H171839   2.265   1.219  16.166 -1.6816 -0.9337 -1.5486
16808TIP3    H271840   2.189   1.305  16.265  1.3523 -0.7618  0.7997
16809TIP3   OH271841   4.459   2.790  11.263 -0.3789  0.2026 -0.6017
16809TIP3    H171842   4.509   2.743  11.197 -0.9167  0.5060 -1.2351
16809TIP3    H271843   4.369   2.761  11.250 -0.3088 -0.8962  0.9958
16810TIP3   OH271844   0.142   1.600  16.258  0.2851  0.2925  0.4427
16810TIP3    H171845   0.137   1.506  16.242 -0.9962  0.5133 -0.6710
16810TIP3    H271846   0.051   1.630  16.254  0.6333  1.5252  1.1677
16811TIP3   OH271847   4.529   1.054  11.656 -0.2016 -0.2165  0.2415
16811TIP3    H171848   4.480   0.973  11.644  1.0808 -0.9506 -0.2113
16811TIP3    H271849   4.462   1.122  11.663 -1.2826 -1.2471  0.1279
16812TIP3   OH271850   6.107   1.330   3.349 -0.2387 -0.1835 -0.0832
16812TIP3    H171851   6.171   1.401   3.358 -0.7239  0.2191  0.1974
16812TIP3    H271852   6.136   1.282   3.271  1.3141 -0.9501  0.9158
16813TIP3   OH271853   1.819   3.043  11.920  0.5597  0.0768  0.1945
16813TIP3    H171854   1.851   2.989  11.992 -0.5677 -0.1939  0.5125
16813TIP3    H271855   1.728   3.064  11.944  0.6187  1.1769 -0.4623
16814TIP3   OH271856   1.760   0.195  12.381 -0.3465 -0.0644 -0.5741
16814TIP3    H171857   1.740   0.265  12.444  0.8978  0.1509 -0.4020
16814TIP3    H271858   1.674   0.163  12.353 -0.9513  1.4879 -0.6023
16815TIP3   OH271859   5.589   0.383   0.347 -0.3450 -0.4820  0.3841
16815TIP3    H171860   5.509   0.335   0.372 -1.1791  1.1092  0.9253
16815TIP3    H271861   5.649   0.368   0.420 -1.8195  1.9558  2.2714
16816TIP3   OH271862   6.581   1.842   6.035 -0.1963 -0.0609  0.5254
16816TIP3    H171863   6.619   1.892   6.107  0.2032  1.1733 -0.5155
16816TIP3    H271864   6.654   1.790   6.000  0.1414  0.9701 -0.3424
16817TIP3   OH271865   5.790   2.711   1.579 -0.1421 -0.4638 -0.1107
16817TIP3    H171866   5.697   2.693   1.562 -0.0697 -0.4643 -0.5215
16817TIP3    H271867   5.811   2.785   1.522  0.1229 -0.4930 -0.0527
16818TIP3   OH271868   0.050   5.020   3.722 -0.0811 -0.0341  0.1645
16818TIP3    H171869   0.098   4.938   3.718  0.4775  0.3367 -0.9834
16818TIP3    H271870   0.038   5.046   3.631 -3.1684 -0.5105  0.3199
16819TIP3   OH271871   2.731   0.911   1.099  0.3352 -0.3694 -0.1983
16819TIP3    H171872   2.786   0.847   1.053 -0.0556 -0.9883  0.1857
16819TIP3    H271873   2.649   0.865   1.116  0.6168 -0.3065  1.4814
16820TIP3   OH271874   2.223   1.920  11.874  0.2012  0.0913  0.5182
16820TIP3    H171875   2.253   1.956  11.957  1.5220  1.5663 -0.5542
16820TIP3    H271876   2.227   1.993  11.813  0.8978 -1.3361 -1.2421
16821TIP3   OH271877   4.330   0.562  11.099  0.5188 -0.2063 -0.1262
16821TIP3    H171878   4.398   0.543  11.034  0.6113  0.0560 -0.1083
16821TIP3    H271879   4.300   0.476  11.128  2.3694 -0.3644  1.4743
16822TIP3   OH271880   1.725   1.223  12.223 -0.0960 -0.8195  0.1085
16822TIP3    H171881   1.666   1.205  12.295  1.4677 -0.5058  1.5267
16822TIP3    H271882   1.679   1.192  12.145 -2.9091  1.0958  0.8859
16823TIP3   OH271883   3.725   1.340  13.555 -0.2626  0.5633 -0.4766
16823TIP3    H171884   3.732   1.257  13.602 -0.0361  0.9360  0.1623
16823TIP3    H271885   3.687   1.317  13.470 -0.1291 -0.2005 -0.3339
16824TIP3   OH271886   4.345   4.671   5.391  0.0006 -0.3097 -0.0828
16824TIP3    H171887   4.439   4.663   5.373 -0.1521 -2.7060 -0.1180
16824TIP3    H271888   4.315   4.581   5.405 -2.4030  0.3449 -0.5468
16825TIP3   OH271889   2.842   1.316   3.311 -0.0344 -0.0722  0.2422
16825TIP3    H171890   2.827   1.303   3.217 -0.1301  2.5102 -0.1689
16825TIP3    H271891   2.897   1.242   3.336  0.6310 -0.4431 -2.0250
16826TIP3   OH271892   2.906   2.458  11.260 -0.2506 -0.0484  0.2005
16826TIP3    H171893   2.888   2.381  11.313  1.2112 -0.3766  0.2473
16826TIP3    H271894   2.920   2.424  11.172 -1.2598  0.3509 -0.1300
16827TIP3   OH271895   5.226   1.604   3.143  0.8219  0.0976 -0.3422
16827TIP3    H171896   5.159   1.629   3.079 -1.9977  0.6544  2.5367
16827TIP3    H271897   5.246   1.685   3.190 -0.5799 -0.9667  2.2809
16828TIP3   OH271898   3.664   1.936  15.094 -0.6520 -0.4069  0.0764
16828TIP3    H171899   3.677   1.955  15.001  0.6902 -0.6145  0.2001
16828TIP3    H271900   3.590   1.876  15.097 -1.3486  0.3858 -0.7734
16829TIP3   OH271901   0.383   2.467  17.191 -0.0881 -0.5533  0.5107
16829TIP3    H171902   0.393   2.414  17.270  0.6852 -0.8156  0.2499
16829TIP3    H271903   0.421   2.414  17.121 -2.5549 -1.1913 -0.4427
16830TIP3   OH271904   1.332   3.228  13.044  0.6745 -0.0685 -0.8742
16830TIP3    H171905   1.387   3.171  12.991  0.3560  0.4695 -1.7995
16830TIP3    H271906   1.270   3.170  13.087 -0.0567 -0.3636 -2.2991
16831TIP3   OH271907   6.694   4.273   3.763  0.5280 -0.1279 -0.4374
16831TIP3    H171908   6.660   4.267   3.674  0.0444 -1.6401 -0.1730
16831TIP3    H271909   6.726   4.185   3.783 -0.2652 -0.0750  1.2253
16832TIP3   OH271910   4.519   0.069   3.105  0.1219  0.1048 -0.3533
16832TIP3    H171911   4.589   0.109   3.053  0.2303  0.5406  0.1272
16832TIP3    H271912   4.553   0.068   3.194 -0.6900  0.8055 -0.0266
16833TIP3   OH271913   4.551   6.088  14.052  0.7593  0.6310  0.0005
16833TIP3    H171914   4.621   6.138  14.011 -0.3955  1.3668 -1.1575
16833TIP3    H271915   4.489   6.154  14.083  0.8952  0.0278  1.6563
16834TIP3   OH271916   0.867   4.773  13.661 -0.5598  0.0142  0.0864
16834TIP3    H171917   0.944   4.824  13.683 -0.7394  0.2188  0.2442
16834TIP3    H271918   0.842   4.731  13.743  0.4933 -1.5798 -0.3558
16835TIP3   OH271919   4.541   2.917  12.146  0.5663  0.7151  0.1352
16835TIP3    H171920   4.479   2.923  12.073  0.4017  1.8589  0.3437
16835TIP3    H271921   4.603   2.849  12.119  0.3682  0.9503 -0.9744
16836TIP3   OH271922   0.043   4.369  12.713  0.1518 -0.0946 -0.2268
16836TIP3    H171923  -0.041   4.355  12.670 -0.4199 -1.6519  1.2434
16836TIP3    H271924   0.033   4.325  12.798  2.7566 -1.1227 -0.3706
16837TIP3   OH271925   6.110   0.156  13.025 -0.0351  0.0111  0.4828
16837TIP3    H171926   6.107   0.062  13.043 -1.3117 -0.2904 -1.0344
16837TIP3    H271927   6.194   0.185  13.061  2.1909 -2.4343 -2.2271
16838TIP3   OH271928   1.976   5.677  14.791  0.3537 -0.5250 -0.3469
16838TIP3    H171929   1.892   5.723  14.787 -0.4290 -1.9209 -1.1800
16838TIP3    H271930   2.036   5.738  14.832 -0.6351  1.2051 -1.3553
16839TIP3   OH271931   1.164   4.163  15.333 -0.2505  0.0962 -0.6463
16839TIP3    H171932   1.083   4.153  15.383 -1.6521  0.7675 -2.6535
16839TIP3    H271933   1.189   4.254  15.347  0.8260 -0.3860  0.8416
16840TIP3   OH271934   4.276   2.252   1.598 -0.5367  0.3903  0.1349
16840TIP3    H171935   4.202   2.255   1.538  1.1322  1.3451 -1.9842
16840TIP3    H271936   4.330   2.328   1.575  1.9554 -1.1628  0.4150
16841TIP3   OH271937   3.044   6.563   2.830 -0.4106  0.0993  0.3607
16841TIP3    H171938   3.017   6.642   2.784 -2.2011 -0.4006  0.4817
16841TIP3    H271939   3.053   6.497   2.761  0.1676  0.1718  0.3636
16842TIP3   OH271940   6.704   4.671  16.472  0.1251  0.0594  0.2963
16842TIP3    H171941   6.647   4.731  16.424 -0.4727 -1.4075 -0.8999
16842TIP3    H271942   6.791   4.684  16.434 -0.3046 -0.9431 -1.1182
16843TIP3   OH271943   4.333   4.928  15.036 -0.4140  0.1714 -0.0506
16843TIP3    H171944   4.371   4.873  14.967 -0.4992 -0.3837  0.3423
16843TIP3    H271945   4.324   5.014  14.995 -1.7802 -0.4793 -1.2217
16844TIP3   OH271946   1.490   0.549  11.492  0.5154  0.1794  0.4105
16844TIP3    H171947   1.559   0.535  11.557  3.0583  0.4586 -2.0254
16844TIP3    H271948   1.445   0.465  11.486  1.1647 -0.2645  1.5088
16845TIP3   OH271949   5.722   5.145   5.427  0.4021  0.4569 -0.5122
16845TIP3    H171950   5.795   5.104   5.473 -0.4852  0.7334  1.2056
16845TIP3    H271951   5.730   5.114   5.337  2.1284 -0.1939 -0.1713
16846TIP3   OH271952   6.249   6.622   6.751 -0.0080 -0.3183 -0.2476
16846TIP3    H171953   6.302   6.656   6.823 -0.2728  0.5294 -0.4374
16846TIP3    H271954   6.310   6.568   6.700  0.0090 -1.4955  0.9765
16847TIP3   OH271955   4.880   2.328   2.896 -0.2144 -0.1274  0.1387
16847TIP3    H171956   4.797   2.280   2.893  0.6677 -1.8918  1.8345
16847TIP3    H271957   4.874   2.391   2.823 -1.6487 -2.4546 -1.9179
16848TIP3   OH271958   0.539   5.235   0.577 -0.8047  0.3682 -0.3529
16848TIP3    H171959   0.470   5.262   0.638 -1.1964  1.2935 -1.1859
16848TIP3    H271960   0.505   5.156   0.535  0.3574 -1.5994  2.1185
16849TIP3   OH271961   1.442   4.025   1.389  0.2847  0.0552 -0.4163
16849TIP3    H171962   1.451   3.960   1.320  0.0162  0.0646 -0.4606
16849TIP3    H271963   1.524   4.020   1.438 -0.0155 -0.8185  0.0196
16850TIP3   OH271964   5.597   5.019   3.724  0.4555  0.0468 -0.5683
16850TIP3    H171965   5.600   5.028   3.628 -0.6108 -1.2026 -0.7440
16850TIP3    H271966   5.689   5.010   3.750  0.6436 -2.2176 -1.7705
16851TIP3   OH271967   3.964   5.296   3.294 -0.0548 -0.2551  0.0643
16851TIP3    H171968   3.882   5.308   3.341 -1.3209 -0.1670 -2.0368
16851TIP3    H271969   3.938   5.274   3.205  2.1819  1.1440 -1.0388
16852TIP3   OH271970   2.317   5.353  15.948  0.0965  0.0115 -0.0057
16852TIP3    H171971   2.261   5.419  15.991 -0.4811 -0.3480 -0.1997
16852TIP3    H271972   2.274   5.337  15.864 -0.1484 -1.1030  0.3132
16853TIP3   OH271973   2.298   4.813  14.403  0.0961 -0.2651 -0.1229
16853TIP3    H171974   2.332   4.778  14.485  0.6578 -0.9038 -0.6156
16853TIP3    H271975   2.273   4.735  14.353 -0.8402  0.1429 -0.3101
16854TIP3   OH271976   5.352   6.534  17.393  0.1968 -0.0503 -0.2137
16854TIP3    H171977   5.373   6.623  17.364 -0.6225  0.0914 -0.3851
16854TIP3    H271978   5.267   6.542  17.436 -0.3457 -0.9119 -1.0862
16855TIP3   OH271979   4.615   6.082   3.297 -0.1247  0.5845  0.0052
16855TIP3    H171980   4.634   6.163   3.344 -1.4288  0.4609  0.7923
16855TIP3    H271981   4.544   6.042   3.347 -0.9765  0.0260 -1.6090
16856TIP3   OH271982   1.783   0.133   2.960 -0.3421  0.5582 -0.0877
16856TIP3    H171983   1.760   0.041   2.949  0.5631  0.2913  0.2084
16856TIP3    H271984   1.705   0.180   2.930 -0.8290 -0.2962 -0.2108
16857TIP3   OH271985   4.371   4.718  12.681 -0.0534 -0.6044  0.0249
16857TIP3    H171986   4.387   4.813  12.678  0.5163 -0.6954  0.0771
16857TIP3    H271987   4.316   4.706  12.758 -0.1941 -0.3070 -0.0240
16858TIP3   OH271988   5.103   5.062  13.679 -0.4131 -0.6916 -0.2661
16858TIP3    H171989   5.083   4.971  13.655 -0.7437 -1.2252  1.8266
16858TIP3    H271990   5.113   5.107  13.596 -3.5462 -1.9207 -1.4603
16859TIP3   OH271991   3.565   6.035  12.755  0.1446  0.1920 -0.1170
16859TIP3    H171992   3.540   6.032  12.663  0.0054 -1.3549 -0.0451
16859TIP3    H271993   3.482   6.046  12.802  0.0894 -0.2266 -0.1164
16860TIP3   OH271994   3.023   0.312  16.862  0.2517  0.1998  0.6908
16860TIP3    H171995   3.038   0.295  16.769 -1.4043 -1.4665  0.6634
16860TIP3    H271996   3.109   0.339  16.895  1.2961 -0.8721 -0.9719
16861TIP3   OH271997   2.674   0.428  10.711 -0.4640 -0.0698 -0.0443
16861TIP3    H171998   2.619   0.350  10.719 -0.2559 -0.1242  0.8687
16861TIP3    H271999   2.617   0.500  10.738 -0.7964  0.1675 -1.3089
16862TIP3   OH272000   4.541   6.113  12.719  0.0740 -0.3856 -0.5949
16862TIP3    H172001   4.620   6.154  12.754 -0.3739 -0.8984  1.1103
16862TIP3    H272002   4.531   6.032  12.769 -2.9244  0.8874  1.1726
16863TIP3   OH272003   2.332   4.996  12.566  0.1670 -0.1906 -0.4365
16863TIP3    H172004   2.405   5.041  12.525 -1.1924  1.0986 -1.5782
16863TIP3    H272005   2.368   4.958  12.646  1.5146  2.6182  0.4174
16864TIP3   OH272006   1.531   3.685   6.508 -0.5649  0.5563 -0.0116
16864TIP3    H172007   1.600   3.668   6.443 -0.7604 -0.0558 -0.0641
16864TIP3    H272008   1.484   3.602   6.515 -1.1201  0.8883  0.2365
16865TIP3   OH272009   2.473   2.092   4.469 -0.0961  0.6944  0.6856
16865TIP3    H172010   2.390   2.058   4.437 -0.5316  0.5909  1.9074
16865TIP3    H272011   2.458   2.186   4.481 -0.6316  0.3971  2.6467
16866TIP3   OH272012   4.504   3.296  17.200  0.1007  0.6146  0.0759
16866TIP3    H172013   4.541   3.212  17.227 -1.4212 -0.0720  0.1150
16866TIP3    H272014   4.417   3.275  17.166 -1.1682  2.3591  1.9614
16867TIP3   OH272015   4.603   1.870  17.092 -0.0357  0.0397 -0.3014
16867TIP3    H172016   4.609   1.921  17.173 -0.6934 -0.8831  0.3409
16867TIP3    H272017   4.549   1.795  17.115 -0.1584 -0.2795 -1.5825
16868TIP3   OH272018   3.656   3.616  12.506 -0.2749 -0.3931  1.0308
16868TIP3    H172019   3.619   3.688  12.455  2.9790  0.6820 -0.0766
16868TIP3    H272020   3.618   3.537  12.467  0.1972  0.5220 -1.5228
16869TIP3   OH272021   2.202   1.173  14.819  0.1945  0.2577  0.1041
16869TIP3    H172022   2.140   1.134  14.880  0.7007  0.0252  0.4803
16869TIP3    H272023   2.176   1.140  14.733  0.2590 -0.4463  0.3518
16870TIP3   OH272024   0.387   0.699   0.923 -0.3538  1.4280  0.0672
16870TIP3    H172025   0.380   0.607   0.896 -1.2240  1.3868  0.4205
16870TIP3    H272026   0.431   0.742   0.849  2.0500  0.3516  0.7709
16871TIP3   OH272027   4.512   2.478  13.076  0.2672 -0.8120  0.3286
16871TIP3    H172028   4.532   2.485  12.983  0.2736 -2.1477  0.2151
16871TIP3    H272029   4.485   2.567  13.101 -1.9888 -0.9081 -1.4609
16872TIP3   OH272030   4.303   5.884   5.562  0.3836  0.1014  0.0247
16872TIP3    H172031   4.374   5.824   5.582  0.8517  0.6227 -0.0565
16872TIP3    H272032   4.229   5.827   5.540  0.6259 -0.4457  0.5980
16873TIP3   OH272033   5.542   6.662   1.440 -0.1540  0.1688 -0.0753
16873TIP3    H172034   5.535   6.752   1.406 -0.3805  0.4394  0.6790
16873TIP3    H272035   5.453   6.639   1.466 -0.4064 -0.8623 -1.6767
16874TIP3   OH272036   1.868   1.433   1.956 -0.2199 -0.2050 -0.3716
16874TIP3    H172037   1.788   1.386   1.978 -0.2565  0.7765  1.8923
16874TIP3    H272038   1.936   1.365   1.952 -0.4006 -0.6510  2.0952
16875TIP3   OH272039   1.167   0.436   0.447  0.4190  0.2364  0.1620
16875TIP3    H172040   1.173   0.524   0.485 -0.1934  0.4298 -0.1860
16875TIP3    H272041   1.223   0.383   0.503  2.1004  1.1574 -0.5826
16876TIP3   OH272042   2.110   5.938  12.304  0.5302 -0.5067 -0.0060
16876TIP3    H172043   2.022   5.942  12.266  1.0889 -1.2560 -1.4368
16876TIP3    H272044   2.121   5.846  12.328  0.4493 -0.1674  1.3763
16877TIP3   OH272045   6.137   6.132   0.949 -0.1894 -0.3243 -0.6116
16877TIP3    H172046   6.167   6.211   0.992  0.4741 -2.3017  2.9296
16877TIP3    H272047   6.217   6.093   0.912  0.2217 -1.2391  1.1474
16878TIP3   OH272048   1.653   0.129   4.271  0.2025  0.2621 -0.4398
16878TIP3    H172049   1.699   0.064   4.324  1.5817  1.0670 -0.6066
16878TIP3    H272050   1.675   0.213   4.312 -2.9423  0.6156  0.8573
16879TIP3   OH272051   6.153   6.736   1.485 -0.0905 -0.3341 -0.3239
16879TIP3    H172052   6.166   6.744   1.391  0.3163 -2.5837 -0.5013
16879TIP3    H272053   6.110   6.818   1.510  0.4479  0.6157 -2.3255
16880TIP3   OH272054   5.496   3.111   1.881  0.1012  0.0101 -0.0424
16880TIP3    H172055   5.488   3.178   1.813 -0.4860  0.2309  0.2359
16880TIP3    H272056   5.405   3.085   1.898  0.1803  0.5053  1.1942
16881TIP3   OH272057   4.935   0.098  16.470 -0.4856 -0.3528  0.4705
16881TIP3    H172058   4.972   0.064  16.389  0.6573  0.0472  0.7987
16881TIP3    H272059   4.911   0.021  16.521  2.4168 -0.7731  1.3675
16882TIP3   OH272060   6.244   3.543  15.657 -0.1071 -0.6264  0.1281
16882TIP3    H172061   6.254   3.540  15.562  2.4799 -1.0608  0.3415
16882TIP3    H272062   6.282   3.461  15.688  0.9670  0.3843  1.6380
16883TIP3   OH272063   4.559   0.087   4.060 -0.7905  0.1861 -0.1786
16883TIP3    H172064   4.638   0.127   4.024 -0.2323 -0.6176  0.1249
16883TIP3    H272065   4.584  -0.004   4.078 -1.2033  0.4170  1.7700
16884TIP3   OH272066   2.034   2.229   1.685 -0.2351 -0.5072  0.5752
16884TIP3    H172067   2.069   2.190   1.605  1.5185 -1.0541  1.5524
16884TIP3    H272068   2.059   2.168   1.755 -2.1098 -0.2766  1.5227
16885TIP3   OH272069   5.074   4.627   0.173 -0.0754  0.1506  0.3571
16885TIP3    H172070   5.017   4.574   0.116  2.0852 -0.3302 -1.5000
16885TIP3    H272071   5.145   4.567   0.197  1.6673  1.7412 -0.5939
16886TIP3   OH272072   1.209   4.233   6.299 -0.6910  0.3834 -1.2616
16886TIP3    H172073   1.136   4.207   6.355 -0.9251 -0.2160 -1.8248
16886TIP3    H272074   1.243   4.313   6.339 -1.5056  0.5389 -0.8558
16887TIP3   OH272075   5.746   0.150   5.281  0.2236 -0.0943 -0.0265
16887TIP3    H172076   5.832   0.177   5.315 -0.6367  1.4513  1.0789
16887TIP3    H272077   5.711   0.230   5.241 -0.4034 -0.9062 -1.1378
16888TIP3   OH272078   1.534   4.828  15.631  0.4226  0.1373 -0.9130
16888TIP3    H172079   1.525   4.776  15.710 -1.6701  0.3427 -0.9622
16888TIP3    H272080   1.498   4.773  15.561 -0.7787  1.1521 -1.1423
16889TIP3   OH272081   3.261   4.127   1.874 -0.1949 -0.4921 -0.4483
16889TIP3    H172082   3.353   4.140   1.849  0.6441 -1.0994  2.0122
16889TIP3    H272083   3.246   4.033   1.864 -0.6689 -0.3502 -1.1401
16890TIP3   OH272084   3.446   0.671   2.575 -0.0849  0.0545 -0.0200
16890TIP3    H172085   3.407   0.586   2.556  1.7208 -1.3028  1.9928
16890TIP3    H272086   3.371   0.726   2.600 -1.1058 -1.4614  0.4091
16891TIP3   OH272087   0.404   2.082   6.746  0.0179 -0.4278  0.0473
16891TIP3    H172088   0.370   2.143   6.811  0.5527 -1.6422  1.5446
16891TIP3    H272089   0.333   2.019   6.733 -0.1245 -0.1369 -0.6560
16892TIP3   OH272090   6.016   2.891   6.635 -0.2046 -0.4266 -0.9507
16892TIP3    H172091   6.044   2.884   6.544 -0.5907 -2.5092 -0.9399
16892TIP3    H272092   5.922   2.875   6.633  0.1768 -3.3456  0.0587
16893TIP3   OH272093   3.219   2.068  15.274  0.9067 -0.0636 -0.1895
16893TIP3    H172094   3.202   1.983  15.313 -0.5007 -0.0078 -0.6022
16893TIP3    H272095   3.207   2.130  15.346 -2.4674  0.1061 -0.7408
16894TIP3   OH272096   1.829   4.294   1.344  0.3925 -0.6404 -0.0579
16894TIP3    H172097   1.751   4.291   1.399  0.1366  1.1090 -0.2527
16894TIP3    H272098   1.870   4.209   1.355 -0.6005 -0.9645  1.4328
16895TIP3   OH272099   4.073   6.138  14.076  0.0223  0.1511 -0.0340
16895TIP3    H172100   3.994   6.085  14.067  0.6571 -0.4440 -3.3224
16895TIP3    H272101   4.046   6.226  14.049  0.2158  0.2039 -0.0585
16896TIP3   OH272102   6.491   4.705  14.891 -0.0911 -0.1126 -0.1674
16896TIP3    H172103   6.502   4.618  14.852  0.9598  0.0160 -0.1859
16896TIP3    H272104   6.578   4.744  14.887 -0.7466  1.3410 -1.0892
16897TIP3   OH272105   2.705   4.609  15.150 -0.0409 -0.2424 -0.3102
16897TIP3    H172106   2.780   4.552  15.166 -0.8989 -1.0510  0.9948
16897TIP3    H272107   2.630   4.550  15.142 -0.8614  0.6450  0.4865
16898TIP3   OH272108   0.098   3.333  15.086  0.0878 -0.2633 -0.1994
16898TIP3    H172109   0.031   3.381  15.040 -0.1217  0.2251  0.5932
16898TIP3    H272110   0.077   3.344  15.179  0.9738 -0.5072  0.0501
16899TIP3   OH272111   6.129   5.861   1.753  0.2062 -0.3870 -0.1412
16899TIP3    H172112   6.107   5.881   1.662  2.0335  0.4925 -0.4360
16899TIP3    H272113   6.061   5.903   1.805 -1.2657 -1.5017 -1.0842
16900TIP3   OH272114   3.699   5.758   2.518  0.1875 -0.6617 -0.4166
16900TIP3    H172115   3.722   5.849   2.536  0.3273 -0.5197 -1.2641
16900TIP3    H272116   3.767   5.728   2.457  0.9818 -1.7786  0.9615
16901TIP3   OH272117   4.570   1.883   2.093  0.2374  0.2117 -0.2381
16901TIP3    H172118   4.596   1.853   2.006 -0.8708 -1.2979 -0.1060
16901TIP3    H272119   4.639   1.943   2.120  1.1429 -0.1090 -1.7201
16902TIP3   OH272120   0.356   3.389   3.208 -0.4198 -0.4143  0.4051
16902TIP3    H172121   0.273   3.342   3.197 -1.1958 -0.1029  3.7974
16902TIP3    H272122   0.338   3.453   3.276  2.1991  0.8931 -0.0117
16903TIP3   OH272123   4.969   1.305  11.977 -0.1488  0.5532  0.6575
16903TIP3    H172124   4.892   1.249  11.982  0.4603 -0.2141  2.0343
16903TIP3    H272125   4.949   1.378  12.035 -0.7051  1.4984 -0.6835
16904TIP3   OH272126   5.104   5.590   1.138  0.0423  0.3436 -0.2738
16904TIP3    H172127   5.142   5.587   1.226  1.0346  1.7490 -0.6146
16904TIP3    H272128   5.062   5.676   1.133 -1.4687 -0.3763 -0.6304
16905TIP3   OH272129   0.205   1.701  14.248  0.6343 -0.4568 -0.6216
16905TIP3    H172130   0.118   1.713  14.286 -0.0103  0.3222 -2.2202
16905TIP3    H272131   0.242   1.626  14.295 -1.5135 -1.8140 -0.9328
16906TIP3   OH272132   3.570   1.554   2.082 -0.0620 -0.7519 -0.0112
16906TIP3    H172133   3.501   1.492   2.104 -0.9346 -0.2850 -1.2787
16906TIP3    H272134   3.652   1.506   2.096 -0.5482 -0.9538  2.6175
16907TIP3   OH272135   0.270   2.122  11.297 -0.1519 -0.6233  0.0160
16907TIP3    H172136   0.280   2.151  11.207  0.6641 -1.3236 -0.1300
16907TIP3    H272137   0.323   2.043  11.303  1.4663  0.4942  1.6324
16908TIP3   OH272138   2.230   6.392  16.362  0.3317 -0.0601 -0.5085
16908TIP3    H172139   2.296   6.460  16.360 -0.0681  0.3119 -1.5903
16908TIP3    H272140   2.275   6.313  16.333  0.1511  0.3435 -1.9397
16909TIP3   OH272141   3.959   0.087  11.266  0.1794 -0.1091 -0.8278
16909TIP3    H172142   3.895   0.106  11.335  0.2899  1.8314 -1.2082
16909TIP3    H272143   3.953   0.162  11.207  1.0060 -1.1241 -2.2463
16910TIP3   OH272144   2.639   1.670  14.476  0.6491 -0.8064 -0.5142
16910TIP3    H172145   2.711   1.655  14.414  0.2811  0.0561 -1.1806
16910TIP3    H272146   2.659   1.614  14.551  1.9793 -0.6405 -0.7178
16911TIP3   OH272147   3.406   6.215   0.461  0.2924  0.1580 -0.3082
16911TIP3    H172148   3.460   6.282   0.504  0.6316  0.9985 -1.9380
16911TIP3    H272149   3.451   6.133   0.480 -0.6092  0.2024  2.4850
16912TIP3   OH272150   5.740   1.714  16.926 -0.1259  0.5695 -0.3198
16912TIP3    H172151   5.769   1.723  17.017  0.5142  0.5758 -0.5235
16912TIP3    H272152   5.733   1.804  16.894  2.2545  0.5469 -1.0804
16913TIP3   OH272153   6.220   0.916   3.168  0.6894  0.4367 -0.3498
16913TIP3    H172154   6.127   0.938   3.174  1.1319  2.6305 -0.5787
16913TIP3    H272155   6.222   0.824   3.141 -1.3874 -0.0157  0.8406
16914TIP3   OH272156   6.022   3.314  13.011 -0.8036 -0.2030  0.0018
16914TIP3    H172157   6.112   3.323  12.982 -1.5503 -0.8295 -2.8552
16914TIP3    H272158   6.007   3.389  13.069  1.6938 -0.4854  1.1008
16915TIP3   OH272159   3.749   1.172   6.048 -0.0222 -0.0227  0.0849
16915TIP3    H172160   3.665   1.205   6.017 -0.2903 -0.2543  0.5443
16915TIP3    H272161   3.790   1.246   6.092 -0.4817 -0.1990  0.8345
16916TIP3   OH272162   4.609   2.058  14.397 -0.4432  0.2958 -0.1107
16916TIP3    H172163   4.653   1.991  14.448 -0.4219 -0.3331 -0.9245
16916TIP3    H272164   4.523   2.020  14.377 -0.4371  0.5045 -0.5604
16917TIP3   OH272165   3.076   5.695  13.631  0.6212  1.3219 -0.1837
16917TIP3    H172166   3.005   5.713  13.571 -0.2676 -2.3364 -0.4637
16917TIP3    H272167   3.119   5.617  13.595  1.6412  0.4948  2.5587
16918TIP3   OH272168   2.979   5.328   0.888 -0.1941  0.3333 -0.2614
16918TIP3    H172169   3.042   5.334   0.961 -1.3645 -2.1509  1.0574
16918TIP3    H272170   2.937   5.414   0.886  0.6665  0.8308  1.2704
16919TIP3   OH272171   4.258   5.582   6.617  0.2605 -0.3800 -0.4600
16919TIP3    H172172   4.272   5.675   6.596  0.8416  0.0419  1.5541
16919TIP3    H272173   4.164   5.574   6.628  0.1758 -0.0954 -0.9490
16920TIP3   OH272174   6.310   6.082  12.077 -0.2393 -0.4222  0.0163
16920TIP3    H172175   6.223   6.064  12.041 -1.3182  0.7763  1.9099
16920TIP3    H272176   6.353   5.996  12.077 -0.8922 -0.8262 -2.1295
16921TIP3   OH272177   0.415   1.572   3.098 -0.5628  0.1011  0.6899
16921TIP3    H172178   0.337   1.562   3.043  0.8481 -1.1949 -1.2121
16921TIP3    H272179   0.431   1.484   3.134  1.3042 -0.2812 -0.8934
16922TIP3   OH272180   1.320   6.531   0.475  0.1030  0.8095 -0.4648
16922TIP3    H172181   1.255   6.481   0.425  1.2822 -0.9834 -0.3120
16922TIP3    H272182   1.399   6.528   0.421  1.1696 -0.4851  1.0676
16923TIP3   OH272183   1.629   4.907   0.964  0.2010 -0.6911  0.0783
16923TIP3    H172184   1.688   4.910   0.888  1.0764  0.5182  0.7730
16923TIP3    H272185   1.555   4.961   0.939  1.1588  0.9093  0.5917
16924TIP3   OH272186   1.425   0.672  14.801 -0.4167  0.2817 -0.0885
16924TIP3    H172187   1.380   0.689  14.719  1.1831  0.9901 -0.8639
16924TIP3    H272188   1.484   0.599  14.782 -0.6290 -0.1099  0.6839
16925TIP3   OH272189   4.381   3.781  17.179  0.0153 -0.4528  0.1433
16925TIP3    H172190   4.446   3.830  17.230  1.1546 -0.3857 -1.3179
16925TIP3    H272191   4.334   3.848  17.130  1.3469 -0.7146 -1.5987
16926TIP3   OH272192   3.271   0.462  16.972  0.2394  0.0094  0.4483
16926TIP3    H172193   3.277   0.535  17.034  1.0626  0.6175 -0.3147
16926TIP3    H272194   3.316   0.494  16.894  0.7881 -1.3928  0.1633
16927TIP3   OH272195   1.351   0.795  11.573  0.4829 -0.0452  0.4549
16927TIP3    H172196   1.389   0.732  11.511  0.0025  0.7085 -0.6497
16927TIP3    H272197   1.402   0.875  11.558 -0.4212  0.4874  0.1693
16928TIP3   OH272198   3.786   2.751   0.086 -0.2648 -0.0180 -0.5945
16928TIP3    H172199   3.694   2.776   0.085  0.0323  1.1109 -1.2503
16928TIP3    H272200   3.812   2.749  -0.007  0.1838 -1.0608 -0.4608
16929TIP3   OH272201   1.183   0.570   1.130 -0.1436 -0.1797 -0.1238
16929TIP3    H172202   1.200   0.664   1.134  1.7723 -0.4288 -1.2684
16929TIP3    H272203   1.249   0.531   1.188  1.1319 -0.9667 -2.0073
16930TIP3   OH272204   3.565   0.709  11.516  0.2487  0.0977  0.1341
16930TIP3    H172205   3.542   0.638  11.576 -1.7542  0.6836  0.1450
16930TIP3    H272206   3.494   0.772  11.527 -0.4508  0.0406 -3.1512
16931TIP3   OH272207   6.474   2.009   4.108  0.2139 -0.2276 -0.4206
16931TIP3    H172208   6.514   1.944   4.051  0.4737 -0.6399  0.2226
16931TIP3    H272209   6.422   1.958   4.170  2.1243 -0.0087  1.4498
16932TIP3   OH272210   4.210   5.449   5.253 -0.2768  0.2219 -0.1440
16932TIP3    H172211   4.249   5.371   5.214 -0.5050 -0.5063  1.0561
16932TIP3    H272212   4.129   5.418   5.293 -0.4901  1.1177  0.1408
16933TIP3   OH272213   3.890   1.995   1.803 -0.7044  0.2648  0.0837
16933TIP3    H172214   3.846   1.957   1.879 -0.6037  1.5796  0.8433
16933TIP3    H272215   3.980   1.963   1.810 -0.9808 -0.5967 -0.1836
16934TIP3   OH272216   2.980   3.726   1.215  0.1801  0.9069  0.2127
16934TIP3    H172217   2.991   3.675   1.135 -1.6197  0.7708  0.0133
16934TIP3    H272218   2.972   3.661   1.284  0.6057  0.9993  0.3525
16935TIP3   OH272219   3.557   5.191   0.089 -0.4069  0.1773  0.3629
16935TIP3    H172220   3.522   5.259   0.145 -0.7400 -0.2067  0.6258
16935TIP3    H272221   3.515   5.110   0.119 -1.9686  0.1777 -1.5352
16936TIP3   OH272222   5.744   6.072   0.006 -0.0391  0.0076 -0.5068
16936TIP3    H172223   5.720   6.049  -0.084 -0.6047  0.0390 -0.3703
16936TIP3    H272224   5.689   6.015   0.060  0.7782 -0.4879 -0.1766
16937TIP3   OH272225   4.842   3.848   0.718  0.1417 -0.0086 -0.0356
16937TIP3    H172226   4.766   3.840   0.660 -1.0078  0.6590  1.3124
16937TIP3    H272227   4.882   3.761   0.716 -0.1741 -0.1532 -1.3958
16938TIP3   OH272228   6.415   3.130  16.635  0.0745 -0.1942 -0.1841
16938TIP3    H172229   6.452   3.050  16.672 -0.2570 -0.1591  0.2361
16938TIP3    H272230   6.490   3.177  16.599  0.3230 -0.5167 -0.0877
16939TIP3   OH272231   1.143   2.637   6.009  0.2287 -0.7728  0.4362
16939TIP3    H172232   1.215   2.602   6.061  1.1449  0.4732  0.0466
16939TIP3    H272233   1.180   2.713   5.964 -0.2126 -2.3870 -2.9145
16940TIP3   OH272234   4.638   4.628  16.054 -0.0981  0.1023 -0.1380
16940TIP3    H172235   4.559   4.682  16.052 -1.2010 -1.4997 -1.5124
16940TIP3    H272236   4.691   4.661  15.982  0.0249  0.4816  0.1220
16941TIP3   OH272237   6.605   2.070   0.832  0.0977 -0.0380  0.0151
16941TIP3    H172238   6.620   2.005   0.901  1.4683  2.6958  2.4695
16941TIP3    H272239   6.684   2.067   0.779  0.9662  0.8155  1.2151
16942TIP3   OH272240   2.478   6.412   2.101 -0.2380  0.3072 -0.7246
16942TIP3    H172241   2.496   6.503   2.077  1.5998 -0.0862 -0.9133
16942TIP3    H272242   2.448   6.372   2.019 -0.6233  0.6232 -0.7444
16943TIP3   OH272243   5.974   0.186   4.573 -0.1693  0.4332  0.3982
16943TIP3    H172244   6.003   0.277   4.570  0.3564  0.2641  0.2370
16943TIP3    H272245   5.898   0.183   4.514 -0.0187  0.7104  0.1895
16944TIP3   OH272246   0.165   4.920   5.852 -0.1333  0.0380  0.5160
16944TIP3    H172247   0.073   4.919   5.875 -0.5354  1.5280 -0.8626
16944TIP3    H272248   0.211   4.936   5.935 -1.1549  0.1088  1.0740
16945TIP3   OH272249   3.077   3.683  13.779  0.6225  0.9822 -0.2322
16945TIP3    H172250   3.023   3.622  13.829  0.1997 -0.1283 -1.9577
16945TIP3    H272251   3.072   3.766  13.828  0.4530 -0.0921  1.6501
16946TIP3   OH272252   5.276   3.538  16.114 -0.7791  0.3194 -0.4037
16946TIP3    H172253   5.261   3.470  16.048  0.0375 -1.2545  0.9535
16946TIP3    H272254   5.208   3.522  16.180  1.4676 -1.5116  1.6433
16947TIP3   OH272255   4.411   0.297  15.296  0.1742  0.3178  0.0822
16947TIP3    H172256   4.367   0.212  15.296  1.3870 -0.3584 -1.0200
16947TIP3    H272257   4.460   0.298  15.213 -0.0732  2.2335 -0.0699
16948TIP3   OH272258   4.282   2.579  14.454  0.5851 -0.1594  0.3298
16948TIP3    H172259   4.317   2.637  14.521  0.4853  0.8328 -0.4612
16948TIP3    H272260   4.357   2.559  14.398  1.1916 -2.7404  1.9078
16949TIP3   OH272261   6.221   2.117  16.625 -0.3443 -0.1550 -0.2066
16949TIP3    H172262   6.169   2.187  16.586  1.3587  0.5119 -1.4067
16949TIP3    H272263   6.221   2.135  16.719 -2.3364 -0.2596 -0.1642
16950TIP3   OH272264   4.700   6.579   5.662  0.1646  0.1566  0.0539
16950TIP3    H172265   4.696   6.602   5.755 -1.8981 -1.7162  0.4904
16950TIP3    H272266   4.629   6.629   5.622  0.0551 -0.2325 -0.2369
16951TIP3   OH272267   0.463   6.271  15.319  0.4040  0.2813  0.4219
16951TIP3    H172268   0.406   6.204  15.282  0.4154  0.4553  0.0863
16951TIP3    H272269   0.552   6.243  15.295  0.4891 -0.1312  1.1699
16952TIP3   OH272270   4.949   3.196   2.589  0.1545  0.0643  0.4218
16952TIP3    H172271   4.995   3.259   2.534  1.3995 -1.4673 -0.3855
16952TIP3    H272272   4.996   3.200   2.673 -0.5843  1.0965  0.7987
16953TIP3   OH272273   0.898   0.670  15.932 -0.3778  0.1209 -0.5844
16953TIP3    H172274   0.948   0.588  15.927 -0.2493 -0.2374  3.1951
16953TIP3    H272275   0.958   0.737  15.900  1.0317 -0.8280 -0.0203
16954TIP3   OH272276   0.371   6.535   0.124  0.8359 -0.0111 -0.4012
16954TIP3    H172277   0.318   6.457   0.109 -1.1462  1.2509 -0.4484
16954TIP3    H272278   0.404   6.525   0.213  0.5093 -0.8488 -0.3687
16955TIP3   OH272279   4.786   4.361   1.662  0.5304 -0.8820 -0.0035
16955TIP3    H172280   4.855   4.362   1.595  0.3116  0.8939 -0.2651
16955TIP3    H272281   4.831   4.336   1.742  2.1946  2.8492  0.4289
16956TIP3   OH272282   1.966   3.383   1.220  0.0972  0.1652 -0.6619
16956TIP3    H172283   1.884   3.431   1.230 -0.4503 -0.7558 -0.6362
16956TIP3    H272284   1.977   3.336   1.303 -1.0985 -2.3469 -1.8150
16957TIP3   OH272285   5.882   0.888  13.571 -0.7152 -0.1940  0.5248
16957TIP3    H172286   5.951   0.822  13.565 -0.0818  0.5033 -0.0594
16957TIP3    H272287   5.929   0.970  13.588 -1.3921  0.2968  0.0796
16958TIP3   OH272288   1.137   2.807   0.567 -0.5098 -0.3179  0.1929
16958TIP3    H172289   1.120   2.715   0.586 -0.5092 -0.4336 -0.3752
16958TIP3    H272290   1.223   2.824   0.606 -0.8616 -0.3419  1.0023
16959TIP3   OH272291   1.463   5.262  15.429  0.0045  0.0217  0.1074
16959TIP3    H172292   1.544   5.312  15.416 -0.4005  0.4844 -0.7492
16959TIP3    H272293   1.393   5.327  15.425 -0.3583 -0.1370  2.4385
16960TIP3   OH272294   0.997   0.535   3.727  0.1184 -0.1808  0.5256
16960TIP3    H172295   0.999   0.513   3.820  3.2677  0.5741  0.7651
16960TIP3    H272296   0.953   0.620   3.723  0.4086  0.0206  1.4089
16961TIP3   OH272297   5.356   6.449  14.358  0.3343 -0.5778 -0.1460
16961TIP3    H172298   5.434   6.502  14.339  0.5849 -1.1121 -0.6680
16961TIP3    H272299   5.315   6.437  14.272 -0.7466  0.3234  0.2279
16962TIP3   OH272300   6.636   1.417   1.065  0.4347  0.9674  0.0454
16962TIP3    H172301   6.696   1.411   0.990  1.3035  0.5871  0.7613
16962TIP3    H272302   6.603   1.328   1.076  2.8164  0.2587  2.1206
16963TIP3   OH272303   2.260   0.038   2.928  0.3247  0.0011  0.0424
16963TIP3    H172304   2.220  -0.038   2.971  0.2310 -0.2955 -0.5541
16963TIP3    H272305   2.198   0.063   2.860  0.1688  0.8737  0.4898
16964TIP3   OH272306   0.098   5.193  13.900 -0.5464 -0.3970 -0.3972
16964TIP3    H172307   0.069   5.102  13.889  3.2471 -2.0150  1.2697
16964TIP3    H272308   0.177   5.200  13.846 -0.9331  2.1023 -0.7738
16965TIP3   OH272309   6.373   1.857  10.566  0.5347  0.6501  0.1040
16965TIP3    H172310   6.312   1.786  10.583 -0.1413  0.7128 -1.7531
16965TIP3    H272311   6.322   1.937  10.582  1.2411  0.7745  2.0208
16966TIP3   OH272312   3.226   0.928   2.406 -0.1307  0.2720 -0.2638
16966TIP3    H172313   3.156   0.947   2.345 -1.4412 -0.4537  0.9403
16966TIP3    H272314   3.244   0.834   2.393 -0.1874  0.1915  0.2170
16967TIP3   OH272315   5.068   0.670  15.245  0.3741  0.7665 -0.0204
16967TIP3    H172316   4.978   0.700  15.235 -0.0793 -0.7619 -1.0270
16967TIP3    H272317   5.096   0.649  15.156  1.4710  0.5438  0.3607
16968TIP3   OH272318   4.415   2.487  11.397  0.1904  0.5861  0.6833
16968TIP3    H172319   4.400   2.581  11.404 -1.0986  0.5399 -0.8290
16968TIP3    H272320   4.348   2.448  11.452 -0.8419  0.5288 -0.5751
16969TIP3   OH272321   1.775   2.382   4.827 -0.1620  0.3361  0.1715
16969TIP3    H172322   1.752   2.425   4.745 -1.4578  0.5152  0.6158
16969TIP3    H272323   1.691   2.355   4.864  0.4961 -0.9057  0.8115
16970TIP3   OH272324   4.234   2.152   0.987 -0.0296  0.2981 -0.2759
16970TIP3    H172325   4.325   2.181   0.976  0.2597 -0.0289  0.9917
16970TIP3    H272326   4.232   2.065   0.947  0.0268  0.5887 -0.9247
16971TIP3   OH272327   1.986   6.054  11.684  0.7014  0.4177 -0.1745
16971TIP3    H172328   2.028   6.100  11.756 -1.0760  0.1805  1.0666
16971TIP3    H272329   1.892   6.060  11.702  0.3141 -2.4956 -0.6558
16972TIP3   OH272330   2.865   5.019   5.490 -0.1079 -0.1396  0.5848
16972TIP3    H172331   2.841   4.942   5.542 -0.4524 -1.6625 -1.6836
16972TIP3    H272332   2.930   4.987   5.428 -1.1386  1.0829 -1.2113
16973TIP3   OH272333   3.104   5.085  11.512 -0.0521  0.3286 -0.0637
16973TIP3    H172334   3.111   5.166  11.563  0.9440  0.2897 -0.1251
16973TIP3    H272335   3.071   5.113  11.427 -0.1317  0.6112  0.0595
16974TIP3   OH272336   3.260   4.024   6.848 -0.1614  0.0638 -0.0085
16974TIP3    H172337   3.349   4.058   6.859 -0.1253  0.0757 -0.3175
16974TIP3    H272338   3.211   4.059   6.923 -0.0021  0.3860 -0.0516
16975TIP3   OH272339   2.550   2.222  11.801 -0.4830 -0.6659 -0.1016
16975TIP3    H172340   2.644   2.216  11.815 -0.5149  0.9961  1.1665
16975TIP3    H272341   2.518   2.133  11.812  0.7061 -0.9247  1.5669
16976TIP3   OH272342   1.366   1.220  11.894 -0.1306 -0.4293  0.5372
16976TIP3    H172343   1.359   1.151  11.828 -0.9364 -0.1549  0.3198
16976TIP3    H272344   1.429   1.282  11.858 -1.0582  0.0531 -0.2954
16977TIP3   OH272345   4.263   1.403   6.013 -0.0622 -0.8245 -0.0432
16977TIP3    H172346   4.197   1.407   5.944 -1.6798  1.5955  1.4559
16977TIP3    H272347   4.311   1.485   6.005  2.5978 -2.3464 -0.8216
16978TIP3   OH272348   6.311   2.356   5.421  0.1800  0.4034 -0.4360
16978TIP3    H172349   6.371   2.374   5.493 -0.7715  1.5050  0.1136
16978TIP3    H272350   6.364   2.310   5.356  1.8167  1.9901 -0.2904
16979TIP3   OH272351   4.458   5.835   2.207 -0.1939  0.4220 -0.1265
16979TIP3    H172352   4.498   5.752   2.182 -0.6303 -0.0749  0.7891
16979TIP3    H272353   4.515   5.869   2.276  0.0915  0.9920 -0.6312
16980TIP3   OH272354   5.294   0.497  11.877  0.0838  0.9489  0.4256
16980TIP3    H172355   5.318   0.436  11.807 -1.7907 -0.8745  1.2605
16980TIP3    H272356   5.199   0.507  11.869  0.2727  3.4942  0.5963
16981TIP3   OH272357   1.225   1.360  14.708  0.6429  0.5275  0.1835
16981TIP3    H172358   1.308   1.327  14.676 -0.7218 -1.1930 -1.8348
16981TIP3    H272359   1.248   1.415  14.783  3.5315 -0.0677 -0.1700
16982TIP3   OH272360   2.404   2.881  12.291  0.5986 -0.7335  0.2243
16982TIP3    H172361   2.371   2.793  12.311 -1.9103  0.4274  1.6504
16982TIP3    H272362   2.388   2.931  12.371  0.2274  1.5066 -1.1725
16983TIP3   OH272363   3.952   4.342  10.918 -0.6777  0.2212 -0.4490
16983TIP3    H172364   3.899   4.285  10.862 -0.6447 -0.1032 -0.1567
16983TIP3    H272365   3.999   4.281  10.975 -0.1187  0.5117 -0.5957
16984TIP3   OH272366   4.646   0.253   2.940 -0.0458  0.2890 -0.5589
16984TIP3    H172367   4.734   0.287   2.928 -0.2881  0.7885 -0.9156
16984TIP3    H272368   4.592   0.330   2.958 -0.3439 -0.0509  0.0453
16985TIP3   OH272369   5.301   5.279  11.123 -0.1922  0.1374 -0.6119
16985TIP3    H172370   5.289   5.364  11.080  0.2713 -0.0406 -1.0889
16985TIP3    H272371   5.217   5.235  11.113 -0.3518  0.4299 -0.5889
16986TIP3   OH272372   5.343   0.219   4.639  0.1350  0.1020 -0.2540
16986TIP3    H172373   5.295   0.274   4.577 -2.3785 -1.6549 -0.0640
16986TIP3    H272374   5.386   0.153   4.584  0.4371  0.3457 -0.3074
16987TIP3   OH272375   2.770   3.374   3.641  0.2651  0.4882 -0.5263
16987TIP3    H172376   2.787   3.347   3.550  0.8062  1.3192 -0.6839
16987TIP3    H272377   2.681   3.343   3.659 -0.4418  1.6116 -1.8588
16988TIP3   OH272378   4.785   1.616   3.292  0.1232  0.3373 -0.2205
16988TIP3    H172379   4.827   1.550   3.348  0.5370 -0.0490 -0.9713
16988TIP3    H272380   4.704   1.574   3.262 -0.1522  0.5846  0.1699
16989TIP3   OH272381   3.274   1.792  14.896  0.1116 -0.5140 -0.1234
16989TIP3    H172382   3.340   1.736  14.856 -1.0423 -2.0783  0.0736
16989TIP3    H272383   3.204   1.796  14.831 -0.7032 -1.0326  0.7016
16990TIP3   OH272384   5.056   3.082  14.610 -0.4605 -0.5071 -0.0323
16990TIP3    H172385   5.151   3.069  14.609 -0.2292  0.6464 -2.7266
16990TIP3    H272386   5.039   3.128  14.692  1.6996  1.3504 -0.5133
16991TIP3   OH272387   5.315   3.293   4.537  0.8779  0.1256  0.1182
16991TIP3    H172388   5.290   3.385   4.524 -2.5357 -0.6787  0.1398
16991TIP3    H272389   5.360   3.292   4.622  1.2682  1.8179 -0.0417
16992TIP3   OH272390   2.911   5.886  12.317  0.2388  0.4878 -0.2574
16992TIP3    H172391   2.964   5.933  12.252  2.0078 -1.7393 -0.5408
16992TIP3    H272392   2.971   5.867  12.388 -0.5399 -0.9067  0.0641
16993TIP3   OH272393   3.702   5.288   5.571  0.3747  0.2712  0.2073
16993TIP3    H172394   3.684   5.357   5.635 -0.0642  0.2825  0.0775
16993TIP3    H272395   3.685   5.329   5.486 -0.1217 -0.0605  0.1401
16994TIP3   OH272396   0.585   5.000   3.726  0.0249 -0.1299 -0.3045
16994TIP3    H172397   0.561   4.913   3.696 -0.4093 -0.3931  0.7363
16994TIP3    H272398   0.678   4.994   3.747  0.0227 -0.3170 -0.3533
16995TIP3   OH272399   6.246   2.572   4.514 -0.2448 -0.3532 -0.3249
16995TIP3    H172400   6.151   2.557   4.507 -0.2460 -0.3437 -0.3276
16995TIP3    H272401   6.269   2.614   4.430 -0.4605  0.8299  0.1865
16996TIP3   OH272402   0.584   1.362   1.605  0.2633  0.2221  0.3702
16996TIP3    H172403   0.636   1.385   1.528  0.0699 -0.0190  0.1653
16996TIP3    H272404   0.585   1.266   1.606  1.0371  0.2251  1.1999
16997TIP3   OH272405   2.839   0.663   5.669  0.1799 -0.1368  0.2965
16997TIP3    H172406   2.818   0.732   5.605 -0.0168 -1.0217 -0.6170
16997TIP3    H272407   2.768   0.666   5.732 -1.1189 -1.0676 -1.0633
16998TIP3   OH272408   4.101   4.644   1.733  0.1145  0.2703 -0.1044
16998TIP3    H172409   4.098   4.658   1.828 -2.7558  0.4732 -0.1322
16998TIP3    H272410   4.075   4.553   1.722  0.0658  0.3532 -0.7070
16999TIP3   OH272411   5.119   2.795  14.896 -0.8380  0.3071 -0.3497
16999TIP3    H172412   5.191   2.746  14.856 -0.7599  0.2926 -0.1910
16999TIP3    H272413   5.041   2.766  14.849 -0.6765  0.7184 -0.8941
17000TIP3   OH272414   2.196   1.204  13.931 -0.4821 -0.7512  0.0683
17000TIP3    H172415   2.107   1.234  13.914 -0.7875 -0.2215  2.3087
17000TIP3    H272416   2.209   1.131  13.870 -2.4231 -0.8129 -0.3221
17001TIP3   OH272417   5.935   3.049   6.225  0.2498 -0.7624  0.6906
17001TIP3    H172418   5.904   2.985   6.161 -0.2279 -0.1176  0.2625
17001TIP3    H272419   5.870   3.046   6.296 -1.2310  1.0444 -0.4968
17002TIP3   OH272420   1.117   1.112  16.290 -0.2795  0.3330  0.5187
17002TIP3    H172421   1.095   1.064  16.370 -0.5651  0.6445  0.6296
17002TIP3    H272422   1.146   1.044  16.228 -1.2504 -0.0559  0.4775
17003TIP3   OH272423   1.926   3.379  15.282 -0.0710  0.7082  0.6772
17003TIP3    H172424   1.983   3.304  15.296 -1.4078 -0.5193 -0.2135
17003TIP3    H272425   1.932   3.397  15.188 -0.3737  1.2144  0.7494
17004TIP3   OH272426   5.268   3.889  10.998 -0.1932  0.4481  0.3142
17004TIP3    H172427   5.320   3.824  10.950  3.0272  0.8583  2.9296
17004TIP3    H272428   5.205   3.837  11.048  0.5062 -0.4519  0.2926
17005TIP3   OH272429   0.221   3.614   3.804 -0.7873  0.3702 -0.2281
17005TIP3    H172430   0.139   3.646   3.767 -0.4948  0.3719 -0.9022
17005TIP3    H272431   0.230   3.526   3.769 -0.2237  0.5797 -0.6336
17006TIP3   OH272432   0.918   4.130   4.418  0.5734  0.8511 -0.4990
17006TIP3    H172433   0.948   4.136   4.327 -2.4607 -0.3479 -1.7085
17006TIP3    H272434   0.953   4.047   4.450  0.7487  0.7590 -0.9231
17007TIP3   OH272435   3.853   0.765  13.564 -0.4696 -0.5485  0.4087
17007TIP3    H172436   3.874   0.710  13.488 -1.4826 -1.0154  0.4435
17007TIP3    H272437   3.927   0.754  13.623  1.0540  0.9718 -1.1042
17008TIP3   OH272438   3.415   1.706  13.039 -0.3837  0.3410  0.6332
17008TIP3    H172439   3.469   1.758  12.980 -2.8575  2.4102  0.0114
17008TIP3    H272440   3.381   1.770  13.102 -1.4094 -1.0178  1.5095
17009TIP3   OH272441   5.027   2.263   2.660 -0.5835  0.1531  0.7627
17009TIP3    H172442   4.942   2.243   2.621 -0.9950  3.0978 -0.0804
17009TIP3    H272443   5.014   2.347   2.705  1.7521  0.4512  1.0236
17010TIP3   OH272444   2.037   2.408  13.922 -0.1460  0.2314 -0.6829
17010TIP3    H172445   1.999   2.386  13.837 -0.6906 -0.4785 -0.2718
17010TIP3    H272446   2.031   2.327  13.972  2.8338 -0.2191 -0.8883
17011TIP3   OH272447   1.321   0.737   0.912 -0.2890  0.3105  0.5677
17011TIP3    H172448   1.245   0.770   0.865  0.9099  2.2110 -0.1405
17011TIP3    H272449   1.328   0.793   0.990 -0.3225 -0.6642  1.2986
17012TIP3   OH272450   2.495   1.981   1.625 -0.4316  0.0619 -0.2967
17012TIP3    H172451   2.567   1.977   1.688  0.2826 -0.8336 -1.1352
17012TIP3    H272452   2.537   2.000   1.541 -0.8712 -2.3586 -1.1696
17013TIP3   OH272453   0.691   2.995   1.277  0.2081 -0.0517 -0.0027
17013TIP3    H172454   0.786   2.985   1.278  0.1691 -0.4797  1.7508
17013TIP3    H272455   0.675   3.086   1.300  0.1977  0.3081 -1.3611
17014TIP3   OH272456   3.392   3.472  11.534  0.2783 -0.0211 -0.2497
17014TIP3    H172457   3.364   3.383  11.515  0.2525 -0.1948  0.5716
17014TIP3    H272458   3.311   3.522  11.539  0.3514  0.3061 -1.9024
17015TIP3   OH272459   6.487   3.041  12.971 -0.3393 -0.5314  0.0849
17015TIP3    H172460   6.528   2.980  12.910  0.3071 -0.4286  0.3999
17015TIP3    H272461   6.547   3.043  13.046  0.8304  2.1623 -0.8273
17016TIP3   OH272462   1.019   2.337   4.857  0.3070 -0.4621 -0.3178
17016TIP3    H172463   1.099   2.313   4.903  0.4899  1.0985  0.2676
17016TIP3    H272464   0.980   2.254   4.829  1.1682 -1.3491  1.0183
17017TIP3   OH272465   6.691   6.305  16.616 -0.1909  0.1273 -0.1489
17017TIP3    H172466   6.608   6.337  16.580  0.0369 -0.3723 -1.1673
17017TIP3    H272467   6.702   6.353  16.698 -0.8310  1.1868 -0.6611
17018TIP3   OH272468   2.552   0.555   1.822  0.3707  0.0741  0.7945
17018TIP3    H172469   2.495   0.632   1.832 -1.4983 -1.2179  0.7688
17018TIP3    H272470   2.560   0.544   1.727 -2.5797 -1.8477  0.6123
17019TIP3   OH272471   0.561   5.820  14.407 -0.1995 -0.0133  0.0505
17019TIP3    H172472   0.636   5.773  14.371 -1.0445 -0.3959 -1.3147
17019TIP3    H272473   0.542   5.887  14.341 -0.7447  0.4049  0.6234
17020TIP3   OH272474   0.627   1.282  15.539 -0.0328 -0.0004  0.1448
17020TIP3    H172475   0.632   1.373  15.568 -1.8573  0.5135 -0.9528
17020TIP3    H272476   0.561   1.243  15.596  1.6509 -1.0178  1.4449
17021TIP3   OH272477   2.441   4.239  17.228  0.1610  0.4268 -0.0867
17021TIP3    H172478   2.371   4.304  17.229  0.5087  0.8722 -1.6269
17021TIP3    H272479   2.397   4.157  17.204  0.0966  0.6379 -0.7182
17022TIP3   OH272480   0.855   0.507   1.530 -0.1985  0.3645 -0.1598
17022TIP3    H172481   0.884   0.444   1.464 -0.5329  0.0446 -0.0087
17022TIP3    H272482   0.856   0.592   1.484  1.2575  0.4243 -0.0626
17023TIP3   OH272483   6.294   1.133  15.522  0.0504  0.2959 -0.6413
17023TIP3    H172484   6.211   1.172  15.496 -0.8871 -1.5630 -0.5436
17023TIP3    H272485   6.275   1.040  15.533  1.6097  0.1810  1.6445
17024TIP3   OH272486   2.575   6.203   4.847  0.5663 -0.7355  0.0915
17024TIP3    H172487   2.543   6.188   4.758 -1.9208  0.0306  0.7654
17024TIP3    H272488   2.556   6.121   4.894 -0.9209 -0.1386  0.5961
17025TIP3   OH272489   0.784   0.389  14.842 -0.4031 -0.6014  0.1588
17025TIP3    H172490   0.730   0.327  14.891 -0.8202 -0.3400  0.0286
17025TIP3    H272491   0.821   0.447  14.908  1.1349 -1.8366  0.4548
17026TIP3   OH272492   2.535   1.434  14.229 -0.4701 -0.5416 -0.1678
17026TIP3    H172493   2.495   1.403  14.148 -0.7092  0.0983 -0.2986
17026TIP3    H272494   2.490   1.516  14.248 -1.6797 -1.5612  1.6010
17027TIP3   OH272495   5.681   1.623   4.083 -0.5201 -0.1044  0.5173
17027TIP3    H172496   5.606   1.615   4.141 -0.9924  0.2950 -0.0255
17027TIP3    H272497   5.682   1.715   4.056 -0.2107 -0.2417  0.0290
17028TIP3   OH272498   0.808   0.511  12.970 -0.4891  0.0048 -0.3530
17028TIP3    H172499   0.866   0.442  13.004 -3.2091 -2.3544 -0.0695
17028TIP3    H272500   0.741   0.521  13.037 -1.8225  0.7513 -1.7447
17029TIP3   OH272501   1.264   6.274   2.376 -0.3367  0.2482  0.2057
17029TIP3    H172502   1.183   6.225   2.360  0.4013 -0.9132 -0.0541
17029TIP3    H272503   1.331   6.225   2.330  0.4989  1.3239  0.2391
17030TIP3   OH272504   2.577   5.088  17.459 -0.7482  0.1107  0.3788
17030TIP3    H172505   2.496   5.096  17.408 -0.3110  0.0798 -0.3272
17030TIP3    H272506   2.611   5.177  17.466 -0.5630  0.0525  0.2193
17031TIP3   OH272507   2.757   2.047  16.695  0.1151 -0.5909  0.3360
17031TIP3    H172508   2.779   2.070  16.786  0.2959 -0.0740  0.1639
17031TIP3    H272509   2.832   1.997  16.664  0.2213 -0.4447  0.3546
17032TIP3   OH272510   4.260   3.207  13.531 -0.0130  0.6677  0.2612
17032TIP3    H172511   4.259   3.302  13.538 -0.4607  0.7744 -1.0321
17032TIP3    H272512   4.304   3.189  13.447 -1.3408 -0.1913 -0.2891
17033TIP3   OH272513   6.149   2.046   5.988 -0.3424  0.4504  0.3597
17033TIP3    H172514   6.233   2.045   5.942 -0.4138  1.0228  0.2126
17033TIP3    H272515   6.162   2.108   6.060 -1.0849  1.6791 -0.5232
17034TIP3   OH272516   6.681   0.672   4.835 -0.5588 -0.8052 -0.2288
17034TIP3    H172517   6.611   0.615   4.803  0.8346 -2.3203 -0.7172
17034TIP3    H272518   6.735   0.687   4.758  0.3893 -0.7666  0.4366
17035TIP3   OH272519   5.607   4.452  13.252 -0.8992 -0.2208 -0.3595
17035TIP3    H172520   5.532   4.417  13.299 -1.3721  0.5972 -0.4877
17035TIP3    H272521   5.582   4.542  13.230  0.2944  0.2286  0.0198
17036TIP3   OH272522   3.833   1.429  14.923  0.0292  0.4668 -0.7129
17036TIP3    H172523   3.923   1.403  14.940 -1.2017 -2.5239  2.2014
17036TIP3    H272524   3.801   1.365  14.859 -0.5940  0.2099 -0.1549
17037TIP3   OH272525   6.199   5.564  17.077 -0.6799 -0.4770 -0.1068
17037TIP3    H172526   6.119   5.616  17.077 -0.7020 -0.5055 -0.8446
17037TIP3    H272527   6.182   5.493  17.140 -1.4612 -0.8276 -0.7009
17038TIP3   OH272528   2.851   5.164   4.866 -0.1537  0.3789  0.6518
17038TIP3    H172529   2.788   5.196   4.802 -0.2680  0.3615  0.7553
17038TIP3    H272530   2.894   5.091   4.822 -1.7923 -1.1093  1.3843
17039TIP3   OH272531   3.257   4.018   5.314  0.4331 -0.5014  0.2304
17039TIP3    H172532   3.249   4.114   5.307  1.0865 -0.4769 -0.2113
17039TIP3    H272533   3.179   3.992   5.363 -0.6589  0.0870 -1.1025
17040TIP3   OH272534   0.602   4.687   1.631  0.5331 -0.0331  0.5588
17040TIP3    H172535   0.520   4.684   1.681 -2.2180  0.2342 -3.4868
17040TIP3    H272536   0.624   4.780   1.626  0.1159  0.0565  0.3131
17041TIP3   OH272537   6.160   6.514  14.283 -0.3721 -0.3120 -0.5204
17041TIP3    H172538   6.104   6.498  14.358  0.0597 -1.1089 -0.3448
17041TIP3    H272539   6.107   6.490  14.207 -0.4366 -0.5848 -0.3896
17042TIP3   OH272540   2.540   4.604  13.302  0.1989  0.2179  0.3738
17042TIP3    H172541   2.510   4.523  13.260  0.9433 -1.1840  2.3690
17042TIP3    H272542   2.612   4.576  13.359 -0.0616  2.1534  1.7554
17043TIP3   OH272543   4.708   3.189   4.545  0.2233 -0.0746  0.0173
17043TIP3    H172544   4.777   3.253   4.561 -0.8100  1.4221 -1.1087
17043TIP3    H272545   4.627   3.237   4.565 -0.5024 -1.9728  1.9376
17044TIP3   OH272546   2.708   2.856   3.978  0.1210 -0.3963  0.4910
17044TIP3    H172547   2.714   2.936   4.029  1.8716 -1.1706  1.6010
17044TIP3    H272548   2.632   2.810   4.014 -0.0396  0.1220  0.8124
17045TIP3   OH272549   3.736   5.531  11.447 -0.1657  0.3674  0.1489
17045TIP3    H172550   3.656   5.568  11.408 -1.0578 -1.1469  0.4522
17045TIP3    H272551   3.775   5.604  11.494 -1.0447  1.3060 -0.5155
17046TIP3   OH272552   3.242   1.362  12.276  0.0571  0.2098  0.7325
17046TIP3    H172553   3.223   1.333  12.366  1.2236 -2.0353  0.3393
17046TIP3    H272554   3.335   1.342  12.264 -0.3099 -0.5356 -1.2910
17047TIP3   OH272555   3.351   6.079   2.203 -0.2583  0.0122  0.4380
17047TIP3    H172556   3.423   6.140   2.184  0.4381 -1.5356 -2.5606
17047TIP3    H272557   3.283   6.103   2.139 -1.6907  0.2191  1.9740
17048TIP3   OH272558   2.169   6.397  14.937 -0.2073  0.0491 -0.4057
17048TIP3    H172559   2.202   6.451  15.008 -3.7600 -2.3624  3.5399
17048TIP3    H272560   2.247   6.353  14.902  1.6300 -0.1016  3.4085
17049TIP3   OH272561   3.470   5.740  17.253 -0.3383  0.0268 -0.7181
17049TIP3    H172562   3.533   5.669  17.266  0.3997  0.2967 -2.4974
17049TIP3    H272563   3.487   5.801  17.324  0.1358 -0.7861 -0.1155
17050TIP3   OH272564   6.536   3.244   0.771  0.1807  0.1887  0.8779
17050TIP3    H172565   6.446   3.211   0.777 -0.0299  0.8046  1.2264
17050TIP3    H272566   6.553   3.251   0.677  0.7978 -2.3675  0.7158
17051TIP3   OH272567   4.226   5.869  17.472  0.0646  0.4875  0.1000
17051TIP3    H172568   4.322   5.874  17.479  0.2268 -0.3669 -1.2640
17051TIP3    H272569   4.210   5.822  17.390 -1.5368  1.1074  0.0265
17052TIP3   OH272570   1.867   3.933  15.837 -0.5104 -1.0747  0.1391
17052TIP3    H172571   1.957   3.941  15.870 -0.6643  1.7602  0.1553
17052TIP3    H272572   1.816   3.907  15.913  0.1245 -1.6627  0.3792
17053TIP3   OH272573   1.563   3.379   4.040 -0.0347  0.3166 -0.4144
17053TIP3    H172574   1.535   3.317   3.973 -1.8727  0.7360 -0.0674
17053TIP3    H272575   1.513   3.458   4.023  1.2783  1.2765 -0.0113
17054TIP3   OH272576   1.634   0.396  17.003  0.1169 -0.2228  0.0758
17054TIP3    H172577   1.558   0.349  16.970 -0.1490  0.6283 -0.5468
17054TIP3    H272578   1.669   0.339  17.072 -2.3811  0.3315  1.9857
17055TIP3   OH272579   3.823   4.966  17.086  0.6008  0.1520  0.0967
17055TIP3    H172580   3.754   4.991  17.025 -0.2509 -0.9742  0.5599
17055TIP3    H272581   3.781   4.967  17.172  1.1299 -0.6220  0.3761
17056TIP3   OH272582   4.921   6.626  12.476  0.3932 -0.2948 -0.1855
17056TIP3    H172583   4.929   6.717  12.447  0.7835 -0.4194 -0.4870
17056TIP3    H272584   4.989   6.580  12.427  0.0402 -0.7936 -0.2145
17057TIP3   OH272585   1.727   4.727   4.684  0.0534 -0.9286 -0.8509
17057TIP3    H172586   1.813   4.691   4.702  0.9204  1.0492 -0.7990
17057TIP3    H272587   1.724   4.737   4.589 -0.1522 -1.0446 -0.8589
17058TIP3   OH272588   3.419   5.730   2.540  0.0423 -0.0058  0.0855
17058TIP3    H172589   3.502   5.758   2.501 -0.0134  0.3791  0.2467
17058TIP3    H272590   3.437   5.724   2.634 -0.0356 -0.1991  0.0885
17059TIP3   OH272591   4.824   2.947  15.454 -0.2796 -0.0777  0.0784
17059TIP3    H172592   4.821   3.043  15.460 -0.9965 -0.0694 -0.3159
17059TIP3    H272593   4.830   2.929  15.361 -4.2547 -0.4613 -0.2785
17060TIP3   OH272594   1.763   0.604  15.188  0.0525  0.4757 -0.0763
17060TIP3    H172595   1.857   0.599  15.175  0.0136  1.1399 -0.6889
17060TIP3    H272596   1.747   0.559  15.271  1.4729  4.6565  2.7760
17061TIP3   OH272597   2.409   2.938   6.973  0.8102 -0.2278 -0.1124
17061TIP3    H172598   2.468   2.982   6.912 -0.2636  1.0853 -0.2469
17061TIP3    H272599   2.365   3.009   7.019 -1.6159 -1.0921 -0.9476
17062TIP3   OH272600   4.175   4.082  11.584  0.1253  0.1000 -0.0849
17062TIP3    H172601   4.133   4.055  11.502 -0.7746  0.3491  0.2753
17062TIP3    H272602   4.263   4.045  11.580  0.3717  0.7886 -1.5212
17063TIP3   OH272603   5.201   5.418   5.420  0.4449 -0.1837 -0.4334
17063TIP3    H172604   5.124   5.400   5.474 -0.9037  0.5197 -2.0403
17063TIP3    H272605   5.232   5.503   5.452 -0.5263  0.3736 -0.9297
17064TIP3   OH272606   3.864   6.118   0.698 -0.1608 -0.0212 -0.2496
17064TIP3    H172607   3.853   6.198   0.751  1.2418  0.9502 -1.3476
17064TIP3    H272608   3.889   6.051   0.762  1.3096  1.0747  0.3873
17065TIP3   OH272609   4.541   3.819  11.344 -0.2181  0.1386 -0.6961
17065TIP3    H172610   4.479   3.815  11.271 -0.2983  0.7641 -0.6610
17065TIP3    H272611   4.606   3.884  11.318  0.9753 -1.1687 -1.1478
17066TIP3   OH272612   6.001   5.684   3.442 -0.0985 -0.1087 -0.0915
17066TIP3    H172613   5.943   5.661   3.369 -0.1840  0.3143 -0.1590
17066TIP3    H272614   6.064   5.613   3.445 -0.5806 -0.5420 -0.0577
17067TIP3   OH272615   1.378   5.811   0.752 -0.2443  0.2881  0.1735
17067TIP3    H172616   1.301   5.831   0.806 -1.3210 -0.5414 -1.0069
17067TIP3    H272617   1.374   5.717   0.737  1.6203  0.0495  0.9655
17068TIP3   OH272618   4.575   3.085   1.142 -0.7323 -0.3090  0.8647
17068TIP3    H172619   4.540   3.091   1.053  1.8965  1.6182 -0.1994
17068TIP3    H272620   4.625   3.003   1.142  1.1941  0.7805 -0.3349
17069TIP3   OH272621   5.413   2.978  11.927  0.1504 -0.7206 -0.2909
17069TIP3    H172622   5.499   2.948  11.957 -0.6073 -2.6645  0.0970
17069TIP3    H272623   5.351   2.929  11.980 -1.2125  0.3328 -0.8600
17070TIP3   OH272624   0.204   2.380  17.419 -0.6646  0.2493 -0.8026
17070TIP3    H172625   0.143   2.380  17.493  1.6317 -0.6522  1.2191
17070TIP3    H272626   0.278   2.431  17.450  1.4545 -2.2424 -1.4449
17071TIP3   OH272627   0.684   0.990   1.296  0.5280 -0.1560  0.5817
17071TIP3    H172628   0.637   1.073   1.284  0.5149 -0.1851  0.4297
17071TIP3    H272629   0.621   0.923   1.269  0.1460 -0.2928  1.7469
17072TIP3   OH272630   4.305   6.280   5.454  0.1968 -0.4805  0.0394
17072TIP3    H172631   4.346   6.361   5.426  0.8439 -1.5470 -2.3518
17072TIP3    H272632   4.307   6.284   5.550  1.1855  1.7984 -0.0116
17073TIP3   OH272633   2.786   4.798   5.309  0.4151 -0.4047  0.7835
17073TIP3    H172634   2.836   4.835   5.236  0.0526  0.7568  1.0988
17073TIP3    H272635   2.708   4.854   5.315 -0.7320 -1.9201  0.5652
17074TIP3   OH272636   4.013   1.430  15.307  0.9711 -0.2654 -0.1444
17074TIP3    H172637   4.068   1.433  15.385  0.8431 -1.9966  0.0499
17074TIP3    H272638   4.031   1.344  15.268 -1.2621 -0.7094 -0.3156
17075TIP3   OH272639   4.429   0.483   5.103 -0.5043 -0.0105  0.0386
17075TIP3    H172640   4.451   0.394   5.130 -0.7482 -0.6328 -1.6759
17075TIP3    H272641   4.360   0.511   5.164 -0.1506 -0.8429  0.8323
17076TIP3   OH272642   1.878   6.289   4.248 -0.3797 -0.4017 -0.0349
17076TIP3    H172643   1.791   6.310   4.216  0.0748 -0.6404 -1.4818
17076TIP3    H272644   1.929   6.368   4.233 -0.3061 -0.2949  0.7216
17077TIP3   OH272645   4.678   5.915   5.206 -0.0241  0.3772 -0.0790
17077TIP3    H172646   4.694   5.853   5.277 -0.5426  2.2907  1.8277
17077TIP3    H272647   4.759   5.967   5.200  0.9388 -1.2370 -2.5872
17078TIP3   OH272648   2.992   5.200  14.908 -0.4478  0.3589  0.0926
17078TIP3    H172649   3.007   5.186  14.814 -0.4302  1.0497 -0.0092
17078TIP3    H272650   3.073   5.240  14.940 -0.8051  1.0012  0.2093
17079TIP3   OH272651   4.876   3.444   2.975  0.1896 -0.1878  0.1024
17079TIP3    H172652   4.797   3.439   3.029  0.2755  0.9475  0.3527
17079TIP3    H272653   4.846   3.478   2.891  0.4066  0.2650  0.2036
17080TIP3   OH272654   0.452   1.222   0.695 -0.3985 -0.0120 -0.4476
17080TIP3    H172655   0.380   1.161   0.679 -0.6110  0.1097  0.0227
17080TIP3    H272656   0.447   1.241   0.788  1.6630 -1.7951  0.1106
17081TIP3   OH272657   2.770   5.705  12.125  0.2954  0.0424  0.1163
17081TIP3    H172658   2.780   5.757  12.205  1.8681 -0.1250  0.0549
17081TIP3    H272659   2.763   5.614  12.155 -4.1823  0.2304  0.3566
17082TIP3   OH272660   3.209   6.611  16.077 -0.5486 -0.0678 -0.1483
17082TIP3    H172661   3.186   6.578  16.164  1.7906 -0.3282  0.4384
17082TIP3    H272662   3.163   6.553  16.016  0.1315 -1.7919  0.9009
17083TIP3   OH272663   3.457   5.099   6.143 -0.5730 -0.4834  0.5722
17083TIP3    H172664   3.459   5.012   6.103 -0.3901  0.3462 -1.3498
17083TIP3    H272665   3.547   5.114   6.172 -0.1288 -0.2055 -0.8579
17084TIP3   OH272666   1.424   0.549  13.322  0.0015  0.5623  0.3052
17084TIP3    H172667   1.408   0.466  13.369  0.2981 -0.1490 -0.8155
17084TIP3    H272668   1.338   0.573  13.287 -0.1190  0.8230  0.7751
17085TIP3   OH272669   1.280   4.494  12.072 -0.4797 -0.2012 -0.0751
17085TIP3    H172670   1.368   4.506  12.034 -0.8905  1.2369 -0.6387
17085TIP3    H272671   1.245   4.418  12.027  1.2810 -2.2542  1.7476
17086TIP3   OH272672   5.447   3.268   1.143  0.1547 -0.3136  0.0754
17086TIP3    H172673   5.505   3.212   1.093 -0.6055 -1.3723  0.3371
17086TIP3    H272674   5.433   3.222   1.225 -0.2565  0.4034  0.4248
17087TIP3   OH272675   6.465   1.872  15.524  0.2559  0.1544  0.3724
17087TIP3    H172676   6.393   1.912  15.573 -0.3801  1.8585 -1.7760
17087TIP3    H272677   6.517   1.947  15.493  1.1078 -0.8715 -0.7779
17088TIP3   OH272678   6.627   1.616   0.444  0.6140 -0.4768 -0.3740
17088TIP3    H172679   6.582   1.668   0.378 -0.7465 -0.3532  0.6288
17088TIP3    H272680   6.720   1.631   0.427  0.2671  1.7526 -0.5121
17089TIP3   OH272681   1.959   3.789  16.634  0.1868  0.4704 -0.4516
17089TIP3    H172682   1.998   3.702  16.633  1.5240  1.0465 -1.7321
17089TIP3    H272683   1.866   3.773  16.649  0.6325 -1.0497  1.0095
17090TIP3   OH272684   5.045   0.718  16.078  0.7721  0.2178 -0.5082
17090TIP3    H172685   4.964   0.766  16.099  1.6265  1.4909  0.0258
17090TIP3    H272686   5.092   0.776  16.018  2.5869  0.8718  1.4227
17091TIP3   OH272687   2.910   4.154  11.470  0.0911 -0.7311 -0.1531
17091TIP3    H172688   3.004   4.152  11.482  0.1879  0.9562 -0.3503
17091TIP3    H272689   2.874   4.134  11.556  0.6304 -0.8788  0.0408
17092TIP3   OH272690   0.917   3.373  14.562  0.1971  0.2012 -0.1283
17092TIP3    H172691   0.907   3.446  14.623  0.1336  0.0182  0.0822
17092TIP3    H272692   0.854   3.307  14.591 -0.4409  0.4543 -0.9165
17093TIP3   OH272693   3.191   5.190   4.568  0.2239  0.2961  0.4127
17093TIP3    H172694   3.284   5.177   4.552  0.4267  1.3593  0.6715
17093TIP3    H272695   3.151   5.105   4.547  0.6376  0.9766 -4.2146
17094TIP3   OH272696   3.514   0.505  13.304 -0.7469 -0.1751 -0.3804
17094TIP3    H172697   3.534   0.438  13.368  2.0398  0.7785 -0.1069
17094TIP3    H272698   3.429   0.540  13.331 -0.5198 -1.0740  1.6456
17095TIP3   OH272699   4.331   2.775  14.685 -0.2980  0.3573  0.1835
17095TIP3    H172700   4.256   2.818  14.643 -0.1479  1.3537  0.8864
17095TIP3    H272701   4.400   2.842  14.683  0.8162 -0.7758 -1.0710
17096TIP3   OH272702   1.971   3.603   4.164  0.5253  0.1285 -0.2118
17096TIP3    H172703   2.032   3.576   4.232  0.7824  0.7317 -0.1965
17096TIP3    H272704   1.921   3.675   4.203  0.2420  0.0613 -0.4442
17097TIP3   OH272705   5.871   1.520  10.843 -0.0797 -0.6505 -0.1654
17097TIP3    H172706   5.868   1.430  10.875 -1.3143 -1.1081 -1.4769
17097TIP3    H272707   5.788   1.559  10.870  0.1912 -0.0813 -0.1270
17098TIP3   OH272708   6.524   3.608   3.861 -0.4158 -0.3417  0.1888
17098TIP3    H172709   6.460   3.635   3.926 -1.1584  0.3329 -0.7968
17098TIP3    H272710   6.473   3.564   3.793 -0.4138  3.0091 -2.2265
17099TIP3   OH272711   4.013   3.961  11.407 -0.3075 -0.1134  0.3575
17099TIP3    H172712   3.977   3.873  11.412  1.2361 -0.8420 -0.5678
17099TIP3    H272713   3.964   4.004  11.337 -2.3434  0.4591  2.0156
17100TIP3   OH272714   2.612   6.621   4.463 -0.0851  0.1027  0.1046
17100TIP3    H172715   2.611   6.694   4.400  0.0424  0.6556  0.7387
17100TIP3    H272716   2.569   6.549   4.416 -1.5329  1.0120 -0.0133
17101TIP3   OH272717   3.708   5.415  13.991 -0.1558  0.3604  0.3007
17101TIP3    H172718   3.617   5.438  13.974  0.3201  2.3438  0.1642
17101TIP3    H272719   3.740   5.485  14.049  0.7939 -1.3018  1.8899
17102TIP3   OH272720   4.759   1.654   5.472 -0.1839  0.5381  0.4579
17102TIP3    H172721   4.748   1.719   5.403 -1.9928 -0.1530  0.0366
17102TIP3    H272722   4.781   1.573   5.426  0.7403  0.5228  0.8866
17103TIP3   OH272723   1.269   0.758   1.450 -0.0264 -0.5635  0.4215
17103TIP3    H172724   1.315   0.750   1.534 -1.5852  1.7897  1.6045
17103TIP3    H272725   1.183   0.793   1.473 -0.8549 -0.7481 -2.1125
17104TIP3   OH272726   0.831   2.274   4.112 -0.2116 -0.3600 -0.3687
17104TIP3    H172727   0.899   2.328   4.071 -0.2226  0.3672  0.5520
17104TIP3    H272728   0.762   2.270   4.046 -0.2173  0.7678 -0.4545
17105TIP3   OH272729   3.870   2.931  15.852  0.2120 -0.0635 -0.2198
17105TIP3    H172730   3.797   2.954  15.909  1.0345  0.0195  0.8343
17105TIP3    H272731   3.937   2.899  15.911  0.9055 -0.4745 -1.2053
17106TIP3   OH272732   1.361   1.976   0.824  0.7258 -0.3152  0.1697
17106TIP3    H172733   1.450   2.007   0.808  0.3423 -0.2001 -2.0645
17106TIP3    H272734   1.311   2.055   0.841  1.2445 -0.4792  2.9646
17107TIP3   OH272735   0.149   5.571  15.819 -0.0574 -0.1505  0.3202
17107TIP3    H172736   0.082   5.504  15.805  0.8399 -0.8763 -0.6808
17107TIP3    H272737   0.219   5.525  15.865  0.3406  0.2377  0.1049
17108TIP3   OH272738   0.824   0.776   2.121  0.3474  0.0405 -0.2599
17108TIP3    H172739   0.745   0.831   2.119  0.4122  0.1398 -0.1174
17108TIP3    H272740   0.814   0.723   2.200  0.8120  0.6322  0.2078
17109TIP3   OH272741   5.881   3.089  14.913  0.3269  0.0156  0.6258
17109TIP3    H172742   5.833   3.150  14.969 -0.9252 -0.6004  0.2672
17109TIP3    H272743   5.894   3.136  14.831 -1.0075 -0.2864  0.1988
17110TIP3   OH272744   5.545   1.395  11.753  0.2554  0.2211 -0.6752
17110TIP3    H172745   5.535   1.456  11.827 -1.8957 -1.2207  0.3151
17110TIP3    H272746   5.531   1.449  11.676  1.8072  1.6211 -0.0679
17111TIP3   OH272747   0.002   3.485  11.897 -0.1372 -0.6600  0.4058
17111TIP3    H172748   0.081   3.532  11.927  0.4569 -2.0952  1.1729
17111TIP3    H272749  -0.070   3.546  11.916  0.8426  1.1853 -1.4031
17112TIP3   OH272750   6.267   1.306   6.422  0.4659  0.8758 -0.4186
17112TIP3    H172751   6.213   1.385   6.426  1.8040  1.7800  0.9348
17112TIP3    H272752   6.226   1.247   6.485 -0.7889  0.2826 -1.7453
17113TIP3   OH272753   0.768   2.121  17.182 -0.4249  0.0161 -0.3363
17113TIP3    H172754   0.760   2.132  17.277 -0.6482 -1.8346 -0.1068
17113TIP3    H272755   0.826   2.192  17.154 -0.7123  0.8547  1.1119
17114TIP3   OH272756   2.268   0.160  16.821  0.3476 -0.1333 -0.6435
17114TIP3    H172757   2.258   0.245  16.779  3.3846  0.7467  0.1672
17114TIP3    H272758   2.328   0.112  16.764  0.5469 -0.8067  0.1094
17115TIP3   OH272759   5.438   3.577   1.517  0.1269 -0.1522  0.1247
17115TIP3    H172760   5.446   3.561   1.423 -0.3578 -0.2610  0.0987
17115TIP3    H272761   5.371   3.516   1.546  2.3546 -2.2951  1.1030
17116TIP3   OH272762   5.773   6.731  16.412 -0.3346 -0.1560 -0.0916
17116TIP3    H172763   5.733   6.662  16.464 -1.0099  0.9361  0.8913
17116TIP3    H272764   5.867   6.714  16.418 -0.4434 -0.4740  0.8989
17117TIP3   OH272765   1.204   1.387  10.796 -0.8570  0.0087  0.0595
17117TIP3    H172766   1.181   1.294  10.796  1.1932 -0.5457 -0.6985
17117TIP3    H272767   1.295   1.388  10.825 -0.1157  1.5671 -2.1528
17118TIP3   OH272768   5.671   6.271   5.352  0.3956 -0.3967  0.6228
17118TIP3    H172769   5.746   6.212   5.348  1.7138  1.2708 -1.1518
17118TIP3    H272770   5.614   6.242   5.281 -0.5262 -1.4631  1.7676
17119TIP3   OH272771   1.148   0.756  16.978  0.1128  0.3799  0.9218
17119TIP3    H172772   1.068   0.808  16.971  0.3436  0.6341  0.0766
17119TIP3    H272773   1.215   0.809  16.936  0.2495 -0.7911 -0.4453
17120TIP3   OH272774   1.782   5.476   5.804  0.0062 -0.3870 -0.3997
17120TIP3    H172775   1.781   5.571   5.803  1.8354 -0.3021 -2.8305
17120TIP3    H272776   1.869   5.453   5.837 -0.6381 -1.2859  0.7894
17121TIP3   OH272777   2.332   1.564   0.917 -0.0779  0.0807 -0.0700
17121TIP3    H172778   2.369   1.527   0.997 -0.5866  0.8446  0.5379
17121TIP3    H272779   2.239   1.577   0.937 -0.5981 -1.3024 -1.3723
17122TIP3   OH272780   6.593   0.592   5.371 -0.1052 -0.0633 -0.2228
17122TIP3    H172781   6.548   0.517   5.411  0.5356 -0.0202  0.6139
17122TIP3    H272782   6.538   0.668   5.393 -0.9593 -0.3090 -1.3982
17123TIP3   OH272783   1.382   3.908   3.181 -0.1244 -0.0165 -0.0597
17123TIP3    H172784   1.297   3.898   3.223 -0.0348 -0.2197  0.0760
17123TIP3    H272785   1.362   3.917   3.088 -0.4252  1.8689  0.1397
17124TIP3   OH272786   5.470   3.879   0.054  0.1681  0.0443  0.1446
17124TIP3    H172787   5.526   3.956   0.067 -0.3117  0.1134  2.1657
17124TIP3    H272788   5.415   3.902  -0.021  0.1366  1.6377  0.6154
17125TIP3   OH272789   2.821   3.932   5.770  0.1322  0.0533 -0.9975
17125TIP3    H172790   2.790   3.849   5.806 -0.8337  0.0540 -1.7871
17125TIP3    H272791   2.837   3.987   5.847 -0.5286 -0.4171 -0.5164
17126TIP3   OH272792   4.936   3.648   0.098  0.6092 -0.7897  0.1996
17126TIP3    H172793   4.957   3.741   0.087  0.2977 -0.4904  1.8339
17126TIP3    H272794   4.996   3.603   0.039  1.0453  0.4251 -0.3202
17127TIP3   OH272795   5.007   0.170   1.911 -0.5995  0.1627  0.4644
17127TIP3    H172796   4.961   0.245   1.873 -1.0248  0.3613  1.3330
17127TIP3    H272797   5.025   0.197   2.001 -0.0331 -0.4708  0.5466
17128TIP3   OH272798   4.990   4.586  15.444  0.0535 -0.4899  0.0605
17128TIP3    H172799   4.909   4.545  15.473  0.0532 -0.5607 -0.0433
17128TIP3    H272800   5.018   4.535  15.368  0.7569 -1.1392  0.7396
17129TIP3   OH272801   1.897   4.429  16.342 -1.2721  0.4876  0.5184
17129TIP3    H172802   1.820   4.467  16.299 -0.9024  1.5733  0.7831
17129TIP3    H272803   1.933   4.368  16.278 -0.8922  1.8633 -0.6167
17130TIP3   OH272804   6.211   5.086  11.677  0.3272  0.3515  0.6996
17130TIP3    H172805   6.125   5.107  11.713  0.1528  2.4948 -0.7926
17130TIP3    H272806   6.192   5.047  11.591  0.8259  1.6950 -0.0412
17131TIP3   OH272807   0.171   3.624  15.959 -0.4051  0.2603 -0.2003
17131TIP3    H172808   0.227   3.635  15.882 -1.1234 -0.8150 -0.9023
17131TIP3    H272809   0.082   3.630  15.925 -0.7340  0.0447  0.5943
17132TIP3   OH272810   1.980   0.069  13.927 -0.5660 -0.0194 -0.0590
17132TIP3    H172811   2.076   0.071  13.932 -0.5757  1.0199 -0.0418
17132TIP3    H272812   1.960   0.102  13.839 -0.8888 -1.3259 -0.4978
17133TIP3   OH272813   4.277   0.887  11.866  0.6135 -0.3112  0.4916
17133TIP3    H172814   4.194   0.935  11.872 -0.7522 -2.5361  0.4252
17133TIP3    H272815   4.257   0.811  11.812  2.7074 -0.9292  0.5055
17134TIP3   OH272816   3.669   1.570   4.301 -0.3328 -0.1648 -0.0927
17134TIP3    H172817   3.680   1.625   4.378 -0.2392 -0.3591  0.0343
17134TIP3    H272818   3.695   1.625   4.227  1.1212 -0.4849  0.1646
17135TIP3   OH272819   4.594   1.405   1.089  0.1317  0.0292 -0.0027
17135TIP3    H172820   4.642   1.324   1.108 -0.4187 -1.2422 -3.2393
17135TIP3    H272821   4.662   1.472   1.085  0.9815 -0.7848  0.3041
17136TIP3   OH272822   3.429   2.462   0.481 -0.0125 -0.0343 -0.0717
17136TIP3    H172823   3.359   2.453   0.416  0.2503 -0.7601 -0.2602
17136TIP3    H272824   3.415   2.549   0.519 -2.0321 -0.8007  1.0913
17137TIP3   OH272825   2.142   6.051   0.203 -0.1005  0.2603 -0.7022
17137TIP3    H172826   2.226   6.084   0.235 -0.2823  1.7740 -1.7158
17137TIP3    H272827   2.122   5.978   0.262  2.0568 -0.3516 -0.6193
17138TIP3   OH272828   1.237   6.475   3.807  0.7281  0.0239 -0.4656
17138TIP3    H172829   1.174   6.403   3.813  0.1712  0.5661  0.5326
17138TIP3    H272830   1.267   6.487   3.898 -1.0760  2.6882 -0.1237
17139TIP3   OH272831   0.511   3.373  11.029  0.7810 -0.1942 -0.3133
17139TIP3    H172832   0.425   3.412  11.012  0.6924 -0.3004 -0.1137
17139TIP3    H272833   0.499   3.280  11.014  0.4850 -0.4074  1.1055
17140TIP3   OH272834   4.350   1.952   3.929 -0.1178  0.0052 -0.6558
17140TIP3    H172835   4.394   1.896   3.993  0.8937  2.2068  0.6679
17140TIP3    H272836   4.363   2.041   3.960 -1.5634  1.0583 -2.7409
17141TIP3   OH272837   0.121   0.923   3.696 -0.6802 -0.0505 -0.0203
17141TIP3    H172838   0.138   0.951   3.606 -1.6496  0.7930  0.0395
17141TIP3    H272839   0.093   0.832   3.689  0.7544 -0.4800 -0.4101
17142TIP3   OH272840   5.707   6.613  15.776 -0.2882  0.5348  0.7793
17142TIP3    H172841   5.657   6.654  15.705 -1.3385  2.2256  2.4203
17142TIP3    H272842   5.647   6.548  15.812 -0.4144  0.8944  1.2202
17143TIP3   OH272843   2.242   0.581   1.775 -0.0256  0.0614 -0.2437
17143TIP3    H172844   2.154   0.559   1.744  0.9275 -0.4683 -2.8664
17143TIP3    H272845   2.273   0.647   1.713  1.7988 -0.5292 -0.0167
17144TIP3   OH272846   6.248   0.500   1.736  0.8778 -0.1458 -1.1712
17144TIP3    H172847   6.291   0.504   1.822 -0.2747  0.5064 -0.6010
17144TIP3    H272848   6.191   0.577   1.734 -0.9929 -1.4778 -1.4921
17145TIP3   OH272849   6.407   3.535  13.778 -0.3119  0.5897 -0.3851
17145TIP3    H172850   6.419   3.625  13.807  2.5547  0.1967 -0.0684
17145TIP3    H272851   6.486   3.514  13.729 -0.9811 -1.7042 -0.6357
17146TIP3   OH272852   1.295   5.229  15.820  0.4558  0.1122  0.5037
17146TIP3    H172853   1.330   5.314  15.793  0.8984 -0.6390 -1.4374
17146TIP3    H272854   1.370   5.169  15.816 -0.1644 -0.6785  0.3736
17147TIP3   OH272855   3.737   3.887   4.639 -0.4042  0.3227  0.3814
17147TIP3    H172856   3.819   3.934   4.652 -0.5274  0.3186  1.2392
17147TIP3    H272857   3.739   3.859   4.547 -0.1477  1.6379 -0.0303
17148TIP3   OH272858   2.902   2.222  14.804 -0.2266  0.5541  0.3133
17148TIP3    H172859   2.942   2.154  14.858 -1.9569 -0.0445  0.9193
17148TIP3    H272860   2.920   2.304  14.851 -1.5780  0.0582  1.7854
17149TIP3   OH272861   1.436   1.501   4.759  0.1290 -0.3106 -0.6293
17149TIP3    H172862   1.464   1.591   4.770  1.1555 -0.4574 -1.8107
17149TIP3    H272863   1.397   1.477   4.843  0.1255  1.1261 -0.2056
17150TIP3   OH272864   3.424   6.005  12.496  0.4506  0.3672  0.7389
17150TIP3    H172865   3.382   5.932  12.450  0.6166  1.3884 -1.1135
17150TIP3    H272866   3.351   6.063  12.519  0.6114  1.3743 -1.0894
17151TIP3   OH272867   5.341   5.860   4.746  0.3383 -0.0938 -0.7388
17151TIP3    H172868   5.425   5.894   4.718  0.4369  0.6402  0.3750
17151TIP3    H272869   5.294   5.936   4.780  0.4388 -0.9573  1.5389
17152TIP3   OH272870   0.320   4.281   4.012 -0.1598 -0.6139  0.6571
17152TIP3    H172871   0.387   4.265   4.079  0.3603  1.2999  0.6556
17152TIP3    H272872   0.369   4.295   3.932 -0.4844  1.1666  0.7240
17153TIP3   OH272873   0.980   5.360   2.414  0.0411  0.2745  0.5788
17153TIP3    H172874   1.061   5.393   2.377 -0.8938  0.2921 -1.6395
17153TIP3    H272875   0.951   5.293   2.351 -1.0549 -0.5633  1.9258
17154TIP3   OH272876   1.648   1.435   5.864 -0.0047 -0.1632 -0.2140
17154TIP3    H172877   1.677   1.345   5.883 -0.3840 -0.1409  0.5226
17154TIP3    H272878   1.728   1.487   5.866  0.0543 -0.2634  0.7928
17155TIP3   OH272879   4.262   5.253   2.220 -0.3682  0.5642 -0.2693
17155TIP3    H172880   4.338   5.208   2.182 -1.3304  0.1893 -1.8838
17155TIP3    H272881   4.288   5.275   2.309  0.8142 -1.6045  0.0005
17156TIP3   OH272882   3.878   4.956  15.201 -0.0875  0.2730  0.0746
17156TIP3    H172883   3.859   4.959  15.107 -0.9505 -1.6175  0.1520
17156TIP3    H272884   3.970   4.930  15.206 -0.0180  0.4570 -0.2319
17157TIP3   OH272885   5.560   4.261  13.505  0.4445 -0.6794  0.0283
17157TIP3    H172886   5.472   4.247  13.539  0.5597  1.5952  1.4126
17157TIP3    H272887   5.554   4.233  13.413 -1.1022 -2.5508  0.6106
17158TIP3   OH272888   0.839   5.527  14.108 -0.1512  0.1782  0.2983
17158TIP3    H172889   0.927   5.509  14.140 -0.4145 -0.0068  0.9335
17158TIP3    H272890   0.788   5.450  14.132  0.3310 -1.5944 -3.5078
17159TIP3   OH272891   4.542   3.882   5.539 -0.8315  0.2939 -0.0609
17159TIP3    H172892   4.629   3.873   5.501 -0.5784  2.5728 -0.1943
17159TIP3    H272893   4.482   3.872   5.464 -0.8284 -2.5116  0.2285
17160TIP3   OH272894   3.030   0.107   2.883 -0.0090 -0.3229 -0.1760
17160TIP3    H172895   3.045   0.064   2.968 -0.3278  1.5795  0.9015
17160TIP3    H272896   2.941   0.141   2.889 -0.1083 -0.3405 -1.3780
17161TIP3   OH272897   3.966   3.539   2.192  0.5769  0.1346  0.2670
17161TIP3    H172898   3.912   3.566   2.118  0.2691 -0.0079  0.4383
17161TIP3    H272899   4.009   3.620   2.221  1.1755  0.0806 -0.4487
17162TIP3   OH272900   3.695   3.326  12.729  0.1984  0.0138  0.4746
17162TIP3    H172901   3.750   3.342  12.805  0.0872  1.1923  0.3270
17162TIP3    H272902   3.672   3.413  12.697 -0.0564 -0.4585 -0.6921
17163TIP3   OH272903   0.913   5.958   0.254  0.6567  0.7994  0.0447
17163TIP3    H172904   0.868   6.011   0.189 -0.2718  2.5391  2.0086
17163TIP3    H272905   0.926   5.873   0.210 -1.5570  1.2791 -1.7476
17164TIP3   OH272906   0.537   1.133  16.858 -0.4265 -0.3583  0.0045
17164TIP3    H172907   0.560   1.040  16.856  0.0025 -0.2497 -0.1860
17164TIP3    H272908   0.582   1.167  16.936  0.1905 -0.1128 -0.4546
17165TIP3   OH272909   0.608   6.054   1.861 -0.0281  0.0845 -0.1216
17165TIP3    H172910   0.575   6.143   1.848 -0.3911 -0.1148 -0.6049
17165TIP3    H272911   0.645   6.030   1.777  1.0664  0.1718  0.3144
17166TIP3   OH272912   2.761   3.833  11.441  0.4907  0.0174  0.9035
17166TIP3    H172913   2.739   3.798  11.528 -4.4633 -0.5531 -0.3067
17166TIP3    H272914   2.792   3.757  11.392 -0.1604 -0.4580  1.2085
17167TIP3   OH272915   2.301   3.035   5.472  0.0196  0.1958  0.5369
17167TIP3    H172916   2.367   2.984   5.424 -0.8245  1.1267 -1.7790
17167TIP3    H272917   2.243   2.969   5.509 -1.0886 -0.7079 -2.4501
17168TIP3   OH272918   1.486   5.460  13.979 -0.5354  0.8624 -0.0063
17168TIP3    H172919   1.573   5.471  13.941  1.2233  1.8939  3.8233
17168TIP3    H272920   1.484   5.368  14.008 -0.8923  0.7231 -0.4722
17169TIP3   OH272921   0.021   4.143  15.108  0.1808  0.1989 -0.1898
17169TIP3    H172922   0.001   4.230  15.143 -2.5357 -0.8458  1.0400
17169TIP3    H272923   0.030   4.087  15.185 -1.4308 -1.2582 -1.0151
17170TIP3   OH272924   0.331   6.157   2.086 -0.7229  0.1937 -0.0493
17170TIP3    H172925   0.409   6.161   2.031 -1.6148  2.8256 -1.2543
17170TIP3    H272926   0.261   6.127   2.026 -1.3744  1.5332  0.0072
17171TIP3   OH272927   1.148   5.257  16.051  0.7564  0.4179 -0.0166
17171TIP3    H172928   1.218   5.269  15.986  1.4370  0.1453  0.6557
17171TIP3    H272929   1.181   5.191  16.111 -1.0544 -1.5368 -1.0263
17172TIP3   OH272930   5.901   0.641   3.763  0.5882  0.0812  0.3650
17172TIP3    H172931   5.868   0.678   3.845  0.9064  1.7947 -0.2409
17172TIP3    H272932   5.831   0.583   3.733 -1.2923  2.4116 -0.0808
17173TIP3   OH272933   3.863   5.861  11.441 -0.1368 -0.6270  0.0783
17173TIP3    H172934   3.931   5.805  11.403  0.1570 -0.6197  0.5833
17173TIP3    H272935   3.849   5.826  11.529 -2.1091 -1.7824 -0.6269
17174TIP3   OH272936   4.773   0.726   3.064 -0.2145  0.8613  0.2967
17174TIP3    H172937   4.819   0.739   2.982  0.3020 -0.4840  0.3471
17174TIP3    H272938   4.765   0.814   3.102 -1.1172  1.5979 -1.5089
17175TIP3   OH272939   4.947   3.769  14.924  0.3345  0.2477  0.4647
17175TIP3    H172940   4.870   3.760  14.980 -0.1415  0.4938 -0.1399
17175TIP3    H272941   4.954   3.685  14.879 -1.2004  1.0722 -1.4912
17176TIP3   OH272942   5.092   4.833   0.861 -0.7681  0.4583  0.4897
17176TIP3    H172943   5.187   4.820   0.865 -0.5572  1.2085 -1.0956
17176TIP3    H272944   5.057   4.750   0.829 -0.2585  1.1109 -1.9986
17177TIP3   OH272945   0.552   4.962  16.875  0.1940 -0.1504  0.0395
17177TIP3    H172946   0.539   5.035  16.935 -0.6321 -0.6168  0.4451
17177TIP3    H272947   0.472   4.910  16.882  0.4840 -0.7314 -0.7518
17178TIP3   OH272948   2.011   4.174  15.636 -0.3283 -0.2269 -0.0576
17178TIP3    H172949   2.032   4.260  15.599  1.4771 -0.4779  0.2952
17178TIP3    H272950   1.941   4.191  15.698 -0.5420  0.8639 -0.5696
17179TIP3   OH272951   1.798   3.706   0.068  0.7893 -0.2678  0.0023
17179TIP3    H172952   1.793   3.796   0.035  0.3716 -0.4329 -0.3833
17179TIP3    H272953   1.798   3.716   0.163  0.2154  0.1153 -0.0374
17180TIP3   OH272954   5.632   3.895  16.970 -0.0499  0.2949  0.1078
17180TIP3    H172955   5.706   3.836  16.975  0.9420  1.5590  1.0335
17180TIP3    H272956   5.610   3.915  17.061 -1.5079 -0.0127 -0.1484
17181TIP3   OH272957   2.016   4.874   5.490  0.0829  0.4491  0.3213
17181TIP3    H172958   1.983   4.853   5.403 -1.6696  0.5035  0.9138
17181TIP3    H272959   1.976   4.959   5.511  1.4672  1.0260  0.6976
17182TIP3   OH272960   2.422   2.528  16.067  0.2972 -0.8676  0.1813
17182TIP3    H172961   2.515   2.537  16.047  0.0856  1.0497 -0.1585
17182TIP3    H272962   2.409   2.582  16.145 -0.7751  0.1425 -0.6596
17183TIP3   OH272963   5.733   1.455  17.372 -0.2394  0.3536 -0.3011
17183TIP3    H172964   5.821   1.490  17.388  0.2945 -1.1885  0.2370
17183TIP3    H272965   5.745   1.361  17.362 -1.9226  0.0131  0.5077
17184TIP3   OH272966   3.180   3.604  16.373 -0.1461 -0.0720  0.1944
17184TIP3    H172967   3.265   3.561  16.379  0.1085  0.5208  0.9578
17184TIP3    H272968   3.183   3.652  16.290  0.5089  0.4617  0.5201
17185TIP3   OH272969   0.387   5.841  13.722 -0.0761  0.1435 -0.0148
17185TIP3    H172970   0.429   5.902  13.662  0.9217 -0.0819  0.4254
17185TIP3    H272971   0.303   5.881  13.744 -0.2751  0.4136 -1.2327
17186TIP3   OH272972   1.190   5.005  16.803 -0.5514 -0.0068  0.2614
17186TIP3    H172973   1.251   4.935  16.826 -0.9898 -0.6188 -0.3899
17186TIP3    H272974   1.217   5.079  16.858  0.7499 -0.2621  0.0035
17187TIP3   OH272975   2.835   0.110   5.505  0.2006 -0.3928  0.0183
17187TIP3    H172976   2.788   0.173   5.560 -1.6273 -2.6736  1.2005
17187TIP3    H272977   2.839   0.030   5.557 -1.8121 -2.7627 -3.1639
17188TIP3   OH272978   0.570   1.308  13.218  0.5552 -1.1363 -0.9033
17188TIP3    H172979   0.575   1.396  13.179  0.9823 -0.5614  0.3952
17188TIP3    H272980   0.488   1.309  13.267  0.9257 -1.1870 -0.2708
17189TIP3   OH272981   1.374   3.105   5.257 -0.0194  0.3247 -1.1847
17189TIP3    H172982   1.411   3.019   5.276  1.4609  1.1810 -0.0323
17189TIP3    H272983   1.320   3.125   5.333  0.1020  0.6696 -1.1902
17190TIP3   OH272984   1.120   1.345   5.176  0.3192 -0.0635 -1.2026
17190TIP3    H172985   1.106   1.332   5.270  0.1784  1.0887 -1.0495
17190TIP3    H272986   1.166   1.266   5.147 -1.8159 -1.5799 -0.6640
17191TIP3   OH272987   1.194   3.224   2.636 -0.5242 -0.1139  0.0451
17191TIP3    H172988   1.221   3.298   2.582 -1.8998  0.2884 -0.1358
17191TIP3    H272989   1.098   3.228   2.636 -0.5949 -1.2336  0.9567
17192TIP3   OH272990   0.312   5.375   0.326 -0.2976 -0.0082  0.1531
17192TIP3    H172991   0.314   5.319   0.249  0.7385  0.7532 -0.3948
17192TIP3    H272992   0.284   5.461   0.293  0.9410  0.5367  0.4520
17193TIP3   OH272993   1.378   6.504   3.219 -0.1009  0.0980  0.0414
17193TIP3    H172994   1.283   6.498   3.214 -0.0056 -2.6111 -0.4258
17193TIP3    H272995   1.403   6.433   3.278  1.6839 -0.0295 -0.7949
17194TIP3   OH272996   6.663   4.689  15.193 -0.3555  0.0558 -0.4653
17194TIP3    H172997   6.678   4.709  15.101 -0.9879 -0.4549 -0.6916
17194TIP3    H272998   6.736   4.729  15.239  1.3366 -1.7784 -1.4280
17195TIP3   OH272999   4.305   5.131  11.303  0.2637  0.0634  0.4711
17195TIP3    H173000   4.290   5.193  11.231  1.5350 -0.1587 -0.0117
17195TIP3    H273001   4.350   5.183  11.369 -2.0066  0.5921  1.6799
17196TIP3   OH273002   2.309   0.926  14.394 -0.0469 -0.4966  0.1485
17196TIP3    H173003   2.319   0.973  14.311  1.5847 -1.9213 -0.5179
17196TIP3    H273004   2.315   0.833  14.371  1.5005 -0.9216  1.9461
17197TIP3   OH273005   6.474   4.529  13.667  0.5508 -0.0419 -0.3283
17197TIP3    H173006   6.512   4.442  13.653 -2.1875 -1.7786  1.9437
17197TIP3    H273007   6.426   4.547  13.586 -0.4404 -1.6073 -0.1229
17198TIP3   OH273008   4.236   2.068   3.196  0.4108  0.1713  0.2313
17198TIP3    H173009   4.230   2.026   3.110 -0.7340  1.5103 -0.3791
17198TIP3    H273010   4.185   2.149   3.187  0.7720  0.6356  1.9967
17199TIP3   OH273011   3.220   5.428  14.457 -0.1527  0.1999 -0.3957
17199TIP3    H173012   3.204   5.522  14.464  0.0239  0.1626  0.7415
17199TIP3    H273013   3.304   5.414  14.501  0.3102 -0.3718 -1.4077
17200TIP3   OH273014   4.975   1.880  12.243 -0.6253  0.0088 -0.2410
17200TIP3    H173015   4.913   1.846  12.178  0.5361 -1.7600 -0.4759
17200TIP3    H273016   4.987   1.808  12.305  0.1694  0.8138  0.5759
17201TIP3   OH273017   2.087   4.495   3.062  0.4051  0.4633 -0.0595
17201TIP3    H173018   2.133   4.510   2.979 -0.6355 -2.2581 -1.2467
17201TIP3    H273019   2.042   4.412   3.050 -0.8015  0.5705  2.8423
17202TIP3   OH273020   6.676   5.766   0.724  1.1304 -0.1152  0.0560
17202TIP3    H173021   6.620   5.819   0.668  0.1777 -0.1043  0.9950
17202TIP3    H273022   6.757   5.756   0.674  0.7108  0.8110 -0.8469
17203TIP3   OH273023   1.942   2.996   3.738 -0.0057  0.4748  0.6618
17203TIP3    H173024   1.900   2.910   3.730  0.7295  0.2439 -1.1114
17203TIP3    H273025   1.998   2.987   3.816  0.3918 -0.8106  0.2554
17204TIP3   OH273026   3.098   3.365  11.742  0.8235  0.6205  0.0334
17204TIP3    H173027   3.086   3.289  11.685  2.3453  0.5664 -0.2573
17204TIP3    H273028   3.161   3.420  11.695  0.9799  1.2831  1.0013
17205TIP3   OH273029   1.137   0.079  11.435  0.0435  0.1213  0.0429
17205TIP3    H173030   1.108   0.155  11.384 -1.3401  0.4527  1.2456
17205TIP3    H273031   1.152   0.114  11.523 -1.8327 -1.1666  0.9369
17206TIP3   OH273032   1.354   5.495  12.677 -0.2566 -0.6892  0.4304
17206TIP3    H173033   1.335   5.589  12.668 -1.0951 -0.9111 -0.1731
17206TIP3    H273034   1.440   5.493  12.718  0.4363  0.3730 -0.8531
17207TIP3   OH273035   3.198   1.826  12.065  0.5927 -0.2598 -0.4399
17207TIP3    H173036   3.127   1.781  12.019 -0.8369 -0.3955  1.7542
17207TIP3    H273037   3.225   1.765  12.133 -0.2658  1.4595  1.5594
17208TIP3   OH273038   5.410   2.184  11.245 -0.0326 -0.1374 -0.2999
17208TIP3    H173039   5.391   2.133  11.167  0.1344  0.1338 -0.5179
17208TIP3    H273040   5.364   2.138  11.316  1.1799 -1.3690 -0.2544
17209TIP3   OH273041   2.110   0.655  17.354  0.2731  0.4332  0.0626
17209TIP3    H173042   2.059   0.736  17.359  0.6549  0.8311 -1.7921
17209TIP3    H273043   2.201   0.684  17.361  0.3636 -0.0894  1.4966
17210TIP3   OH273044   6.710   4.007  14.659  0.2707  0.4809 -0.0590
17210TIP3    H173045   6.717   4.095  14.622  0.5117  0.0526 -1.0700
17210TIP3    H273046   6.616   3.993  14.670  0.1870  0.5688 -0.6334
17211TIP3   OH273047   6.584   4.986  16.728 -0.2532  0.0833  0.8045
17211TIP3    H173048   6.679   4.987  16.717  0.0519 -3.1779  2.0670
17211TIP3    H273049   6.550   4.980  16.638  0.6547  1.5381  0.3219
17212TIP3   OH273050   6.399   6.185   1.451  0.0082  0.1029 -0.3536
17212TIP3    H173051   6.452   6.217   1.524  0.1574  2.5911 -1.4733
17212TIP3    H273052   6.351   6.110   1.487  0.5780  0.8441  2.0998
17213TIP3   OH273053   3.502   6.636   2.355 -0.2183  0.1764 -0.0526
17213TIP3    H173054   3.487   6.577   2.428 -0.4217 -0.2191 -0.4110
17213TIP3    H273055   3.455   6.597   2.282  0.8343  0.0023 -0.6661
17214TIP3   OH273056   1.607   4.126   1.952 -0.2128  0.4044  0.1903
17214TIP3    H173057   1.581   4.212   1.920  0.4024  0.4336 -0.2472
17214TIP3    H273058   1.551   4.065   1.904  1.6971  0.3349 -2.1630
17215TIP3   OH273059   6.188   0.201   5.564 -0.4198  0.3247  0.3539
17215TIP3    H173060   6.149   0.280   5.601 -0.8882  0.3202 -0.1130
17215TIP3    H273061   6.281   0.221   5.556 -0.2206  0.1452  1.9722
17216TIP3   OH273062   3.178   6.578  14.980  0.4857 -0.0587 -0.1637
17216TIP3    H173063   3.137   6.507  14.930 -1.0731  1.5650 -1.3129
17216TIP3    H273064   3.127   6.585  15.060 -2.8712  3.0177 -2.2771
17217TIP3   OH273065   1.808   2.929  16.813 -0.2294 -0.7383 -0.3904
17217TIP3    H173066   1.836   2.856  16.869  0.8186  0.5442  0.8504
17217TIP3    H273067   1.890   2.963  16.776 -0.7634 -0.5658 -1.4274
17218TIP3   OH273068   0.384   6.671   5.669  0.4251 -0.3764 -0.4146
17218TIP3    H173069   0.289   6.658   5.663 -0.0517  1.0601  2.2159
17218TIP3    H273070   0.407   6.638   5.756  1.9154  1.2941 -0.1210
17219TIP3   OH273071   1.178   3.113   3.664  0.4690 -0.4451  0.2675
17219TIP3    H173072   1.097   3.069   3.636  0.8559 -1.3571  0.5287
17219TIP3    H273073   1.244   3.082   3.603  0.9008 -0.8093  0.9126
17220TIP3   OH273074   5.729   6.451  16.861  0.3418  0.1272  0.2319
17220TIP3    H173075   5.811   6.404  16.874  0.1852  0.3101  2.1324
17220TIP3    H273076   5.753   6.543  16.872  0.0248  0.2393 -0.0099
17221TIP3   OH273077   2.058   4.974  16.727  0.2142  0.3212  0.2642
17221TIP3    H173078   1.984   4.959  16.786  0.8190  0.5392  1.0896
17221TIP3    H273079   2.106   4.891  16.728 -0.6025 -0.1975 -1.1351
17222TIP3   OH273080   5.504   0.871  15.476 -0.0597  0.0958 -0.0761
17222TIP3    H173081   5.425   0.823  15.451  0.6661 -0.7912 -0.7864
17222TIP3    H273082   5.497   0.883  15.570 -1.5022  0.9225 -0.2613
17223TIP3   OH273083   1.377   5.049  10.453 -0.2639  0.4296 -0.0433
17223TIP3    H173084   1.361   5.008  10.537 -0.6358 -0.2917 -0.4588
17223TIP3    H273085   1.357   4.981  10.388  0.2182  0.9020 -0.7078
17224TIP3   OH273086   0.950   3.734   3.161  0.2050  0.5650 -0.1369
17224TIP3    H173087   1.016   3.785   3.208 -0.2359 -1.3364  2.8147
17224TIP3    H273088   0.997   3.656   3.131 -0.6511 -1.2899  2.8374
17225TIP3   OH273089   0.371   5.512   2.386 -0.2235 -0.2520  0.2816
17225TIP3    H173090   0.333   5.526   2.473 -0.5672  1.3590 -0.0793
17225TIP3    H273091   0.353   5.594   2.339  2.8404  0.2151 -0.2440
17226TIP3   OH273092   3.394   4.531  16.276  0.4115 -0.1518 -0.0043
17226TIP3    H173093   3.401   4.435  16.276  0.1263 -0.1848 -1.1391
17226TIP3    H273094   3.304   4.549  16.303  1.0493 -0.1097  2.3028
17227TIP3   OH273095   5.330   4.620   1.434 -0.0148  0.2284 -0.1210
17227TIP3    H173096   5.378   4.700   1.457  0.0311  0.0035  0.5767
17227TIP3    H273097   5.370   4.551   1.487  1.8998 -0.8962 -2.7937
17228TIP3   OH273098   5.178   2.480   6.107 -0.4207 -0.0909  0.6310
17228TIP3    H173099   5.233   2.551   6.075 -0.7308  0.1460  0.6200
17228TIP3    H273100   5.155   2.506   6.196 -0.2310 -0.3568  0.7581
17229TIP3   OH273101   3.337   6.289   2.946 -0.0965  0.1552  0.4612
17229TIP3    H173102   3.268   6.336   2.993 -0.1466  0.1796  0.3638
17229TIP3    H273103   3.345   6.206   2.993 -0.3003  0.0878  0.3797
17230TIP3   OH273104   4.315   1.611   5.582 -0.1236 -0.8143  0.0376
17230TIP3    H173105   4.391   1.669   5.583 -0.5193 -0.2176  2.4240
17230TIP3    H273106   4.341   1.536   5.636 -0.6134 -1.4846 -0.6422
17231TIP3   OH273107   1.195   1.338  11.140  0.3040  0.3449  0.0922
17231TIP3    H173108   1.172   1.346  11.047 -0.5574 -1.5078  0.0982
17231TIP3    H273109   1.276   1.286  11.140 -1.7214 -3.0604  0.4240
17232TIP3   OH273110   6.146   5.972   5.857 -0.0073 -0.7077 -0.3801
17232TIP3    H173111   6.167   6.064   5.839  0.9915 -0.7091  0.6859
17232TIP3    H273112   6.076   5.951   5.795 -2.1220  1.5387  1.0652
17233TIP3   OH273113   0.348   1.189  14.328  0.8649 -0.0159 -0.2464
17233TIP3    H173114   0.293   1.182  14.250 -1.1489 -1.6504  1.2146
17233TIP3    H273115   0.431   1.148  14.303  0.5727  0.2871 -1.7781
17234TIP3   OH273116   1.897   5.642   2.927 -0.5553 -0.3096 -0.2325
17234TIP3    H173117   1.870   5.559   2.889 -0.6602  0.1677 -1.2446
17234TIP3    H273118   1.827   5.666   2.987 -0.8542 -0.6116 -0.4625
17235TIP3   OH273119   5.601   2.038   3.202  0.4860 -0.4641  0.2265
17235TIP3    H173120   5.567   2.042   3.113 -1.5337  2.9821  0.9855
17235TIP3    H273121   5.662   2.112   3.208  1.3541 -1.2309  1.4577
17236TIP3   OH273122   0.805   0.498   5.602  0.4467 -0.3161  0.6215
17236TIP3    H173123   0.798   0.405   5.582  0.9436 -0.1132 -0.5378
17236TIP3    H273124   0.714   0.526   5.615  0.2582 -0.8595  0.5146
17237TIP3   OH273125   3.867   2.448   1.803  0.1730 -0.7622 -0.1968
17237TIP3    H173126   3.791   2.390   1.805  0.3072 -1.0471 -2.0496
17237TIP3    H273127   3.939   2.393   1.770  0.9170 -0.2031  0.4532
17238TIP3   OH273128   1.442   3.887  14.925  0.1179 -0.1840 -0.2132
17238TIP3    H173129   1.417   3.932  14.843 -1.3538 -0.0969  0.2536
17238TIP3    H273130   1.370   3.827  14.942  1.5283 -1.9642 -0.2102
17239TIP3   OH273131   6.703   0.311  12.573 -0.0998 -0.8453 -0.1957
17239TIP3    H173132   6.767   0.352  12.630 -1.7191  1.6163  0.0064
17239TIP3    H273133   6.754   0.254  12.515  1.7646 -2.0773  2.4992
17240TIP3   OH273134   5.329   2.085  12.292  0.3073 -0.2971 -0.2293
17240TIP3    H173135   5.279   2.167  12.290  1.9138  0.7163 -2.4155
17240TIP3    H273136   5.416   2.108  12.260  2.5509 -1.8679  3.9421
17241TIP3   OH273137   1.627   4.169   3.944 -0.5352 -0.3752  0.3790
17241TIP3    H173138   1.558   4.108   3.969 -1.5067 -0.4100 -2.1017
17241TIP3    H273139   1.637   4.227   4.019 -2.3479 -1.1812  1.2991
17242TIP3   OH273140   4.386   0.980   4.522  0.1319  0.1010  0.6589
17242TIP3    H173141   4.307   0.943   4.483 -0.8268  0.4605  2.2054
17242TIP3    H273142   4.451   0.975   4.452 -0.8287 -1.5618 -0.1774
17243TIP3   OH273143   3.441   6.162   4.410  0.2740 -0.0260  0.1667
17243TIP3    H173144   3.410   6.094   4.350  0.4281 -1.0766  1.2292
17243TIP3    H273145   3.453   6.116   4.494  0.9920  1.1811  0.7538
17244TIP3   OH273146   4.281   0.199   6.443 -0.2924  0.1206 -0.1733
17244TIP3    H173147   4.215   0.209   6.511 -0.4899 -1.3069 -0.1173
17244TIP3    H273148   4.338   0.128   6.475 -0.2997 -0.4713 -1.4097
17245TIP3   OH273149   4.484   4.929   0.372 -0.4058 -0.1019 -0.0637
17245TIP3    H173150   4.509   5.021   0.362 -0.3084 -0.3065 -2.2197
17245TIP3    H273151   4.420   4.914   0.303  1.1707 -2.1649 -1.2207
17246TIP3   OH273152   1.653   2.522  13.139  0.2896  0.5343  0.2763
17246TIP3    H173153   1.562   2.552  13.133  0.0143 -0.0038  1.4985
17246TIP3    H273154   1.700   2.574  13.073 -0.4282  2.6555  1.3499
17247TIP3   OH273155   2.384   0.152   3.235  0.6672 -0.2976 -0.1734
17247TIP3    H173156   2.305   0.204   3.249 -0.0265 -0.9922 -1.2998
17247TIP3    H273157   2.424   0.191   3.157  1.1085 -0.3241  0.0403
17248TIP3   OH273158   0.024   2.762  12.937 -0.0468  0.1334 -0.0742
17248TIP3    H173159  -0.032   2.805  12.872  0.3007  1.2796  0.3553
17248TIP3    H273160   0.075   2.699  12.887 -1.4834 -0.7228 -0.5299
17249TIP3   OH273161   2.786   0.061   2.603  0.0007 -0.5765 -0.5421
17249TIP3    H173162   2.736   0.102   2.532  2.6331 -0.2172 -2.3507
17249TIP3    H273163   2.845   0.130   2.634  1.2048 -1.6512 -0.3474
17250TIP3   OH273164   1.250   5.043   4.661 -0.2044 -0.2374 -0.3217
17250TIP3    H173165   1.174   5.000   4.622 -0.8027  0.6795 -0.2084
17250TIP3    H273166   1.262   4.999   4.746 -0.4579 -0.5479 -0.4460
17251TIP3   OH273167   1.848   4.555  12.794 -0.4666 -0.3773 -0.1919
17251TIP3    H173168   1.793   4.589  12.723  0.8491  1.2159 -0.5046
17251TIP3    H273169   1.809   4.592  12.873 -1.1168 -1.0383 -0.1901
17252TIP3   OH273170   0.589   1.918   3.689 -0.1991  0.3556  0.6664
17252TIP3    H173171   0.601   1.963   3.605  0.3053 -0.1971  0.4386
17252TIP3    H273172   0.496   1.927   3.708 -0.6738 -1.0778 -0.8373
17253TIP3   OH273173   3.723   6.044   3.514 -0.3996 -0.1241  0.4283
17253TIP3    H173174   3.673   6.074   3.438  1.0930  2.7855  0.4726
17253TIP3    H273175   3.791   5.988   3.476 -1.2658 -0.8822 -0.0521
17254TIP3   OH273176   3.726   0.016   1.792 -0.0754 -0.4700 -0.6789
17254TIP3    H173177   3.739  -0.050   1.859  2.9168  2.4970  2.0575
17254TIP3    H273178   3.656   0.072   1.827  0.6127  0.3748 -0.6330
17255TIP3   OH273179   1.882   2.555  16.507 -0.6689 -0.0632  0.4347
17255TIP3    H173180   1.871   2.522  16.418 -2.0592 -3.0971  1.5938
17255TIP3    H273181   1.806   2.613  16.520  0.2635  1.5102 -0.6967
17256TIP3   OH273182   1.585   1.968  16.367 -1.0479  0.2636  0.3780
17256TIP3    H173183   1.609   1.876  16.353  1.0849  1.1220 -2.8546
17256TIP3    H273184   1.491   1.971  16.353 -1.3295 -1.5405  1.5812
17257TIP3   OH273185   6.110   2.535   1.635  0.4961  0.0501 -0.1732
17257TIP3    H173186   6.188   2.480   1.629 -0.3479 -1.1995 -0.0859
17257TIP3    H273187   6.088   2.537   1.728 -0.0794 -0.3556 -0.2914
17258TIP3   OH273188   2.125   0.323  12.668  0.3432 -0.4261  0.1590
17258TIP3    H173189   2.083   0.343  12.752  0.0472 -0.7717  0.0936
17258TIP3    H273190   2.176   0.244  12.684  1.9385  0.6267  0.5556
17259TIP3   OH273191   2.564   1.959  11.699  0.2074 -0.2867  0.0548
17259TIP3    H173192   2.572   1.881  11.645 -1.3878 -0.6317  0.2618
17259TIP3    H273193   2.525   2.025  11.641 -1.9928 -0.8089  0.8193
17260TIP3   OH273194   0.034   4.097   5.277  0.1108 -0.2765  0.2936
17260TIP3    H173195  -0.038   4.106   5.339 -1.8389  2.4388 -2.0669
17260TIP3    H273196   0.012   4.019   5.227 -1.1399  0.3480 -0.1999
17261TIP3   OH273197   0.636   2.611   6.005  0.5898 -0.1278 -0.9267
17261TIP3    H173198   0.577   2.660   6.062  0.1632  0.9664 -2.2383
17261TIP3    H273199   0.585   2.597   5.925  1.6472 -0.3227 -1.5935
17262TIP3   OH273200   3.387   3.760   4.051  0.6675  0.1826 -0.3439
17262TIP3    H173201   3.356   3.847   4.073 -0.0395  0.6859 -2.9633
17262TIP3    H273202   3.483   3.767   4.056  0.6237  1.1509 -0.5782
17263TIP3   OH273203   5.923   4.049   3.517  0.1854 -0.4643  0.1223
17263TIP3    H173204   5.933   4.054   3.612 -1.4960 -1.1583  0.3655
17263TIP3    H273205   5.973   3.971   3.492 -0.2076 -0.8757  0.5906
17264TIP3   OH273206   5.917   5.170  16.313  0.5772 -0.2474 -0.5781
17264TIP3    H173207   5.847   5.113  16.347 -0.2132  2.1671  2.3011
17264TIP3    H273208   5.896   5.180  16.220 -2.0789 -0.7839 -0.1407
17265TIP3   OH273209   4.284   0.310  13.936 -0.1428 -0.4820  0.6426
17265TIP3    H173210   4.364   0.273  13.974  0.0642 -1.0974 -0.3522
17265TIP3    H273211   4.281   0.274  13.848 -0.7517  0.6953  0.1618
17266TIP3   OH273212   3.176   6.077   1.534 -0.6894  0.0016 -0.0173
17266TIP3    H173213   3.086   6.109   1.530 -1.5244 -2.2632 -0.8061
17266TIP3    H273214   3.217   6.128   1.603 -1.9755  2.4636 -0.9606
17267TIP3   OH273215   2.320   6.348  13.840 -0.5069 -0.3002  0.6577
17267TIP3    H173216   2.375   6.271  13.826 -2.9310 -1.8192 -1.2136
17267TIP3    H273217   2.382   6.421  13.844  1.6977 -2.0008 -0.3760
17268TIP3   OH273218   1.635   5.375  16.294  0.4399 -0.2010  0.2827
17268TIP3    H173219   1.578   5.404  16.223  1.6234 -0.1809 -0.6821
17268TIP3    H273220   1.636   5.449  16.355  1.5451  0.8914 -1.0022
17269TIP3   OH273221   2.249   6.256   4.131 -0.1727 -0.8856 -0.0390
17269TIP3    H173222   2.277   6.218   4.214  0.8006  0.5601  0.3240
17269TIP3    H273223   2.321   6.237   4.071  0.3288  0.3301  0.1484
17270TIP3   OH273224   4.564   0.547  12.450 -0.0778 -0.7539 -0.0978
17270TIP3    H173225   4.611   0.488  12.509  0.0137 -0.8245 -0.2438
17270TIP3    H273226   4.507   0.490  12.398  0.8673 -0.8422 -1.0567
17271TIP3   OH273227   5.477   6.205  15.217 -0.0085  0.2828 -0.1407
17271TIP3    H173228   5.446   6.296  15.215  0.4959  0.5138 -3.6884
17271TIP3    H273229   5.572   6.212  15.212  0.0594 -0.4329  0.1075
17272TIP3   OH273230   1.597   4.454  11.425  0.6293 -0.3540 -0.3244
17272TIP3    H173231   1.608   4.480  11.333 -2.4129  1.3647 -0.3380
17272TIP3    H273232   1.644   4.370  11.432  1.2978 -0.3398 -3.3187
17273TIP3   OH273233   4.866   4.909  14.369  0.6380 -0.4553 -0.2613
17273TIP3    H173234   4.905   4.825  14.393  2.3784  0.0907 -0.9919
17273TIP3    H273235   4.910   4.973  14.427 -0.9732 -0.0661  0.5940
17274TIP3   OH273236   6.291   1.491  16.609 -0.2152 -0.2700 -0.3029
17274TIP3    H173237   6.329   1.554  16.548 -2.0842  0.2921 -0.9622
17274TIP3    H273238   6.336   1.408  16.590  0.8668  0.4240 -0.8161
17275TIP3   OH273239   1.525   1.877  14.236 -0.1372  0.0307  0.3160
17275TIP3    H173240   1.511   1.855  14.144 -0.8796 -0.9927  0.6610
17275TIP3    H273241   1.521   1.973  14.239  0.6429  0.1150 -0.8237
17276TIP3   OH273242   0.550   3.716   2.704 -0.2286 -0.3403  0.9753
17276TIP3    H173243   0.498   3.771   2.763 -1.3268 -1.7840  1.4419
17276TIP3    H273244   0.633   3.702   2.750  0.0860  0.9425  0.8179
17277TIP3   OH273245   4.486   5.336   1.914 -0.2367 -0.0455  0.1022
17277TIP3    H173246   4.459   5.283   1.840 -0.2443 -0.5313  0.4455
17277TIP3    H273247   4.461   5.426   1.891  0.4482 -0.0768 -0.8019
17278TIP3   OH273248   1.858   4.890  15.732  0.0712  0.0033  0.3403
17278TIP3    H173249   1.817   4.961  15.684  0.3779 -0.0456  0.0024
17278TIP3    H273250   1.803   4.813  15.713 -0.1598  0.1106  0.5660
17279TIP3   OH273251   6.224   5.179  13.920 -0.2913 -0.5145  0.2363
17279TIP3    H173252   6.270   5.200  13.839 -0.1409  0.3688  0.5393
17279TIP3    H273253   6.164   5.253  13.933 -0.2983 -0.6330  0.9360
17280TIP3   OH273254   1.100   1.686  10.573  0.5506  0.1883 -0.5404
17280TIP3    H173255   1.108   1.688  10.669 -1.5635 -2.2231 -0.2105
17280TIP3    H273256   1.187   1.661  10.542  1.3469  1.2915  0.6953
17281TIP3   OH273257   0.839   2.514  15.001 -0.1023 -0.5426  0.5952
17281TIP3    H173258   0.829   2.461  14.923  2.1092 -0.8763  0.4753
17281TIP3    H273259   0.799   2.598  14.979 -2.2659 -1.5939  0.2537
17282TIP3   OH273260   1.420   4.439  12.884  0.6240  0.1654  0.4412
17282TIP3    H173261   1.405   4.483  12.800  0.9198  0.1300  0.3695
17282TIP3    H273262   1.347   4.468  12.939 -1.4804 -2.3492 -0.8068
17283TIP3   OH273263   2.819   6.353   4.879  0.1505 -0.0917 -0.1409
17283TIP3    H173264   2.729   6.329   4.903  0.2229  0.6173  0.8826
17283TIP3    H273265   2.809   6.404   4.799 -0.5575  1.5919  0.9738
17284TIP3   OH273266   5.023   3.174   5.022 -0.3816  0.0523  0.4912
17284TIP3    H173267   5.039   3.221   4.940 -1.3137 -0.5589 -0.0611
17284TIP3    H273268   5.098   3.115   5.030  0.6863  1.4190  1.0769
17285TIP3   OH273269   3.210   2.649  17.234 -0.7302 -0.2131  0.3186
17285TIP3    H173270   3.167   2.727  17.200  1.2038  0.7258 -0.1225
17285TIP3    H273271   3.173   2.577  17.183 -0.6656  0.7328 -1.1069
17286TIP3   OH273272   1.339   0.169   1.347  0.3355  0.4308 -0.2061
17286TIP3    H173273   1.290   0.236   1.395  0.6215 -0.1844  0.9997
17286TIP3    H273274   1.413   0.216   1.310  0.2192  0.8951  0.1399
17287TIP3   OH273275   3.840   6.686  12.776  0.5298  0.2472  0.0125
17287TIP3    H173276   3.929   6.688  12.741  0.5749 -0.0647  0.1125
17287TIP3    H273277   3.848   6.722  12.864  0.5025  0.5309 -0.1002
17288TIP3   OH273278   4.719   5.797  13.161  0.2422 -0.2505  0.7150
17288TIP3    H173279   4.779   5.804  13.235 -1.9662 -0.8493  2.6821
17288TIP3    H273280   4.710   5.703  13.146  1.7698 -0.1535 -1.3905
17289TIP3   OH273281   2.119   1.857   5.731 -0.4134 -0.0174 -0.1248
17289TIP3    H173282   2.197   1.805   5.715  0.2025  1.1122 -0.9669
17289TIP3    H273283   2.146   1.920   5.798 -1.6759 -1.8558  2.2506
17290TIP3   OH273284   5.800   4.616   0.348 -0.0194  0.0844  0.2405
17290TIP3    H173285   5.814   4.647   0.437  1.1782  1.3184 -0.3327
17290TIP3    H273286   5.720   4.565   0.352  1.2984 -2.0189  2.5311
17291TIP3   OH273287   2.255   6.703  15.175  1.0673 -0.6605  0.1395
17291TIP3    H173288   2.258   6.796  15.151  2.7985 -0.5778  0.5467
17291TIP3    H273289   2.198   6.700  15.251  0.5333 -0.0222 -0.2201
17292TIP3   OH273290   0.570   5.904  14.060 -0.1309 -0.8444 -0.1369
17292TIP3    H173291   0.636   5.863  14.004  0.7878 -0.7233  0.8150
17292TIP3    H273292   0.621   5.944  14.131 -1.1019  0.8155 -0.3386
17293TIP3   OH273293   6.455   2.239  13.698  0.1869  0.3047 -0.0823
17293TIP3    H173294   6.397   2.311  13.675  1.6659  0.7901 -2.7366
17293TIP3    H273295   6.421   2.164  13.650 -0.7004 -0.5576  1.7999
17294TIP3   OH273296   6.184   3.896   1.996 -0.2619 -0.0904 -0.6202
17294TIP3    H173297   6.193   3.924   1.904  1.7832 -1.5294 -0.9433
17294TIP3    H273298   6.223   3.967   2.046 -2.4250  1.2339 -0.7219
17295TIP3   OH273299   1.604   0.320   6.207 -0.2554 -1.2134 -0.1221
17295TIP3    H173300   1.555   0.367   6.275  0.4272 -0.6787  0.0163
17295TIP3    H273301   1.676   0.379   6.185 -0.5120 -1.3366 -1.3875
17296TIP3   OH273302   0.316   5.366   5.443 -0.2068 -0.2166 -0.7285
17296TIP3    H173303   0.227   5.333   5.456  0.7849 -1.8417  3.3802
17296TIP3    H273304   0.358   5.301   5.386 -0.3153 -2.2922  1.4308
17297TIP3   OH273305   5.337   0.355  14.813 -0.5505 -0.1650  1.0513
17297TIP3    H173306   5.374   0.443  14.821  0.5644 -0.5602  0.5843
17297TIP3    H273307   5.314   0.330  14.902 -2.0007  1.0361  1.0532
17298TIP3   OH273308   2.002   3.585   5.402 -0.0258 -0.0137  0.1237
17298TIP3    H173309   2.006   3.659   5.342 -0.4197 -0.5410 -0.5720
17298TIP3    H273310   1.957   3.516   5.352  1.6060 -1.2145  0.2151
17299TIP3   OH273311   4.779   0.625  14.580 -0.2773 -0.0025  0.5037
17299TIP3    H173312   4.838   0.609  14.654 -1.4355 -0.4394  1.3630
17299TIP3    H273313   4.741   0.539  14.560  0.5865 -0.0408 -1.1205
17300TIP3   OH273314   6.071   3.638  16.200  0.5160  0.3488  0.0585
17300TIP3    H173315   6.050   3.731  16.190 -2.0356 -0.3121 -1.4219
17300TIP3    H273316   6.110   3.613  16.116 -2.3603 -0.6955 -1.0766
17301TIP3   OH273317   2.534   0.495   5.763  0.6332  0.1272 -0.3661
17301TIP3    H173318   2.573   0.580   5.780  1.1377 -0.1299 -0.2414
17301TIP3    H273319   2.492   0.471   5.846  1.4544 -0.2560 -0.0592
17302TIP3   OH273320   6.610   4.398   2.254  0.3036  0.0987 -0.1559
17302TIP3    H173321   6.659   4.470   2.214 -0.1809 -0.2798 -1.4954
17302TIP3    H273322   6.618   4.326   2.191 -3.2865  0.5083 -1.3400
17303TIP3   OH273323   1.212   3.488   0.952 -0.1938 -0.1989 -0.4586
17303TIP3    H173324   1.224   3.499   1.047 -1.9606 -1.9818  0.0426
17303TIP3    H273325   1.298   3.507   0.915  0.4464  0.9224  1.4514
17304TIP3   OH273326   0.814   2.574  12.826  0.5914  0.1194 -0.3156
17304TIP3    H173327   0.719   2.558  12.820  0.4241  1.2575 -1.2089
17304TIP3    H273328   0.829   2.592  12.918 -0.0069 -0.4375 -0.1040
17305TIP3   OH273329   5.251   2.099  11.467 -0.0150  0.5276  0.2239
17305TIP3    H173330   5.179   2.162  11.469  1.3757  2.1692  0.2753
17305TIP3    H273331   5.221   2.030  11.407 -1.3712  1.4712 -0.2285
17306TIP3   OH273332   2.980   3.584   2.732  0.0771  0.2968 -0.0386
17306TIP3    H173333   2.927   3.608   2.808 -0.1815  2.2218 -0.7676
17306TIP3    H273334   3.056   3.642   2.737  0.3349  0.0561 -0.9422
17307TIP3   OH273335   3.708   4.828   0.187 -0.1387 -0.8363  0.4959
17307TIP3    H173336   3.662   4.909   0.167  1.5529  0.4962  1.6874
17307TIP3    H273337   3.706   4.822   0.283 -0.2291 -2.1922  0.4209
17308TIP3   OH273338   4.731   3.694  17.379 -0.4533 -0.4229  0.5296
17308TIP3    H173339   4.819   3.701  17.416 -1.3392  2.0672  2.5110
17308TIP3    H273340   4.745   3.682  17.285  1.9966  0.0431  0.7750
17309TIP3   OH273341   3.631   0.559  15.436  0.6651  0.1957  0.1619
17309TIP3    H173342   3.618   0.464  15.441  2.7591 -0.1566 -0.1132
17309TIP3    H273343   3.719   0.573  15.470  1.1644  1.7948 -1.5896
17310TIP3   OH273344   2.169   1.243  12.156 -0.1686 -0.0905  0.2137
17310TIP3    H173345   2.169   1.148  12.147 -0.6675 -0.1503  0.7679
17310TIP3    H273346   2.240   1.261  12.218 -0.3263 -0.1360  0.4090
17311TIP3   OH273347   4.734   4.343  12.578 -0.5102 -0.2840  0.0907
17311TIP3    H173348   4.714   4.266  12.524 -0.7909  0.6271 -1.1630
17311TIP3    H273349   4.712   4.417  12.522  3.0279  0.8021 -0.1152
17312TIP3   OH273350   4.055   5.353  14.341  0.5468 -0.2863 -0.2830
17312TIP3    H173351   4.046   5.418  14.272  0.1762 -1.2788 -1.1907
17312TIP3    H273352   3.977   5.298  14.333  1.0817 -1.1280  0.1588
17313TIP3   OH273353   4.733   6.267  13.956  0.2423 -0.0045  0.1994
17313TIP3    H173354   4.696   6.351  13.982 -1.7293 -0.5476 -0.6453
17313TIP3    H273355   4.781   6.286  13.876 -0.1654  0.3443  0.0283
17314TIP3   OH273356   3.967   1.671  16.677  0.3575 -0.1552 -0.2485
17314TIP3    H173357   3.971   1.593  16.621  0.1495 -0.1817 -0.2284
17314TIP3    H273358   4.045   1.721  16.654  1.1881 -0.9999  0.6648
17315TIP3   OH273359   2.310   1.778   0.694 -0.1308 -0.3994 -0.7128
17315TIP3    H173360   2.355   1.694   0.701  1.1944  0.1056 -2.4505
17315TIP3    H273361   2.335   1.825   0.773  2.2320 -0.2632 -1.4561
17316TIP3   OH273362   0.803   2.994   6.268 -0.1248 -0.2552  0.0493
17316TIP3    H173363   0.742   3.067   6.278  0.7812  0.5842 -0.4517
17316TIP3    H273364   0.787   2.961   6.180  0.2206  0.0330 -0.1209
17317TIP3   OH273365   3.400   4.832   2.932  0.0081  0.3797  0.4301
17317TIP3    H173366   3.415   4.791   3.017  1.5063 -0.5137 -0.2037
17317TIP3    H273367   3.422   4.763   2.869  1.2177  1.7189 -0.6842
17318TIP3   OH273368   3.338   6.372   0.814  0.1818 -0.0094  0.0543
17318TIP3    H173369   3.267   6.382   0.751 -1.1455  0.9507  1.6325
17318TIP3    H273370   3.325   6.284   0.850  1.4810 -0.9195 -1.5802
17319TIP3   OH273371   2.121   0.126   5.937  0.2656  0.0674  0.1237
17319TIP3    H173372   2.118   0.085   6.024  0.7981 -0.5401 -0.1381
17319TIP3    H273373   2.034   0.164   5.925 -0.4333 -1.4795  0.1482
17320TIP3   OH273374   5.231   3.076   1.912  0.2881 -0.1596  0.2064
17320TIP3    H173375   5.177   3.005   1.946 -0.3699 -0.2825 -1.0215
17320TIP3    H273376   5.187   3.156   1.943 -0.8920 -0.2493 -1.1330
17321TIP3   OH273377   5.370   4.519  13.645 -0.5327  0.0700  0.0005
17321TIP3    H173378   5.367   4.610  13.615  1.5909  0.3944  0.6352
17321TIP3    H273379   5.459   4.491  13.628 -0.9366 -1.6407  0.5637
17322TIP3   OH273380   0.364   6.146   0.584 -0.2883 -0.2282 -0.4030
17322TIP3    H173381   0.419   6.221   0.563 -1.3326  0.7056  0.1024
17322TIP3    H273382   0.319   6.170   0.665  0.6736 -2.1291  0.7729
17323TIP3   OH273383   3.959   1.840   4.437  0.2663 -0.5822  0.0722
17323TIP3    H173384   3.946   1.883   4.352  1.1004  0.7545  0.5973
17323TIP3    H273385   3.871   1.832   4.474  0.2080  3.3046  1.1886
17324TIP3   OH273386   5.588   2.442  16.599  0.7087  0.1079  0.1227
17324TIP3    H173387   5.571   2.379  16.669  1.8075 -1.8671 -1.3050
17324TIP3    H273388   5.682   2.439  16.586  0.7839  2.0140 -0.0874
17325TIP3   OH273389   6.634   5.589  14.334 -0.3067 -0.5251 -0.3274
17325TIP3    H173390   6.698   5.572  14.265  1.1051  0.2684  0.7299
17325TIP3    H273391   6.637   5.511  14.389 -1.2008 -1.0223 -0.9570
17326TIP3   OH273392   2.072   6.254  15.259  0.0299  0.0103 -0.1320
17326TIP3    H173393   2.019   6.201  15.319 -0.2595 -0.3500 -0.6986
17326TIP3    H273394   2.014   6.327  15.234  1.1537  1.9162  2.3929
17327TIP3   OH273395   5.887   2.868  15.831 -0.4696  0.1967  0.4110
17327TIP3    H173396   5.859   2.826  15.912  0.1176  0.9447  1.0203
17327TIP3    H273397   5.872   2.802  15.763 -1.1759 -0.3630  1.0903
17328TIP3   OH273398   5.138   5.022  13.982  0.3018 -0.0916  0.2919
17328TIP3    H173399   5.114   4.998  13.893 -0.4347 -1.4295  0.8187
17328TIP3    H273400   5.087   5.101  14.001 -0.4782 -0.5069 -0.0500
17329TIP3   OH273401   0.374   1.787   4.319 -0.0990 -0.7999  0.7243
17329TIP3    H173402   0.341   1.728   4.387 -0.6430 -0.1547  1.0305
17329TIP3    H273403   0.314   1.862   4.321 -1.6249 -1.8059 -2.1446
17330TIP3   OH273404   3.971   3.028   2.077  0.0648  0.0741 -0.0121
17330TIP3    H173405   4.016   2.953   2.117  1.9150  0.0525 -1.9664
17330TIP3    H273406   3.989   3.101   2.136 -2.0148 -0.9606  2.0888
17331TIP3   OH273407   3.137   3.298  15.306 -0.3928 -0.8602  0.6921
17331TIP3    H173408   3.048   3.280  15.334 -1.2986 -0.9784 -2.0042
17331TIP3    H273409   3.147   3.251  15.223  0.3410  3.0786 -1.7612
17332TIP3   OH273410   2.136   2.775   1.382 -0.2702  0.2749 -0.2873
17332TIP3    H173411   2.129   2.753   1.475  1.1696  2.1211  0.3263
17332TIP3    H273412   2.187   2.857   1.380 -1.7848  1.2818 -2.5908
17333TIP3   OH273413   6.608   1.643  11.425  0.1069  0.6622 -0.4292
17333TIP3    H173414   6.637   1.710  11.364  0.3492  0.9426 -0.0167
17333TIP3    H273415   6.676   1.642  11.493 -0.3306  0.5999  0.0128
17334TIP3   OH273416   4.843   2.203  14.028 -0.0641  0.1812 -0.0203
17334TIP3    H173417   4.797   2.280  14.062 -0.5753  0.1184 -0.5586
17334TIP3    H273418   4.922   2.238  13.987  1.5052  0.1254  2.7241
17335TIP3   OH273419   6.407   1.038   6.398  0.6464  0.2828 -0.3118
17335TIP3    H173420   6.454   1.073   6.474  2.3537  0.9611 -1.6270
17335TIP3    H273421   6.322   1.083   6.399 -0.3246 -1.3484  2.4103
17336TIP3   OH273422   4.483   6.476  12.933 -0.2221 -0.4674 -0.2920
17336TIP3    H173423   4.452   6.530  13.005  1.3120 -0.3398  0.3125
17336TIP3    H273424   4.565   6.437  12.965  1.9574  1.6424 -2.8004
17337TIP3   OH273425   5.430   5.917  11.926 -0.1770 -0.2087 -0.2323
17337TIP3    H173426   5.511   5.966  11.910 -0.9888  0.4459 -2.6983
17337TIP3    H273427   5.459   5.827  11.938  0.9476  0.0649 -0.7595
17338TIP3   OH273428   2.393   5.368   4.111 -0.1334  0.0941  0.3713
17338TIP3    H173429   2.315   5.398   4.064 -1.9276 -1.0619  2.3725
17338TIP3    H273430   2.415   5.442   4.169 -1.5773 -0.5512  1.8365
17339TIP3   OH273431   5.605   4.449   2.965  0.0385  0.3420  0.3068
17339TIP3    H173432   5.548   4.522   2.938 -0.5909  0.0090  0.7113
17339TIP3    H273433   5.564   4.415   3.044  0.0621 -0.7615 -0.1421
17340TIP3   OH273434   4.338   4.864   2.309 -0.2189 -0.0465 -0.3514
17340TIP3    H173435   4.256   4.819   2.291 -0.0288  0.3043 -2.2721
17340TIP3    H273436   4.319   4.918   2.386 -1.1808 -1.4273  0.4357
17341TIP3   OH273437   2.105   2.697   5.125 -0.2918 -0.1135  0.4532
17341TIP3    H173438   2.155   2.697   5.207 -0.5471 -2.2823  0.6721
17341TIP3    H273439   2.013   2.700   5.154 -0.3610  0.9905  0.1546
17342TIP3   OH273440   3.135   0.170   5.440 -0.1884 -0.1602  0.1150
17342TIP3    H173441   3.175   0.155   5.526 -1.2257 -2.5368  0.2621
17342TIP3    H273442   3.048   0.131   5.448  0.2599 -1.9253 -2.4739
17343TIP3   OH273443   3.676   6.430  11.780  0.2436  0.0248  0.0561
17343TIP3    H173444   3.694   6.520  11.752  0.8631 -0.1179 -0.0139
17343TIP3    H273445   3.666   6.381  11.698 -1.1094  0.2183  0.0874
17344TIP3   OH273446   0.512   6.467  16.308 -0.0381 -0.0248 -0.5973
17344TIP3    H173447   0.467   6.383  16.314 -0.1929 -0.3043 -3.9208
17344TIP3    H273448   0.604   6.444  16.301  0.0805  0.2080  0.1067
17345TIP3   OH273449   1.768   5.962  14.548  0.8109  0.2212 -0.1627
17345TIP3    H173450   1.861   5.943  14.559  0.7491 -1.0471 -1.6350
17345TIP3    H273451   1.724   5.878  14.555 -0.0684  0.5816 -1.0672
17346TIP3   OH273452   4.504   0.474   2.988  0.1140 -0.1441 -0.5281
17346TIP3    H173453   4.472   0.526   3.062  4.2619  3.1154 -0.6830
17346TIP3    H273454   4.471   0.520   2.911  0.5902 -0.0855 -0.6962
17347TIP3   OH273455   6.242   5.466  14.227  0.5610 -0.6970 -0.2259
17347TIP3    H173456   6.170   5.512  14.184 -0.6224 -2.3483 -0.1273
17347TIP3    H273457   6.206   5.380  14.249  1.9933 -0.9104  1.5562
17348TIP3   OH273458   4.508   1.659  15.953 -0.6948 -0.7020 -0.4573
17348TIP3    H173459   4.582   1.656  15.891  0.1574  0.4101  0.4703
17348TIP3    H273460   4.431   1.643  15.898 -0.0967  1.4934 -2.0627
17349TIP3   OH273461   3.280   3.337  16.134  0.9833 -0.5634  0.2727
17349TIP3    H173462   3.356   3.281  16.115  0.7875 -0.4783 -0.8146
17349TIP3    H273463   3.255   3.314  16.223  0.7056 -2.4547 -0.2472
17350TIP3   OH273464   5.743   6.042   1.332 -0.0708  0.4804  0.5520
17350TIP3    H173465   5.700   5.958   1.319  1.2744 -0.2972  0.9342
17350TIP3    H273466   5.808   6.047   1.262  0.1226  1.0324  0.7633
17351TIP3   OH273467   1.598   5.447   3.087  0.2268  0.3611 -0.0247
17351TIP3    H173468   1.576   5.525   3.137 -0.8918  1.2876 -1.8499
17351TIP3    H273469   1.517   5.422   3.044  0.6786 -1.5742  0.1782
17352TIP3   OH273470   5.055   4.228  10.659 -0.2144 -0.4975  0.2829
17352TIP3    H173471   5.052   4.140  10.621  1.1543  0.1040 -1.3945
17352TIP3    H273472   5.014   4.284  10.593 -1.8564  0.0616  1.7064
17353TIP3   OH273473   2.278   1.451  15.954  0.7920 -0.0136  0.3265
17353TIP3    H173474   2.356   1.505  15.968  0.0469  1.1707  0.0880
17353TIP3    H273475   2.248   1.428  16.042  0.2821  1.2444  0.5149
17354TIP3   OH273476   0.587   1.602  16.567  0.3769 -0.6776  0.2390
17354TIP3    H173477   0.510   1.656  16.550 -0.9133 -2.1695  1.0732
17354TIP3    H273478   0.581   1.580  16.660  2.4717  0.1072  0.6206
17355TIP3   OH273479   3.853   3.374  13.900  0.3577 -0.5953  0.3890
17355TIP3    H173480   3.901   3.450  13.936 -2.1267  0.8098  0.9555
17355TIP3    H273481   3.880   3.301  13.955 -0.3248  0.7376  2.6117
17356TIP3   OH273482   5.675   1.465  16.122 -0.1019 -0.1429 -0.3860
17356TIP3    H173483   5.679   1.406  16.198  0.6390  0.2702 -0.0871
17356TIP3    H273484   5.761   1.455  16.081 -0.0796  0.4989 -0.5034
17357TIP3   OH273485   1.458   4.144  11.937 -0.0450 -0.2254 -0.0039
17357TIP3    H173486   1.432   4.157  11.846  0.2434 -0.5667 -0.1392
17357TIP3    H273487   1.401   4.202  11.987 -0.0056  0.1903 -0.4282
17358TIP3   OH273488   1.783   4.912  15.421 -0.0898  0.0790 -0.0590
17358TIP3    H173489   1.789   4.867  15.337 -0.7918 -1.7957  0.8485
17358TIP3    H273490   1.737   4.851  15.478  0.3857  1.2972  1.7096
17359TIP3   OH273491   1.050   0.508   4.693  0.2037  0.8639 -0.3602
17359TIP3    H173492   1.100   0.590   4.696  0.0382  0.9246  1.7105
17359TIP3    H273493   1.114   0.440   4.715 -0.3011  0.7847  0.9037
17360TIP3   OH273494   0.380   3.611   5.532 -0.9711 -0.0484  0.2126
17360TIP3    H173495   0.343   3.533   5.490  0.3139 -0.7048  0.2363
17360TIP3    H273496   0.350   3.605   5.623 -1.1620 -0.3413  0.1344
17361TIP3   OH273497   0.844   5.007  12.865  0.4046  0.3819  0.0494
17361TIP3    H173498   0.760   5.003  12.818  0.8090  1.0026 -0.7636
17361TIP3    H273499   0.898   4.941  12.823  0.7312  0.8587 -0.2927
17362TIP3   OH273500   6.621   6.512   1.439  0.2672  0.1030 -0.6130
17362TIP3    H173501   6.533   6.538   1.464 -0.7936 -0.8310 -3.0673
17362TIP3    H273502   6.609   6.441   1.376  2.7405  0.4404 -1.6100
17363TIP3   OH273503   5.007   5.742  16.529  0.0946  0.1109  0.0697
17363TIP3    H173504   4.927   5.776  16.569 -1.0430 -0.8191 -1.2919
17363TIP3    H273505   5.076   5.800  16.561 -1.2672  1.5890  0.4852
17364TIP3   OH273506   4.162   3.124  16.721  0.1474 -0.8869  0.0385
17364TIP3    H173507   4.200   3.038  16.704 -1.6079 -1.4858 -1.0702
17364TIP3    H273508   4.203   3.182  16.657  1.5939 -0.7748  1.0150
17365TIP3   OH273509   1.990   3.151   2.686 -0.2916  0.3048  0.1238
17365TIP3    H173510   2.018   3.134   2.596 -0.0790  1.8639 -0.1281
17365TIP3    H273511   1.908   3.200   2.677 -0.2351  0.5328  0.7714
17366TIP3   OH273512   3.392   0.411  12.777  0.1197  0.2783 -0.0223
17366TIP3    H173513   3.423   0.412  12.867 -0.9846  0.6996  0.3681
17366TIP3    H273514   3.379   0.504  12.755  0.1933  0.1694 -0.5513
17367TIP3   OH273515   1.599   0.930   0.462 -0.2286 -0.0048  0.3160
17367TIP3    H173516   1.608   0.850   0.515 -0.0644  0.5783  1.1927
17367TIP3    H273517   1.684   0.974   0.471 -1.3126  1.8811  2.5703
17368TIP3   OH273518   3.157   6.288   2.738 -0.0537  0.2860  0.6549
17368TIP3    H173519   3.152   6.352   2.667  2.0813  0.7082  0.8405
17368TIP3    H273520   3.248   6.289   2.766 -0.5547 -0.8538  2.5201
17369TIP3   OH273521   3.969   4.964  12.265  0.1606  0.0956  0.4778
17369TIP3    H173522   4.023   5.035  12.300  0.7159 -0.0172 -0.1187
17369TIP3    H273523   3.995   4.887  12.315  0.5083  0.0562  0.2404
17370TIP3   OH273524   1.057   3.050   4.834  0.8251  0.1918 -0.0157
17370TIP3    H173525   1.105   3.027   4.913 -0.0358  0.5770  0.6300
17370TIP3    H273526   1.068   3.145   4.826 -0.6873  0.4538  0.7360
17371TIP3   OH273527   5.323   2.265   6.001 -0.3636  0.4680  0.7352
17371TIP3    H173528   5.280   2.350   6.014 -0.3938  0.4603  0.6852
17371TIP3    H273529   5.268   2.203   6.049 -0.6448  0.3922  0.3240
17372TIP3   OH273530   2.277   4.874   3.581  0.1210  0.3682  0.2833
17372TIP3    H173531   2.253   4.831   3.499 -3.0795 -0.4627  1.5095
17372TIP3    H273532   2.305   4.803   3.638  1.6041  0.8537  0.2047
17373TIP3   OH273533   3.403   0.721  15.413 -0.5356 -0.1531  0.4141
17373TIP3    H173534   3.337   0.686  15.353 -1.0030  1.0610  0.1931
17373TIP3    H273535   3.465   0.649  15.424 -1.5435 -1.0975  0.1195
17374TIP3   OH273536   1.416   6.334  14.496  0.2081 -1.0147 -0.1271
17374TIP3    H173537   1.462   6.250  14.496 -0.0489 -1.1616 -0.6396
17374TIP3    H273538   1.340   6.319  14.553  0.0658 -1.1843 -0.3620
17375TIP3   OH273539   2.108   0.470   3.498 -0.2515  0.7279  0.7316
17375TIP3    H173540   2.021   0.481   3.460 -0.2534  1.9288  1.0322
17375TIP3    H273541   2.092   0.451   3.590 -0.2100 -0.3227  0.5306
17376TIP3   OH273542   2.026   4.912  13.953 -0.1269 -0.3415 -0.5874
17376TIP3    H173543   2.033   4.941  13.862  1.6735 -2.4007 -1.2060
17376TIP3    H273544   2.047   4.989  14.005  0.6760  0.4229 -1.9933
17377TIP3   OH273545   0.975   3.717   5.838  0.1357 -0.2705  0.2439
17377TIP3    H173546   0.986   3.623   5.851 -1.4076 -0.3997  0.9394
17377TIP3    H273547   1.001   3.756   5.921 -1.3580 -0.3120  0.7647
17378TIP3   OH273548   5.972   3.703  11.819 -0.0998  0.1190  0.2608
17378TIP3    H173549   5.920   3.770  11.862 -1.5103 -0.6775 -0.1458
17378TIP3    H273550   5.913   3.663  11.756  1.4266  0.1065 -1.2309
17379TIP3   OH273551   2.639   1.339   3.769 -0.6014 -0.3909 -0.2200
17379TIP3    H173552   2.673   1.382   3.847 -0.3633 -2.5365  0.9394
17379TIP3    H273553   2.717   1.306   3.724 -0.7199  0.9830 -1.5323
17380TIP3   OH273554   2.150   6.009  17.021 -0.0954  0.3216  0.4391
17380TIP3    H173555   2.103   6.056  17.090 -0.5965  0.9885 -0.3312
17380TIP3    H273556   2.214   5.955  17.067 -3.2549 -2.6349  1.7876
17381TIP3   OH273557   2.273   3.913  15.466  0.4004 -0.5564 -0.0848
17381TIP3    H173558   2.291   3.983  15.404  0.5083 -0.3102  0.2205
17381TIP3    H273559   2.359   3.885  15.497  0.4692 -1.9499 -1.4136
17382TIP3   OH273560   6.300   4.632   4.506  0.7222  0.2540  0.7410
17382TIP3    H173561   6.296   4.725   4.482 -1.4683  0.2364  0.8758
17382TIP3    H273562   6.210   4.608   4.524  1.2294 -1.9567  0.5952
17383TIP3   OH273563   3.865   1.038  15.043  0.6474  0.2711 -0.6633
17383TIP3    H173564   3.898   1.057  14.955  0.2774  0.4242 -0.7729
17383TIP3    H273565   3.769   1.037  15.032  0.4291  2.9408  0.2325
17384TIP3   OH273566   6.442   3.473  12.299  0.1154  0.2014 -0.1364
17384TIP3    H173567   6.377   3.456  12.231 -0.5295  1.5965  0.0922
17384TIP3    H273568   6.425   3.563  12.327  3.1065  1.1986 -1.1134
17385TIP3   OH273569   5.923   4.284   3.385  0.4797  0.2911  0.5160
17385TIP3    H173570   5.963   4.210   3.430  0.6116 -0.5764 -0.9506
17385TIP3    H273571   5.965   4.285   3.299 -2.1305 -0.2189 -0.8650
17386TIP3   OH273572   2.352   4.207   4.720 -0.4109 -0.0254 -0.0039
17386TIP3    H173573   2.330   4.298   4.697 -0.7287 -0.1143 -0.0418
17386TIP3    H273574   2.352   4.160   4.637 -2.8222 -0.6288  0.2761
17387TIP3   OH273575   3.612   4.723  14.054  0.1147  0.7087 -0.4189
17387TIP3    H173576   3.540   4.663  14.034  0.6109  0.2596 -0.8747
17387TIP3    H273577   3.691   4.675  14.030  0.6676  0.6836  1.3263
17388TIP3   OH273578   5.884   2.699   2.352 -0.0329  0.0907  0.0380
17388TIP3    H173579   5.943   2.705   2.277  0.4469 -0.8230  0.3274
17388TIP3    H273580   5.938   2.721   2.428  0.0799 -1.1832  0.3549
17389TIP3   OH273581   0.655   4.510  16.468 -0.3922  0.3508 -0.1836
17389TIP3    H173582   0.634   4.442  16.404 -0.2891 -1.6156  1.7440
17389TIP3    H273583   0.745   4.535  16.447 -0.1089 -0.7759 -0.3935
17390TIP3   OH273584   1.605   3.639   2.322  0.1110  0.2619  0.1807
17390TIP3    H173585   1.568   3.608   2.404 -0.5773 -2.8449 -1.1613
17390TIP3    H273586   1.531   3.643   2.262  1.2296 -2.6365 -1.6113
17391TIP3   OH273587   5.701   3.623   4.231 -0.3567  0.5535  0.4474
17391TIP3    H173588   5.655   3.593   4.309 -1.6783  1.5731  0.0932
17391TIP3    H273589   5.794   3.610   4.251 -0.7052  0.2250  1.9340
17392TIP3   OH273590   6.224   5.714   2.238 -0.4729 -0.1240  0.1030
17392TIP3    H173591   6.135   5.707   2.205 -0.7316  0.9653  0.5214
17392TIP3    H273592   6.274   5.753   2.166 -0.6149  0.4168  0.2875
17393TIP3   OH273593   3.894   2.252  10.916  0.3763 -0.0138  0.2145
17393TIP3    H173594   3.818   2.233  10.862  0.1012 -0.0334  0.6037
17393TIP3    H273595   3.895   2.182  10.981  0.2091  0.4788  0.7553
17394TIP3   OH273596   3.270   2.262  15.779 -0.1586  0.6049 -0.3863
17394TIP3    H173597   3.205   2.273  15.710 -1.0473 -0.6149  0.2301
17394TIP3    H273598   3.307   2.175  15.764 -1.0401 -0.0842  1.2006
17395TIP3   OH273599   2.337   5.794  14.650  0.0209 -0.3595 -0.5057
17395TIP3    H173600   2.311   5.769  14.562  2.3290  1.3998 -1.7923
17395TIP3    H273601   2.396   5.724  14.679 -0.2943 -0.6555 -0.5723
17396TIP3   OH273602   5.726   6.525   5.248 -0.1879  0.1876  0.7781
17396TIP3    H173603   5.821   6.523   5.244 -0.2189 -0.7292  0.3542
17396TIP3    H273604   5.700   6.435   5.266 -1.0374  0.0784 -0.7728
17397TIP3   OH273605   2.433   4.443  14.767 -0.5060 -0.2153 -0.4509
17397TIP3    H173606   2.438   4.377  14.697  0.2156 -1.9282  1.1382
17397TIP3    H273607   2.505   4.420  14.826  0.0493  2.2861 -0.0215
17398TIP3   OH273608   0.756   0.772   0.542 -0.0991  0.2360  0.5183
17398TIP3    H173609   0.762   0.868   0.547 -0.7919  0.2732  0.6991
17398TIP3    H273610   0.713   0.755   0.459 -0.6664  0.1146  0.8325
17399TIP3   OH273611   5.777   5.707  11.921 -0.2975 -0.1696 -0.0174
17399TIP3    H173612   5.731   5.698  11.837  1.2931  0.0244 -0.9520
17399TIP3    H273613   5.851   5.764  11.902 -0.6349  0.9951  1.8636
17400TIP3   OH273614   6.051   5.631   5.782 -0.0606 -0.3057 -0.3982
17400TIP3    H173615   6.042   5.647   5.876 -1.7925  0.7435 -0.7084
17400TIP3    H273616   5.976   5.577   5.759 -0.8248  1.1739 -1.5225
17401TIP3   OH273617   3.272   3.525  15.222  0.0825 -0.1260  0.1316
17401TIP3    H173618   3.234   3.444  15.254 -0.4692 -0.3379 -1.0220
17401TIP3    H273619   3.220   3.594  15.264 -1.1991 -0.4080 -0.9315
17402TIP3   OH273620   2.961   3.757   2.406 -0.2181 -0.2616 -0.0649
17402TIP3    H173621   3.020   3.684   2.425 -1.3266 -1.0475  0.4277
17402TIP3    H273622   2.896   3.720   2.347 -0.7784  0.3395  0.1737
17403TIP3   OH273623   0.927   1.837  11.446 -0.0134 -0.0662 -0.2557
17403TIP3    H173624   0.915   1.887  11.527 -2.6248  1.5425 -1.4885
17403TIP3    H273625   0.953   1.750  11.474  0.8529  0.9100  2.1930
17404TIP3   OH273626   6.107   4.762   1.095  0.8289  0.6554  0.2523
17404TIP3    H173627   6.032   4.788   1.148 -0.5877  2.0045 -2.2421
17404TIP3    H273628   6.080   4.679   1.055  0.7224  1.0604 -0.5239
17405TIP3   OH273629   4.646   2.486  14.981 -0.2540  0.0312  0.4995
17405TIP3    H173630   4.732   2.523  14.962  0.7290 -0.5929  3.2323
17405TIP3    H273631   4.591   2.561  15.001 -0.9915  0.5983 -3.0318
17406TIP3   OH273632   3.937   2.044   1.215 -0.6373  0.0519  0.5986
17406TIP3    H173633   3.857   2.066   1.262 -0.5668 -1.4572  1.5040
17406TIP3    H273634   3.934   1.949   1.206  0.7004  0.0464 -0.0035
17407TIP3   OH273635   4.551   2.991   4.992  0.0390  0.0819  0.5313
17407TIP3    H173636   4.497   2.914   4.978  0.8829 -0.3755 -0.2760
17407TIP3    H273637   4.538   3.046   4.915  0.9005 -0.1523  0.1997
17408TIP3   OH273638   6.198   4.382  16.150  0.4857 -0.0206 -0.6796
17408TIP3    H173639   6.252   4.305  16.166 -0.6520 -1.0752 -1.7495
17408TIP3    H273640   6.260   4.447  16.115  1.1833 -1.0272 -1.3896
17409TIP3   OH273641   4.849   6.487   3.397 -0.1254 -0.4799  0.3171
17409TIP3    H173642   4.943   6.487   3.380 -0.1774 -0.0272  0.0092
17409TIP3    H273643   4.830   6.576   3.426 -0.5433 -0.4286 -0.1073
17410TIP3   OH273644   4.165   4.025   2.145 -0.4448  0.5241  0.3448
17410TIP3    H173645   4.166   4.009   2.051 -0.1142  1.4752  0.1769
17410TIP3    H273646   4.147   3.939   2.184 -2.0537  0.3893 -0.6373
17411TIP3   OH273647   2.097   4.084  12.051 -0.3348 -0.3600  0.2264
17411TIP3    H173648   2.122   3.995  12.027 -0.1688 -0.0847 -0.6488
17411TIP3    H273649   2.002   4.085  12.044 -0.2782 -0.2393 -0.6042
17412TIP3   OH273650   4.206   4.834   3.615  0.4657 -0.3136  0.1033
17412TIP3    H173651   4.228   4.923   3.589 -1.0817  0.7330  2.1507
17412TIP3    H273652   4.115   4.838   3.642  0.9483 -2.0252  2.2369
17413TIP3   OH273653   5.940   0.571  17.084 -0.1125 -0.1654  0.7811
17413TIP3    H173654   5.861   0.539  17.041 -0.0127 -0.7960  1.0501
17413TIP3    H273655   5.917   0.575  17.177  0.3485 -0.9320  0.9391
17414TIP3   OH273656   5.968   2.073   6.697 -0.3844 -0.2619  0.4009
17414TIP3    H173657   5.909   2.010   6.655 -1.7198 -0.2750  2.1503
17414TIP3    H273658   6.032   2.096   6.629 -2.0770 -0.6678 -1.4365
17415TIP3   OH273659   3.155   4.643  13.439 -0.3557  0.7713  0.1212
17415TIP3    H173660   3.173   4.557  13.477 -0.0809  1.7128  2.2342
17415TIP3    H273661   3.229   4.658  13.380 -0.5272 -0.5175 -0.4709
17416TIP3   OH273662   0.585   3.672  12.251 -0.2766  0.0069  0.0252
17416TIP3    H173663   0.638   3.633  12.320 -0.9539  0.6984  0.9600
17416TIP3    H273664   0.590   3.766  12.266 -0.3141  0.1870 -0.9750
17417TIP3   OH273665   5.530   3.848   4.899 -0.1413  0.1927 -0.1629
17417TIP3    H173666   5.491   3.895   4.825  0.7039  2.0695  0.5394
17417TIP3    H273667   5.483   3.880   4.976 -0.0188 -0.6576  0.2794
17418TIP3   OH273668   1.152   6.160   2.102 -0.5157 -0.0454 -0.4212
17418TIP3    H173669   1.057   6.158   2.086 -0.4542  1.0259 -1.0645
17418TIP3    H273670   1.183   6.073   2.080 -1.4062 -0.5231  0.1626
17419TIP3   OH273671   1.436   6.185   1.293  0.0608  0.0451 -0.3273
17419TIP3    H173672   1.359   6.185   1.235 -0.2692 -1.5524  0.0663
17419TIP3    H273673   1.459   6.093   1.303  2.7683  0.5126 -1.3381
17420TIP3   OH273674   3.439   3.500   2.792 -0.3965  0.4386 -0.3001
17420TIP3    H173675   3.493   3.430   2.827  0.5487  1.4240  0.3061
17420TIP3    H273676   3.429   3.561   2.865  1.2734  2.3362 -1.5208
17421TIP3   OH273677   3.308   5.840  13.992  0.3828 -0.2757 -0.2603
17421TIP3    H173678   3.319   5.788  13.912  0.8930 -0.0077 -0.3665
17421TIP3    H273679   3.385   5.820  14.044  0.7319  0.6070 -0.4303
17422TIP3   OH273680   6.496   1.252  12.414 -0.0859 -0.2953 -0.2947
17422TIP3    H173681   6.563   1.255  12.346  1.1038  0.4981  0.8719
17422TIP3    H273682   6.413   1.243  12.366  0.7230  0.1911 -1.8345
17423TIP3   OH273683   5.339   5.964  11.362 -0.0693  0.5562  0.3105
17423TIP3    H173684   5.399   5.948  11.289  0.3031  0.3735  0.6552
17423TIP3    H273685   5.342   6.059  11.376 -0.4808  0.6488 -0.1971
17424TIP3   OH273686   1.903   4.094   0.081  0.3073  0.0493  0.4422
17424TIP3    H173687   1.918   4.118  -0.010  1.5830 -0.6278  0.4484
17424TIP3    H273688   1.987   4.060   0.112 -0.7605 -2.2960  1.0685
17425TIP3   OH273689   4.357   2.760   5.015 -0.4734  0.2093  0.4314
17425TIP3    H173690   4.418   2.685   5.009 -1.6320 -0.7073 -0.3569
17425TIP3    H273691   4.341   2.770   5.108  1.0884  0.6458  0.6775
17426TIP3   OH273692   3.185   4.416   4.154 -0.8365 -0.7522 -0.0864
17426TIP3    H173693   3.203   4.502   4.116 -0.0492  0.1112  2.0890
17426TIP3    H273694   3.117   4.379   4.098  0.0495  0.5205 -2.1258
17427TIP3   OH273695   0.498   6.540   5.900  0.4769  0.2687 -0.2281
17427TIP3    H173696   0.434   6.514   5.966  0.9402 -0.5843 -0.0995
17427TIP3    H273697   0.581   6.547   5.948  0.4271  1.7830 -0.3068
17428TIP3   OH273698   0.120   2.465   2.093  0.4510 -0.1030 -0.3672
17428TIP3    H173699   0.168   2.487   2.172  1.6215 -0.8235 -0.8573
17428TIP3    H273700   0.165   2.389   2.057  0.6611  0.8773 -2.3362
17429TIP3   OH273701   6.547   2.068  17.363  0.1876  0.2827  0.4824
17429TIP3    H173702   6.615   2.034  17.305  0.9427  0.9599  0.9506
17429TIP3    H273703   6.503   2.135  17.311 -1.9620 -1.9702 -0.8037
17430TIP3   OH273704   1.575   2.905  17.259  0.5155 -0.0354 -0.3341
17430TIP3    H173705   1.638   2.842  17.295 -0.9850 -3.2803 -2.8474
17430TIP3    H273706   1.510   2.915  17.328  1.8257  0.4426  0.8803
17431TIP3   OH273707   6.544   1.582  14.889  0.1231 -0.0501 -0.3835
17431TIP3    H173708   6.510   1.656  14.940  0.1198 -1.1436  1.2696
17431TIP3    H273709   6.625   1.615  14.850 -0.2328  1.0352 -0.2287
17432TIP3   OH273710   6.607   0.913   0.888  0.1570 -0.0293  0.0182
17432TIP3    H173711   6.594   0.839   0.948 -0.1556  1.0575  1.3280
17432TIP3    H273712   6.525   0.963   0.894 -0.7993 -1.0049 -2.9819
17433TIP3   OH273713   3.680   0.782  10.848 -0.2391  0.5560  0.3009
17433TIP3    H173714   3.626   0.861  10.856 -0.5570  0.2466  1.3836
17433TIP3    H273715   3.618   0.713  10.824  0.0839  0.6760 -0.9414
17434TIP3   OH273716   4.257   4.960   0.556 -0.2609 -0.7780  0.8218
17434TIP3    H173717   4.229   4.882   0.604 -1.6747 -1.1383 -0.4955
17434TIP3    H273718   4.309   4.926   0.483 -2.0041 -0.6684 -0.5408
17435TIP3   OH273719   5.863   5.049  15.679  0.5448 -0.0614  0.6584
17435TIP3    H173720   5.836   5.122  15.623 -1.5442 -1.6995 -0.6301
17435TIP3    H273721   5.866   5.087  15.768 -1.3558  1.4052  0.1695
17436TIP3   OH273722   5.892   4.149  14.457 -0.0859 -0.4426  0.3339
17436TIP3    H173723   5.923   4.157  14.547  0.6292  1.3362 -0.0202
17436TIP3    H273724   5.804   4.113  14.465  0.0243 -0.4735  1.7246
17437TIP3   OH273725   0.532   2.201   0.742 -0.4377 -0.2100  0.0703
17437TIP3    H173726   0.516   2.280   0.793  1.4067  0.6552 -0.5890
17437TIP3    H273727   0.554   2.134   0.807  1.2369  0.7119  0.5177
17438TIP3   OH273728   6.343   5.823  12.407  0.5103  0.8811  0.0891
17438TIP3    H173729   6.435   5.798  12.409 -0.1745 -1.9166  0.0013
17438TIP3    H273730   6.314   5.802  12.318 -0.6417 -0.1226  0.6702
17439TIP3   OH273731   1.569   4.441   0.393 -0.0923 -1.0919  0.5138
17439TIP3    H173732   1.548   4.365   0.339 -0.8889 -1.7527  1.7027
17439TIP3    H273733   1.503   4.440   0.462 -0.1148  0.6763  0.5842
17440TIP3   OH273734   5.389   5.130  16.180 -0.5174  0.1375  0.2022
17440TIP3    H173735   5.392   5.035  16.194  0.3651  0.2819  1.0914
17440TIP3    H273736   5.457   5.147  16.115 -0.3020  0.2224  0.4490
17441TIP3   OH273737   2.445   5.345   4.993  0.5399 -0.1017 -0.3620
17441TIP3    H173738   2.540   5.355   4.981  0.3506 -0.5860 -2.8129
17441TIP3    H273739   2.436   5.270   5.052  1.6960 -0.8277 -1.0706
17442TIP3   OH273740   0.112   3.360  17.481  0.0740  0.7177  0.6073
17442TIP3    H173741   0.110   3.339  17.575 -1.6066  0.6344  0.5901
17442TIP3    H273742   0.099   3.276  17.437 -0.0438  0.8754  0.3368
17443TIP3   OH273743   0.628   0.926   3.586  0.0971 -0.2242  0.0611
17443TIP3    H173744   0.572   0.949   3.661  1.4475 -0.0040  1.0407
17443TIP3    H273745   0.568   0.922   3.512 -1.6665 -2.5314  1.4832
17444TIP3   OH273746   1.138   5.051   2.105  0.0436 -0.1349  0.0740
17444TIP3    H173747   1.177   5.086   2.186 -0.9294 -0.7064  0.8103
17444TIP3    H273748   1.045   5.071   2.113  0.0132  0.2694 -1.1711
17445TIP3   OH273749   6.690   0.296  17.475 -0.5046  0.1865 -0.2663
17445TIP3    H173750   6.655   0.274  17.561 -0.3073 -1.8358 -0.6644
17445TIP3    H273751   6.670   0.389  17.464 -1.3790  0.2471  1.5488
17446TIP3   OH273752   3.012   5.486   0.328 -0.0691  0.6072  0.1404
17446TIP3    H173753   2.993   5.393   0.319 -1.9788  0.9577 -0.0558
17446TIP3    H273754   3.075   5.491   0.400  0.3911 -0.8477 -0.1225
17447TIP3   OH273755   3.345   2.383  17.311 -0.2421  0.2220 -0.3713
17447TIP3    H173756   3.296   2.316  17.262 -0.6086  0.3052 -0.1246
17447TIP3    H273757   3.282   2.453  17.325 -0.1304  0.2148  0.1857
17448TIP3   OH273758   3.692   3.836  16.925  0.3102  0.7312  0.0759
17448TIP3    H173759   3.761   3.893  16.959  0.0800 -0.5949  3.0187
17448TIP3    H273760   3.614   3.860  16.974 -0.7253  0.3897 -1.3246
17449TIP3   OH273761   6.609   5.829  11.830  0.0525  1.0713  0.0471
17449TIP3    H173762   6.652   5.747  11.853  1.2163  1.7125  0.2495
17449TIP3    H273763   6.552   5.806  11.756  0.2757  0.0658  0.1699
17450TIP3   OH273764   0.908   6.081   6.039  0.4056 -0.2289 -0.0807
17450TIP3    H173765   0.910   6.002   6.093 -0.0460 -0.7166 -0.7674
17450TIP3    H273766   1.000   6.102   6.023  0.5243 -0.8145 -0.1796
17451TIP3   OH273767   0.068   4.504  11.791  0.6806  0.0896 -0.7158
17451TIP3    H173768   0.048   4.549  11.873 -1.7607 -1.0366 -0.6015
17451TIP3    H273769   0.084   4.574  11.728  0.8202  0.9971  0.3000
17452TIP3   OH273770   3.738   4.598   1.126 -0.2711  0.1769  0.1414
17452TIP3    H173771   3.689   4.605   1.208 -1.8398  0.6576 -0.7845
17452TIP3    H273772   3.830   4.596   1.153 -0.7882 -1.3925  1.9859
17453TIP3   OH273773   1.642   2.351   1.473  0.1750  0.0703 -0.0565
17453TIP3    H173774   1.575   2.389   1.416  1.9091 -0.0603 -2.2764
17453TIP3    H273775   1.696   2.425   1.500 -1.5984  0.4284  2.9836
17454TIP3   OH273776   1.854   1.364  15.877 -0.2087  0.2138 -0.1200
17454TIP3    H173777   1.884   1.316  15.800  0.9795  1.2303 -0.3193
17454TIP3    H273778   1.774   1.409  15.847  0.5761  1.0886 -0.9734
17455TIP3   OH273779   3.126   1.667   2.292  0.1129 -0.0935  0.6131
17455TIP3    H173780   3.145   1.695   2.381  0.4299  2.1205 -0.0756
17455TIP3    H273781   3.040   1.704   2.272 -0.6078 -1.7590  0.4249
17456TIP3   OH273782   3.590   2.717  13.833  0.4985  0.2565 -0.1351
17456TIP3    H173783   3.598   2.637  13.885  0.2554 -0.2672 -0.8867
17456TIP3    H273784   3.601   2.689  13.742  0.9010  1.1545 -0.3795
17457TIP3   OH273785   0.226   0.791   0.382 -0.1113  1.0191  0.2301
17457TIP3    H173786   0.270   0.713   0.347 -1.2736 -0.1348  1.2343
17457TIP3    H273787   0.296   0.855   0.394  1.6082 -1.1316  2.8705
17458TIP3   OH273788   0.362   4.843   1.831  0.5535  0.0366 -0.6041
17458TIP3    H173789   0.346   4.750   1.814 -0.0592  0.1594 -0.7192
17458TIP3    H273790   0.281   4.886   1.805 -0.8447  0.2061  3.3560
17459TIP3   OH273791   6.654   3.259   3.030  0.4557  0.2720  0.4475
17459TIP3    H173792   6.672   3.330   2.968  1.8104  0.7719  1.3826
17459TIP3    H273793   6.655   3.180   2.976 -1.9098  0.9754 -0.7610
17460TIP3   OH273794   3.329   5.975   3.312  0.6693  0.6225  0.0510
17460TIP3    H173795   3.287   5.914   3.373 -0.0096  0.9785 -0.0586
17460TIP3    H273796   3.413   5.995   3.354  0.0315  1.2002  1.0989
17461TIP3   OH273797   4.571   0.915  15.454 -0.1123 -0.2642 -0.7502
17461TIP3    H173798   4.569   0.880  15.543 -0.2912  0.8213 -0.3186
17461TIP3    H273799   4.483   0.947  15.438  0.0061 -0.1567 -1.2018
17462TIP3   OH273800   3.781   2.737  11.110  0.4251  0.2898  0.7208
17462TIP3    H173801   3.729   2.684  11.049  0.8422  0.6249  0.0600
17462TIP3    H273802   3.872   2.724  11.081  0.5184  1.5680  0.3746
17463TIP3   OH273803   0.720   4.086  11.910 -0.3892 -0.2444 -0.1933
17463TIP3    H173804   0.759   4.173  11.902  0.9519 -0.8476 -0.5946
17463TIP3    H273805   0.637   4.101  11.954 -1.1538  1.4786 -2.0813
17464TIP3   OH273806   5.162   1.299  14.148  0.1482  0.0924 -0.0170
17464TIP3    H173807   5.137   1.388  14.172 -0.3931 -0.3340  1.0959
17464TIP3    H273808   5.122   1.285  14.062 -1.0812  0.4057  0.4856
17465TIP3   OH273809   4.561   5.341   1.280  0.0806  0.7681  0.2506
17465TIP3    H173810   4.473   5.374   1.295 -0.8446  0.0396 -2.7973
17465TIP3    H273811   4.567   5.261   1.332 -1.1428  0.7000  0.3084
17466TIP3   OH273812   1.315   5.646  14.606  0.8859 -0.2408 -0.1291
17466TIP3    H173813   1.278   5.574  14.555  0.2458 -0.5261  0.6990
17466TIP3    H273814   1.337   5.606  14.691 -0.1172  0.6715  0.5883
17467TIP3   OH273815   4.931   6.022  14.369 -0.4507 -0.4199  0.0876
17467TIP3    H173816   4.876   6.079  14.423  1.8129  1.8132  0.1874
17467TIP3    H273817   4.931   6.063  14.283 -1.0068 -1.8883 -0.6552
17468TIP3   OH273818   4.427   0.555   0.933 -0.3894  0.4343  0.1831
17468TIP3    H173819   4.371   0.494   0.981  0.1133 -1.4316 -1.4549
17468TIP3    H273820   4.369   0.629   0.913 -2.2716 -1.2593 -1.1399
17469TIP3   OH273821   0.158   4.004  11.377 -0.1247  0.7812  0.1473
17469TIP3    H173822   0.100   3.978  11.305 -0.5199 -1.3851  1.1719
17469TIP3    H273823   0.124   4.089  11.405 -0.9545  0.9137 -1.1635
17470TIP3   OH273824   4.069   2.534  16.889 -0.1991  0.5469 -0.5741
17470TIP3    H173825   4.021   2.571  16.815  0.7057 -0.8894 -1.9283
17470TIP3    H273826   4.001   2.502  16.948 -0.9974  3.5199  0.2960
17471TIP3   OH273827   4.649   3.736  10.581  0.2885  0.2291  0.1780
17471TIP3    H173828   4.611   3.758  10.667  1.8160  0.4340  0.8292
17471TIP3    H273829   4.674   3.821  10.544 -0.8838  0.1966 -0.7567
17472TIP3   OH273830   3.181   4.100  17.059  0.3812 -0.3278 -0.2340
17472TIP3    H173831   3.231   4.164  17.110 -0.7316  1.9041 -1.7797
17472TIP3    H273832   3.090   4.122  17.076 -0.0280 -0.9324 -1.5238
17473TIP3   OH273833   1.722   5.736   3.116 -0.2251  0.4612 -0.1688
17473TIP3    H173834   1.675   5.688   3.185  1.1636  1.4581  1.5746
17473TIP3    H273835   1.670   5.816   3.104  0.5343  1.2170  1.2241
17474TIP3   OH273836   0.906   6.362   1.835  0.9233  0.2792 -0.3525
17474TIP3    H173837   0.892   6.452   1.865  0.4424  0.8118 -2.0741
17474TIP3    H273838   0.895   6.309   1.914 -1.3322  1.5104  0.2482
17475TIP3   OH273839   2.461   2.173  15.738  0.3668 -0.1191  0.2389
17475TIP3    H173840   2.470   2.149  15.830  2.0689  0.7481  0.3454
17475TIP3    H273841   2.547   2.153  15.699  0.0471  0.5948 -0.8835
17476TIP3   OH273842   0.515   2.018  14.252 -0.1570 -0.2781 -0.2758
17476TIP3    H173843   0.562   2.083  14.200 -0.0112  0.8715  1.2270
17476TIP3    H273844   0.568   2.007  14.331 -1.4154 -0.4086  0.5860
17477TIP3   OH273845   6.131   0.950   6.169 -0.3633  0.2172  0.7000
17477TIP3    H173846   6.060   0.990   6.119  0.0709 -0.7267 -0.7561
17477TIP3    H273847   6.210   0.995   6.139 -0.0193 -0.8325 -0.0324
17478TIP3   OH273848   1.177   5.351  14.709  0.2889  0.3733 -0.2808
17478TIP3    H173849   1.122   5.377  14.783  0.9344  0.9258  0.0151
17478TIP3    H273850   1.123   5.368  14.632  0.1224  1.1208 -0.0026
17479TIP3   OH273851   4.563   1.633  16.585 -0.1780 -0.3218  0.1093
17479TIP3    H173852   4.585   1.726  16.571  0.3837 -0.6832 -1.6773
17479TIP3    H273853   4.646   1.593  16.611  0.0762 -0.6914 -1.2227
17480TIP3   OH273854   5.719   3.191   5.480  0.7740  0.2869 -0.3357
17480TIP3    H173855   5.636   3.159   5.445 -0.0422  1.1963  0.6925
17480TIP3    H273856   5.708   3.187   5.575  0.6303  3.4484 -0.1088
17481TIP3   OH273857   5.437   0.791  12.435 -0.5432  0.5490  0.0780
17481TIP3    H173858   5.447   0.848  12.359  0.6182 -0.6257 -0.7026
17481TIP3    H273859   5.396   0.712  12.401  1.6881 -0.7453  0.2265
17482TIP3   OH273860   6.689   5.927   0.309  1.0625  0.6606 -0.9322
17482TIP3    H173861   6.782   5.946   0.297  1.2902  0.4265  0.3032
17482TIP3    H273862   6.687   5.863   0.381 -0.1545  2.2829  0.5529
17483TIP3   OH273863   6.232   0.267   1.591 -0.0875  0.0930  0.5784
17483TIP3    H173864   6.214   0.215   1.669 -1.0606  0.1995  0.4368
17483TIP3    H273865   6.228   0.357   1.621 -1.6646  0.1750  0.1845
17484TIP3   OH273866   6.150   3.669  11.060 -0.6133  1.1215  0.5489
17484TIP3    H173867   6.181   3.670  11.150  1.0840 -0.3278  0.0309
17484TIP3    H273868   6.227   3.688  11.007 -1.7326  2.7604 -0.6145
17485TIP3   OH273869   5.168   5.587   5.647  0.1908 -0.2429 -0.0992
17485TIP3    H173870   5.075   5.578   5.666 -0.2333 -1.3171 -2.3100
17485TIP3    H273871   5.181   5.682   5.639 -1.4918 -0.1109 -2.7407
17486TIP3   OH273872   6.671   3.414   2.823 -0.1074 -0.2407 -0.2108
17486TIP3    H173873   6.667   3.390   2.730  2.6386 -1.3941 -0.1178
17486TIP3    H273874   6.751   3.465   2.832  0.8623 -1.9697  1.8557
17487TIP3   OH273875   3.043   3.220  10.962 -0.0914  0.1107  0.2998
17487TIP3    H173876   2.967   3.163  10.956 -1.5305  2.0605 -1.4758
17487TIP3    H273877   3.007   3.309  10.969  1.9947  1.0708 -0.0725
17488TIP3   OH273878   6.597   5.823   4.244  0.5706  1.0127 -0.0628
17488TIP3    H173879   6.622   5.777   4.163  0.3208 -1.0806  0.9727
17488TIP3    H273880   6.547   5.899   4.214  1.2204  0.7674 -1.8900
17489TIP3   OH273881   2.360   0.314   4.454  0.2266 -0.3793 -0.2020
17489TIP3    H173882   2.330   0.256   4.384 -1.2031 -0.7525  0.6636
17489TIP3    H273883   2.438   0.357   4.419 -0.7891 -0.0835 -2.2509
17490TIP3   OH273884   4.092   2.761  15.987  0.0614 -0.1927 -0.6345
17490TIP3    H173885   4.139   2.839  16.018 -0.8418  0.2051 -0.2199
17490TIP3    H273886   4.079   2.708  16.065 -2.8618  1.1527 -0.0817
17491TIP3   OH273887   1.080   0.179   4.106  0.7237  0.3152 -0.2938
17491TIP3    H173888   1.062   0.257   4.054  0.1849  0.8411  0.6555
17491TIP3    H273889   1.052   0.106   4.050  3.3387  0.5776 -2.1338
17492TIP3   OH273890   1.485   2.550   3.570  0.1127  0.6340  0.0899
17492TIP3    H173891   1.501   2.474   3.626 -0.9967  0.3392  0.0361
17492TIP3    H273892   1.417   2.521   3.509 -1.5242  2.1415  1.0894
17493TIP3   OH273893   1.762   6.596  12.271  0.1596 -0.1520  0.1537
17493TIP3    H173894   1.797   6.548  12.196  1.6622 -1.9054  1.8617
17493TIP3    H273895   1.672   6.617  12.246  0.2537 -1.6298 -1.6916
17494TIP3   OH273896   5.069   4.711   3.438 -0.2474 -0.3945 -0.3590
17494TIP3    H173897   5.095   4.729   3.528 -0.9391  0.9340 -0.3950
17494TIP3    H273898   4.982   4.750   3.430  0.3054  0.6412 -1.9297
17495TIP3   OH273899   0.552   6.296   1.518  0.1448 -0.0057  0.6911
17495TIP3    H173900   0.534   6.306   1.612  0.4932  4.5539  0.4953
17495TIP3    H273901   0.647   6.305   1.511  0.0817  0.0741 -0.1107
17496TIP3   OH273902   5.234   3.034   4.199  0.3743 -0.3264  0.1864
17496TIP3    H173903   5.226   2.947   4.237  0.1994 -0.1804  0.4840
17496TIP3    H273904   5.316   3.069   4.235  1.2098 -0.9254 -1.0630
17497TIP3   OH273905   3.908   5.623  13.180 -0.1987  0.2159  0.3085
17497TIP3    H173906   3.950   5.709  13.178  0.2236  0.0289  0.8909
17497TIP3    H273907   3.815   5.642  13.193 -0.1579  0.5932  0.0628
17498TIP3   OH273908   1.023   5.276   6.284 -0.1612 -0.3531  0.0983
17498TIP3    H173909   1.045   5.244   6.371 -0.0869 -0.7902 -0.0811
17498TIP3    H273910   0.933   5.310   6.293  0.1008  0.2422  0.5099
17499TIP3   OH273911   2.029   3.004  13.586 -0.3132  0.5380 -0.2305
17499TIP3    H173912   2.068   3.082  13.626  1.4415 -1.2944  1.8763
17499TIP3    H273913   2.091   2.978  13.518  0.1800 -0.1504  0.4658
17500TIP3   OH273914   2.927   1.246  11.388 -0.7803 -0.1865 -0.6635
17500TIP3    H173915   2.978   1.312  11.341 -0.9555 -0.4979 -1.3100
17500TIP3    H273916   2.871   1.207  11.321 -1.5137 -0.1893 -0.0586
17501TIP3   OH273917   4.478   6.656  17.310 -0.1339  0.4050  0.2288
17501TIP3    H173918   4.455   6.748  17.322  0.0223  0.2014  2.3816
17501TIP3    H273919   4.403   6.607  17.344 -0.0405 -0.2825 -0.5187
17502TIP3   OH273920   5.774   6.354   5.579  0.2340  0.1717  0.0289
17502TIP3    H173921   5.867   6.335   5.591 -0.1025 -0.9127  1.1097
17502TIP3    H273922   5.759   6.338   5.486  1.0995  0.2559 -0.1392
17503TIP3   OH273923   4.685   4.356  10.531  0.0581 -0.2219  0.2603
17503TIP3    H173924   4.627   4.364  10.606 -0.9105  3.1689 -0.6736
17503TIP3    H273925   4.630   4.318  10.462 -0.1545  0.1180  0.2400
17504TIP3   OH273926   3.638   5.957  10.677  1.0564 -0.4007 -0.3207
17504TIP3    H173927   3.551   5.954  10.637  1.0750 -1.2543 -0.3169
17504TIP3    H273928   3.654   5.868  10.706  0.6594  0.3541  2.4912
17505TIP3   OH273929   6.216   2.131  10.940 -0.1592  0.4543 -0.1463
17505TIP3    H173930   6.180   2.043  10.952 -0.6653  0.5479 -0.9041
17505TIP3    H273931   6.141   2.184  10.912 -0.1461  1.4222  1.5188
17506TIP3   OH273932   1.074   2.692  13.886  0.2081  0.3264  0.2927
17506TIP3    H173933   1.137   2.691  13.814 -0.2143  2.2568 -0.1813
17506TIP3    H273934   1.119   2.738  13.957  0.1713 -0.4499  0.8307
17507TIP3   OH273935   1.149   5.386   4.832 -0.4028 -0.5049 -0.2731
17507TIP3    H173936   1.095   5.311   4.806 -1.7583  0.5556 -0.5948
17507TIP3    H273937   1.239   5.359   4.811 -0.7381 -2.4262  0.5826
17508TIP3   OH273938   0.555   0.123   5.181  0.2671  0.5520 -0.2744
17508TIP3    H173939   0.523   0.079   5.260 -3.1762  1.2159 -1.1787
17508TIP3    H273940   0.638   0.163   5.209 -0.8238  0.8185  3.0484
17509TIP3   OH273941   1.542   3.547  10.817  0.2508  0.2948 -0.8225
17509TIP3    H173942   1.589   3.578  10.895 -0.7735  0.2316 -0.1674
17509TIP3    H273943   1.605   3.557  10.746  0.2270  3.2790 -0.5622
17510TIP3   OH273944   3.454   6.603  13.257 -0.2881 -0.0086  1.0846
17510TIP3    H173945   3.490   6.524  13.298  0.0172 -0.3730  0.1269
17510TIP3    H273946   3.377   6.624  13.310 -0.7696 -1.3466  0.9319
17511TIP3   OH273947   1.980   6.169   1.217  0.2366 -0.8544 -0.3822
17511TIP3    H173948   1.961   6.111   1.143 -1.3042 -1.2455  0.2852
17511TIP3    H273949   2.010   6.110   1.286  0.9224 -0.5780 -0.4372
17512TIP3   OH273950   5.425   2.456  11.279  0.1785  0.2063  0.3097
17512TIP3    H173951   5.502   2.499  11.241  0.2666  0.4081  0.7146
17512TIP3    H273952   5.430   2.366  11.249  0.6652  0.1792  0.4700
17513TIP3   OH273953   4.968   0.032  15.022  0.2443 -0.4818  0.3605
17513TIP3    H173954   5.021   0.058  14.947 -0.4702 -0.9147 -0.3098
17513TIP3    H273955   4.911  -0.037  14.989 -0.4978 -0.2751  1.1540
17514TIP3   OH273956   2.861   4.369  14.522 -0.0622 -0.1496  0.0034
17514TIP3    H173957   2.806   4.296  14.495 -0.4320  0.3028 -0.4737
17514TIP3    H273958   2.828   4.393  14.609 -1.3050  0.7702 -0.6903
17515TIP3   OH273959   0.928   3.473   6.549  0.3331 -0.4948  0.4325
17515TIP3    H173960   0.933   3.434   6.636 -1.0817 -1.3024  0.1916
17515TIP3    H273961   0.840   3.450   6.517 -0.0100  1.6320 -0.3505
17516TIP3   OH273962   0.210   0.840  11.914  0.1520 -0.0684  0.0846
17516TIP3    H173963   0.214   0.763  11.972  1.0504 -0.7476 -0.8333
17516TIP3    H273964   0.283   0.827  11.853 -0.2306  1.0789 -0.6391
17517TIP3   OH273965   0.771   5.351  16.911 -0.5146 -0.1756 -0.6111
17517TIP3    H173966   0.867   5.350  16.918 -0.5940  1.3859  1.9334
17517TIP3    H273967   0.743   5.273  16.959 -0.5315  0.1830 -0.0249
17518TIP3   OH273968   5.643   5.310  16.495  0.4974 -0.6285 -0.3471
17518TIP3    H173969   5.585   5.286  16.422  1.7200 -0.3930 -1.4343
17518TIP3    H273970   5.609   5.394  16.525  1.0561  0.1900 -1.8774
17519TIP3   OH273971   6.728   2.118  17.116  0.0945  0.1382 -0.0799
17519TIP3    H173972   6.819   2.143  17.133  0.7574 -0.4945 -2.3357
17519TIP3    H273973   6.680   2.201  17.116  0.2610  0.3145  2.9790
17520TIP3   OH273974   3.128   0.501   2.377 -0.1028  0.1743 -0.6085
17520TIP3    H173975   3.137   0.537   2.465 -0.1056 -1.4518  0.0923
17520TIP3    H273976   3.034   0.490   2.365 -0.0793  0.0395 -0.6647
17521TIP3   OH273977   1.176   1.375  17.069  0.2632 -0.8210 -0.4828
17521TIP3    H173978   1.156   1.318  17.143 -0.9672  0.1409 -0.0384
17521TIP3    H273979   1.183   1.315  16.994 -4.0102 -1.4435 -0.6538
17522TIP3   OH273980   5.185   2.006  15.696  0.9315 -0.0409  0.0135
17522TIP3    H173981   5.182   1.912  15.718 -1.0604 -0.1960 -0.6717
17522TIP3    H273982   5.229   2.046  15.771 -0.6976 -1.2092  1.7077
17523TIP3   OH273983   1.862   1.120   4.671  0.2098 -0.1338 -0.2761
17523TIP3    H173984   1.803   1.195   4.670 -1.1963 -1.1904 -1.8226
17523TIP3    H273985   1.818   1.054   4.724  0.9392 -0.2355  0.2122
17524TIP3   OH273986   2.328   5.771   0.585 -0.2453 -0.0845  0.4277
17524TIP3    H173987   2.419   5.777   0.617 -0.0182 -1.4572  0.1143
17524TIP3    H273988   2.320   5.681   0.555 -0.7518  0.8400 -2.5072
17525TIP3   OH273989   1.339   2.721  12.385  0.0866 -0.1038 -0.6515
17525TIP3    H173990   1.286   2.682  12.316  0.2727 -1.1872 -0.2064
17525TIP3    H273991   1.276   2.761  12.444 -0.2121 -0.8592 -0.4445
17526TIP3   OH273992   2.964   2.953   5.077 -0.0253 -0.2956  0.3912
17526TIP3    H173993   2.962   2.991   5.165  1.4609  1.8741 -0.3915
17526TIP3    H273994   3.055   2.924   5.066  0.9677  2.9724 -1.6209
17527TIP3   OH273995   6.218   3.701   1.289 -0.3352  0.2001  0.5492
17527TIP3    H173996   6.140   3.652   1.263 -0.3814  0.4280  0.2640
17527TIP3    H273997   6.195   3.793   1.275 -0.0751  0.2779  0.6221
17528TIP3   OH273998   0.249   5.275  14.510  0.1932  0.2363 -0.2810
17528TIP3    H173999   0.329   5.320  14.483 -0.0434  1.1018  0.4251
17528TIP3    H274000   0.179   5.322  14.464 -0.3329  2.4081  2.4273
17529TIP3   OH274001   1.802   6.499  13.488  0.1761 -0.8767 -0.7415
17529TIP3    H174002   1.734   6.434  13.501 -0.7999  0.5831  2.6319
17529TIP3    H274003   1.883   6.456  13.514  0.0896 -1.7118 -1.8205
17530TIP3   OH274004   2.299   2.251  14.369  0.4698 -0.3911 -0.6693
17530TIP3    H174005   2.218   2.240  14.318 -0.4269  0.2868  0.5673
17530TIP3    H274006   2.271   2.244  14.460  1.8587 -0.3611 -0.2219
17531TIP3   OH274007   4.022   3.345   0.935 -0.0682  0.2454  0.0194
17531TIP3    H174008   4.090   3.402   0.971  0.2306 -0.1404  0.0667
17531TIP3    H274009   4.064   3.301   0.861  0.0398 -0.7467  0.6673
17532TIP3   OH274010   0.813   4.215  11.160  0.6889 -0.0209  0.6985
17532TIP3    H174011   0.772   4.131  11.140 -1.8923  1.4012 -0.5595
17532TIP3    H274012   0.863   4.199  11.240  0.4706 -2.7778  0.3686
17533TIP3   OH274013   5.612   4.466  16.866  0.2093 -0.3443 -0.1665
17533TIP3    H174014   5.673   4.530  16.900 -0.5873 -0.3723  1.4135
17533TIP3    H274015   5.663   4.385  16.861  0.8157  0.0677 -0.7445
17534TIP3   OH274016   4.326   0.570  11.501  0.6799  0.0792  0.0831
17534TIP3    H174017   4.342   0.616  11.419 -1.3526  0.9574  0.1188
17534TIP3    H274018   4.291   0.485  11.474 -1.1324  0.8096 -0.0293
17535TIP3   OH274019   2.448   2.815  12.940 -0.0026 -0.0439  0.1574
17535TIP3    H174020   2.524   2.855  12.980 -0.0560 -0.4083  0.6364
17535TIP3    H274021   2.471   2.806  12.848  0.1576  0.7169  0.1221
17536TIP3   OH274022   1.658   4.933   5.134 -0.3459  0.4931  0.1525
17536TIP3    H174023   1.580   4.877   5.131  0.6882 -0.9746 -0.3668
17536TIP3    H274024   1.715   4.891   5.198  0.5229  0.8442 -0.3708
17537TIP3   OH274025   6.567   0.492  12.465 -0.4601 -0.2496  0.2476
17537TIP3    H174026   6.620   0.438  12.524  1.1195  1.6564  0.6792
17537TIP3    H274027   6.593   0.464  12.377  2.1281  1.2666  0.4150
17538TIP3   OH274028   2.449   6.130   3.979  0.0856  0.2267  0.2889
17538TIP3    H174029   2.509   6.202   3.999 -0.8287  0.4873  2.4529
17538TIP3    H274030   2.483   6.055   4.027  0.6762 -0.6688 -1.4453
17539TIP3   OH274031   5.481   1.834  13.670  0.2597 -0.3609  0.1538
17539TIP3    H174032   5.550   1.900  13.663  0.5955 -0.7186  0.0202
17539TIP3    H274033   5.465   1.826  13.764 -0.1624  0.2962  0.1403
17540TIP3   OH274034   1.047   5.480  16.159  0.5301 -0.3917  0.4873
17540TIP3    H174035   1.069   5.398  16.114 -0.3485 -0.6518  0.5245
17540TIP3    H274036   0.971   5.458  16.213 -0.6667  0.8149 -0.6458
17541TIP3   OH274037   1.823   6.180   3.264  0.0926 -0.7265 -0.0492
17541TIP3    H174038   1.862   6.267   3.269 -1.6167  0.0895 -0.0806
17541TIP3    H274039   1.837   6.142   3.351 -0.6009  0.2532  0.5097
17542TIP3   OH274040   6.228   4.571  14.517 -0.3918 -0.6319 -0.0584
17542TIP3    H174041   6.171   4.647  14.511  0.4317  0.0498  0.5188
17542TIP3    H274042   6.207   4.531  14.602 -1.9332 -1.9890 -1.0240
17543TIP3   OH274043   5.562   5.060  15.818  0.4267 -0.2789 -0.7904
17543TIP3    H174044   5.636   5.062  15.757  0.7440 -1.8744 -0.5092
17543TIP3    H274045   5.554   5.150  15.849  2.5440 -0.1521 -0.4916
17544TIP3   OH274046   3.405   4.023  11.436 -0.9641  0.5436  0.0075
17544TIP3    H174047   3.459   4.088  11.481  0.7121 -1.4719  1.0672
17544TIP3    H274048   3.443   4.016  11.349 -0.6815  0.4725  0.1352
17545TIP3   OH274049   6.679   4.847  13.409  0.3727 -0.3967  0.5638
17545TIP3    H174050   6.739   4.921  13.417  0.1666 -0.2291  0.5839
17545TIP3    H274051   6.735   4.770  13.414  0.7228 -0.2335 -0.5729
17546TIP3   OH274052   3.473   3.377  15.056  0.0589  0.5474 -0.1006
17546TIP3    H174053   3.504   3.385  14.966 -0.1033  1.1228 -0.1056
17546TIP3    H274054   3.379   3.366  15.048  0.1039  0.0972 -0.0236
17547TIP3   OH274055   6.133   1.701  11.519  0.1729 -0.3734 -0.7695
17547TIP3    H174056   6.178   1.691  11.435  0.2724 -0.2338 -0.7350
17547TIP3    H274057   6.055   1.753  11.499  2.7252  4.2706 -0.0524
17548TIP3   OH274058   1.122   3.155   0.542  0.3408  0.6581 -0.0118
17548TIP3    H174059   1.116   3.205   0.623  1.5658  0.4387  0.2345
17548TIP3    H274060   1.060   3.084   0.553  0.6884  0.4778  0.8514
17549TIP3   OH274061   4.944   4.021   2.556 -0.0434  0.1214  0.2072
17549TIP3    H174062   4.894   4.089   2.601  0.3618  1.1738 -0.8747
17549TIP3    H274063   5.034   4.053   2.557  0.0694 -0.1341 -0.7818
17550TIP3   OH274064   5.278   5.222  11.775 -0.0927  0.4614  1.2730
17550TIP3    H174065   5.228   5.283  11.720 -1.6690 -1.5344  0.3544
17550TIP3    H274066   5.214   5.191  11.840  0.9576  0.5355  2.3719
17551TIP3   OH274067   2.485   6.412   4.341 -0.2995 -0.5816 -0.0915
17551TIP3    H174068   2.502   6.378   4.254 -0.5900  0.6965 -0.6714
17551TIP3    H274069   2.391   6.428   4.343 -0.0532  1.0989 -0.2164
17552TIP3   OH274070   4.395   5.242   3.117  0.0539  0.5800 -0.0651
17552TIP3    H174071   4.423   5.151   3.130 -1.6538  0.1201  0.7220
17552TIP3    H274072   4.464   5.294   3.158  1.5923 -0.2821 -1.4583
17553TIP3   OH274073   6.128   4.486   2.099  0.4307  0.1954  0.4688
17553TIP3    H174074   6.062   4.510   2.034  0.5299  0.8489  0.6001
17553TIP3    H274075   6.093   4.518   2.182  0.0989 -1.0225  0.8223
17554TIP3   OH274076   0.111   3.641   2.370  0.9350  0.1191  0.6752
17554TIP3    H174077   0.046   3.583   2.331  0.0469  2.1790 -1.0997
17554TIP3    H274078   0.195   3.609   2.337  0.4976 -0.3911  0.0402
17555TIP3   OH274079   6.633   3.712   0.737 -0.6096 -0.3280 -0.0399
17555TIP3    H174080   6.705   3.684   0.794  0.5802 -0.3815 -1.5184
17555TIP3    H274081   6.612   3.800   0.768 -0.1642 -0.4486  0.6462
17556TIP3   OH274082   0.449   0.701  12.410 -0.0154 -0.1570  0.2507
17556TIP3    H174083   0.536   0.722  12.377 -0.3089  0.7060 -0.0164
17556TIP3    H274084   0.390   0.743  12.347 -0.6160 -0.4212  0.6346
17557TIP3   OH274085   4.350   3.436   5.601 -0.3617 -0.4832  0.0937
17557TIP3    H174086   4.383   3.460   5.514 -0.1957 -0.9775  0.0132
17557TIP3    H274087   4.348   3.340   5.599  2.7587 -0.7105  1.7326
17558TIP3   OH274088   1.629   0.204  15.196  0.5645  0.5779  0.2312
17558TIP3    H174089   1.664   0.258  15.126 -0.0585 -0.0412 -0.5754
17558TIP3    H274090   1.552   0.252  15.227  0.3785  0.4620 -0.0518
17559TIP3   OH274091   6.039   1.172   4.244  0.7613  0.0976 -0.9547
17559TIP3    H174092   5.965   1.112   4.259  1.1461 -0.0617  0.4481
17559TIP3    H274093   6.003   1.241   4.189 -0.1852 -0.4712 -1.0775
17560TIP3   OH274094   2.455   1.220   3.101 -0.2393  0.3300 -0.1926
17560TIP3    H174095   2.509   1.142   3.112  1.2272  1.1851 -1.0305
17560TIP3    H274096   2.457   1.263   3.186 -0.4365 -0.1445  0.0564
17561TIP3   OH274097   3.632   4.939  15.374 -0.2363 -0.1428  0.2981
17561TIP3    H174098   3.566   5.004  15.399 -1.6714 -0.6748 -1.8002
17561TIP3    H274099   3.690   4.987  15.314 -0.5668 -0.4541 -0.2793
17562TIP3   OH274100   4.700   2.285  13.439 -0.6001 -0.0955 -0.5149
17562TIP3    H174101   4.675   2.201  13.478 -0.6217 -0.5522 -1.4711
17562TIP3    H274102   4.622   2.339  13.445 -0.4656 -0.0052  0.4652
17563TIP3   OH274103   3.287   6.599   1.127  0.5467 -0.1690  0.6450
17563TIP3    H174104   3.337   6.659   1.072 -2.0635  0.9759 -0.6713
17563TIP3    H274105   3.257   6.654   1.200 -1.2513  0.0408 -0.1908
17564TIP3   OH274106   0.792   2.881  13.128  0.1523  0.5195  0.3346
17564TIP3    H174107   0.838   2.957  13.163  0.8063 -0.1358  0.9329
17564TIP3    H274108   0.776   2.903  13.036  0.4545  1.3198  0.4686
17565TIP3   OH274109   0.851   5.310   5.862 -0.5591 -0.1655  0.0754
17565TIP3    H174110   0.829   5.334   5.952 -1.1364  2.5096 -0.6768
17565TIP3    H274111   0.947   5.312   5.860 -0.4271 -2.4937  1.1021
17566TIP3   OH274112   3.418   5.285  16.606  0.6424  0.6538 -0.0524
17566TIP3    H174113   3.372   5.341  16.668  1.7730  1.4733  0.0888
17566TIP3    H274114   3.497   5.334  16.584  0.4009  0.2687 -1.9385
17567TIP3   OH274115   1.137   6.712  16.848 -0.0882 -0.0509  0.0571
17567TIP3    H174116   1.093   6.725  16.764 -1.6706  0.1415  0.8803
17567TIP3    H274117   1.179   6.796  16.866  0.2611 -0.0943 -0.5351
17568TIP3   OH274118   5.618   1.470   6.120  0.2124  0.0367  0.2901
17568TIP3    H174119   5.549   1.528   6.150  0.2309 -0.2228  0.8429
17568TIP3    H274120   5.592   1.383   6.151  0.5062 -0.1488  0.0250
17569TIP3   OH274121   1.104   4.257  15.881 -0.4419  0.0598  0.4200
17569TIP3    H174122   1.072   4.307  15.956 -1.4294 -0.1056  0.1261
17569TIP3    H274123   1.030   4.202  15.856 -0.2052  0.2762 -0.8210
17570TIP3   OH274124   2.418   2.288   3.022 -0.0440 -0.5193 -0.5850
17570TIP3    H174125   2.388   2.307   3.111 -0.9901 -0.0776 -0.9807
17570TIP3    H274126   2.449   2.197   3.026  2.5816  0.3421  0.8465
17571TIP3   OH274127   5.151   4.421  16.236 -0.3069  0.1730 -0.3717
17571TIP3    H174128   5.068   4.373  16.234  0.1220 -0.8036  2.0908
17571TIP3    H274129   5.126   4.512  16.249 -1.0153 -0.2345  1.3316
17572TIP3   OH274130   0.387   1.994   1.459 -0.0631 -0.7100  0.3471
17572TIP3    H174131   0.312   1.993   1.518 -0.2031  0.5098  0.1980
17572TIP3    H274132   0.397   1.902   1.433 -0.2280 -1.2329  1.9616
17573TIP3   OH274133   5.935   5.327   1.983 -0.0859 -0.3354  0.2170
17573TIP3    H174134   6.008   5.380   2.013 -0.7458  1.3162 -0.9142
17573TIP3    H274135   5.898   5.377   1.910 -1.8568 -1.4959  0.2605
17574TIP3   OH274136   1.976   2.914   5.339 -0.0166  0.2678  0.1313
17574TIP3    H174137   1.934   2.964   5.408  1.3547 -1.1118  2.0666
17574TIP3    H274138   2.018   2.841   5.384  0.2977 -1.1421 -2.2597
17575TIP3   OH274139   0.442   1.615  11.272 -0.5134 -0.2722 -0.2271
17575TIP3    H174140   0.358   1.616  11.225 -0.5426 -0.6041 -0.1843
17575TIP3    H274141   0.508   1.626  11.203 -0.6236  0.8218 -0.1757
17576TIP3   OH274142   0.951   4.049  15.793 -0.0139  0.2088  0.3669
17576TIP3    H174143   0.989   4.008  15.715  0.5543  0.1296  0.6739
17576TIP3    H274144   0.887   3.986  15.825 -1.1168  0.7512 -0.6986
17577TIP3   OH274145   2.919   6.642   3.117  0.0378  1.1775  0.6408
17577TIP3    H174146   2.849   6.706   3.099 -2.0846 -1.3444 -0.8107
17577TIP3    H274147   2.875   6.571   3.162  1.2647 -1.1973 -1.6583
17578TIP3   OH274148   1.499   0.947   5.220  0.2171  0.8476  0.0679
17578TIP3    H174149   1.437   0.897   5.273 -0.1823 -0.0708 -1.2225
17578TIP3    H274150   1.549   0.880   5.173  0.8226  1.6379 -0.4346
17579TIP3   OH274151   1.051   4.110  16.899  0.3919 -0.3805 -0.0266
17579TIP3    H174152   0.972   4.063  16.925  1.4943 -1.3202  1.8928
17579TIP3    H274153   1.033   4.143  16.811 -2.1717 -0.4096  0.4338
17580TIP3   OH274154   1.206   0.739  17.311 -0.2193 -0.5974 -0.0915
17580TIP3    H174155   1.195   0.826  17.349  0.1637 -1.2828  1.6999
17580TIP3    H274156   1.122   0.718  17.271 -0.3048  0.5826 -0.5621
17581TIP3   OH274157   1.265   5.651  12.992  0.1832  0.0767 -1.0351
17581TIP3    H174158   1.222   5.567  12.974  1.8256 -0.5626 -2.2470
17581TIP3    H274159   1.279   5.690  12.906 -0.5280  1.6126 -0.4804
17582TIP3   OH274160   6.262   0.642   3.091 -0.7683  0.1239 -0.5524
17582TIP3    H174161   6.330   0.591   3.136 -0.3199  2.3714  1.5013
17582TIP3    H274162   6.296   0.654   3.002  0.6038 -0.4421 -0.1266
17583TIP3   OH274163   4.613   0.910  16.987 -0.4476  0.4100 -0.4979
17583TIP3    H174164   4.637   1.000  16.966 -0.8229  0.7706  0.5578
17583TIP3    H274165   4.628   0.902  17.081 -0.3272 -0.6634 -0.5975
17584TIP3   OH274166   6.180   0.307   2.434 -0.0231  0.6086 -0.4286
17584TIP3    H174167   6.170   0.235   2.496  0.2528  0.5820 -0.4141
17584TIP3    H274168   6.091   0.334   2.414 -0.1505 -0.1434 -0.9104
17585TIP3   OH274169   6.734   0.922   5.550  0.2562  0.1975 -0.0470
17585TIP3    H174170   6.737   0.917   5.645 -0.2950 -0.5550 -0.0690
17585TIP3    H274171   6.801   0.988   5.528  0.2095  0.5648  0.8633
17586TIP3   OH274172   2.012   0.937   3.129  0.0266 -0.1629  0.1067
17586TIP3    H174173   1.989   1.030   3.124  0.8242  0.0425  0.1113
17586TIP3    H274174   2.104   0.934   3.104  1.1570 -0.4445  3.6889
17587TIP3   OH274175   3.414   4.837   4.645  0.0679  0.5855  0.6799
17587TIP3    H174176   3.435   4.888   4.723  0.0055  0.9396  0.4687
17587TIP3    H274177   3.332   4.792   4.667  0.2988  0.3165  0.9873
17588TIP3   OH274178   3.440   5.403  15.979 -0.1075  0.5977  1.1238
17588TIP3    H174179   3.515   5.439  15.932 -0.7571  2.2444  1.2869
17588TIP3    H274180   3.459   5.309  15.986 -0.3477  0.0692 -3.0854
17589TIP3   OH274181   0.997   6.357  12.248  0.3322  0.0525 -0.1252
17589TIP3    H174182   1.091   6.343  12.250  0.5186  1.0330 -1.2176
17589TIP3    H274183   0.961   6.275  12.214  0.7414 -0.4778  0.6986
17590TIP3   OH274184   2.568   2.121   2.357 -0.0848 -0.4040  0.0899
17590TIP3    H174185   2.572   2.063   2.433  2.9322 -1.4398 -0.7030
17590TIP3    H274186   2.521   2.071   2.291 -1.5516 -0.0326  0.8210
17591TIP3   OH274187   6.066   3.858  13.609 -0.1936 -0.3035 -0.0381
17591TIP3    H174188   6.044   3.951  13.607  2.8169  0.5390  0.1177
17591TIP3    H274189   6.014   3.822  13.680 -0.8300  1.4338  0.4264
17592TIP3   OH274190   3.222   1.871  12.901 -0.0363 -0.0033  0.7077
17592TIP3    H174191   3.308   1.842  12.869 -0.5379 -0.4758 -0.2390
17592TIP3    H274192   3.166   1.869  12.824 -0.8604  0.4907  1.2822
17593TIP3   OH274193   3.629   4.768   3.915 -0.0013 -0.1601  0.6796
17593TIP3    H174194   3.574   4.841   3.943 -2.2484 -1.3276 -0.4913
17593TIP3    H274195   3.708   4.776   3.969  0.0804  3.3741  0.2785
17594TIP3   OH274196   3.474   3.872  17.436 -0.2064  0.0993  0.0529
17594TIP3    H174197   3.544   3.937  17.429  0.6745 -0.6323  1.5084
17594TIP3    H274198   3.512   3.792  17.399 -1.5981  0.5599 -2.5964
17595TIP3   OH274199   0.270   5.371   6.222  0.3570  0.6127 -0.4965
17595TIP3    H174200   0.253   5.432   6.294 -0.9649 -0.9117  0.5395
17595TIP3    H274201   0.364   5.356   6.224  0.5251  1.6593  0.0126
17596TIP3   OH274202   4.916   5.818  13.395 -0.4186 -0.0148 -0.1376
17596TIP3    H174203   4.982   5.851  13.333 -0.2032 -1.2028 -0.5716
17596TIP3    H274204   4.968   5.782  13.467 -0.5917 -0.7057 -0.3515
17597TIP3   OH274205   6.344   0.410   2.813  0.5034  0.2362  0.3553
17597TIP3    H174206   6.411   0.476   2.829 -0.4066  1.0660  0.8448
17597TIP3    H274207   6.358   0.344   2.881  0.2830  0.8355  0.9855
17598TIP3   OH274208   5.235   1.159  11.582  0.6496 -0.0915 -0.1249
17598TIP3    H174209   5.160   1.213  11.608 -1.2256 -1.3777 -2.4821
17598TIP3    H274210   5.269   1.125  11.665 -1.2845  0.6468  1.0505
17599TIP3   OH274211   2.365   0.275  13.370 -0.0780  0.8168 -0.1163
17599TIP3    H174212   2.340   0.291  13.279  0.9886  0.4626 -0.4925
17599TIP3    H274213   2.427   0.344  13.391  2.3875 -1.0230 -0.8454
17600TIP3   OH274214   3.001   0.208   4.919 -0.4383  0.2716 -0.1397
17600TIP3    H174215   3.000   0.196   5.014 -1.1623 -2.0864 -0.3612
17600TIP3    H274216   3.063   0.143   4.887 -1.6183 -0.3010 -1.3753
17601TIP3   OH274217   3.856   2.453   5.404 -0.2980 -0.1830  0.9186
17601TIP3    H174218   3.898   2.381   5.357 -1.9555 -0.8802  0.4435
17601TIP3    H274219   3.911   2.466   5.482  2.0980  0.5265 -0.7831
17602TIP3   OH274220   3.687   2.930  17.007  0.0213  0.0633 -0.2754
17602TIP3    H174221   3.755   2.908  17.071 -0.5638 -1.0884 -0.0136
17602TIP3    H274222   3.614   2.964  17.060  0.3311  1.1963 -0.5444
17603TIP3   OH274223   5.585   4.072   2.111 -0.1590 -0.0864  0.2936
17603TIP3    H174224   5.613   4.111   2.194 -1.0153  0.2335  0.4451
17603TIP3    H274225   5.533   3.996   2.136  0.8161 -0.8768  0.0068
17604TIP3   OH274226   4.805   2.158  13.724 -0.0305  0.4541  0.5617
17604TIP3    H174227   4.829   2.074  13.764  2.8663  1.3713  1.0200
17604TIP3    H274228   4.738   2.194  13.782  2.2401  0.6071  3.3564
17605TIP3   OH274229   4.393   6.404   3.279 -0.2235 -0.4322  0.2333
17605TIP3    H174230   4.318   6.400   3.340 -1.3109 -0.9271 -1.0720
17605TIP3    H274231   4.466   6.369   3.330 -1.0172 -0.5295  1.3672
17606TIP3   OH274232   0.810   1.371   0.822  0.3491 -0.5606 -0.3434
17606TIP3    H174233   0.845   1.458   0.842  1.8562 -1.2660  0.3253
17606TIP3    H274234   0.882   1.327   0.777 -0.0456 -1.7536  0.1517
17607TIP3   OH274235   0.795   5.384   3.133  0.3754 -0.2443 -0.1640
17607TIP3    H174236   0.850   5.400   3.057  0.3918  0.0458 -0.0906
17607TIP3    H274237   0.717   5.437   3.118  0.7732  0.5426  0.4592
17608TIP3   OH274238   3.040   0.483   0.636  0.1980 -0.2314 -0.0869
17608TIP3    H174239   2.978   0.514   0.702  1.2376 -1.4501  1.5321
17608TIP3    H274240   3.004   0.515   0.553 -2.4763 -0.7087  0.7825
17609TIP3   OH274241   6.687   3.014   6.106 -0.0248 -0.3525 -0.5676
17609TIP3    H174242   6.652   2.958   6.175  1.1203 -3.0112 -1.9955
17609TIP3    H274243   6.781   3.018   6.124  0.1942 -0.5533 -1.5961
17610TIP3   OH274244   4.347   3.813  11.142 -0.8724 -0.8034  0.3508
17610TIP3    H174245   4.366   3.729  11.101  1.1015  0.0759 -0.7004
17610TIP3    H274246   4.297   3.861  11.075  1.6999  0.3538 -0.8893
17611TIP3   OH274247   4.316   2.662   0.350 -0.3795 -0.5358 -0.3022
17611TIP3    H174248   4.286   2.612   0.427  0.6170 -0.4983  0.1267
17611TIP3    H274249   4.288   2.609   0.275 -0.0601 -1.3280  0.1267
17612TIP3   OH274250   6.091   2.612  11.072  0.8957 -0.0225 -0.2332
17612TIP3    H174251   6.074   2.595  10.980  0.3127 -3.1964  0.3534
17612TIP3    H274252   6.186   2.609  11.081  0.9029 -0.9222 -0.5581
17613TIP3   OH274253   1.440   2.825   0.663  0.2395 -0.4481 -0.1205
17613TIP3    H174254   1.409   2.820   0.754 -0.5122 -1.2331 -0.4055
17613TIP3    H274255   1.514   2.765   0.660  2.1296  1.6814  0.6471
17614TIP3   OH274256   1.505   0.013   3.134 -0.0192  0.4181 -0.1469
17614TIP3    H174257   1.456  -0.069   3.135 -0.7400  0.8120 -0.9017
17614TIP3    H274258   1.451   0.074   3.184 -0.6857  1.0380 -1.5453
17615TIP3   OH274259   0.254   1.123   0.190 -0.4971 -0.1843  0.2512
17615TIP3    H174260   0.230   1.200   0.138 -0.5360  0.2581  0.8966
17615TIP3    H274261   0.343   1.102   0.163 -0.8913 -0.6299 -0.7567
17616TIP3   OH274262   4.590   1.414  13.595 -0.0630 -0.3995 -0.2643
17616TIP3    H174263   4.578   1.352  13.667  1.6726  0.1387  0.5495
17616TIP3    H274264   4.589   1.500  13.637  1.6475 -0.1014 -0.7244
17617TIP3   OH274265   4.729   5.378   5.345  0.0053 -0.2955 -0.1832
17617TIP3    H174266   4.783   5.299   5.342  1.9181  0.9048  0.4163
17617TIP3    H274267   4.691   5.378   5.432 -1.2938 -1.3263 -0.7265
17618TIP3   OH274268   4.314   1.178  11.436 -0.2240  0.5272 -0.0359
17618TIP3    H174269   4.350   1.157  11.349  0.4297 -1.0066  0.5735
17618TIP3    H274270   4.384   1.227  11.479 -0.2491  0.6132 -0.0913
17619TIP3   OH274271   3.533   4.565  16.934 -0.0697 -0.1226 -0.0859
17619TIP3    H174272   3.478   4.576  17.012  1.8242  0.5578  1.2431
17619TIP3    H274273   3.528   4.650  16.890 -0.3619 -0.1923 -0.1950
17620TIP3   OH274274   0.133   4.988  11.485  0.0521  0.0999 -0.5562
17620TIP3    H174275   0.071   5.040  11.536  0.8864  0.9935 -0.4276
17620TIP3    H274276   0.137   5.032  11.400 -0.5753 -0.8025 -1.0686
17621TIP3   OH274277   5.785   1.802  11.727  0.0053  0.4768 -0.3889
17621TIP3    H174278   5.833   1.719  11.734 -0.7752  0.0547  0.2092
17621TIP3    H274279   5.745   1.799  11.640 -0.5984 -0.1215 -0.1060
17622TIP3   OH274280   0.092   3.290  16.791 -0.0748  0.3203 -0.3371
17622TIP3    H174281   0.036   3.254  16.722 -0.6001  2.0664 -0.8834
17622TIP3    H274282   0.032   3.317  16.860 -0.2496  3.5914 -1.5440
17623TIP3   OH274283   2.968   3.068  14.607  0.4376 -1.1600 -0.0704
17623TIP3    H174284   2.978   3.066  14.512 -0.1316  0.6270 -0.2200
17623TIP3    H274285   2.875   3.056  14.622  0.2503  0.3233  0.1170
17624TIP3   OH274286   2.538   6.660   1.979 -0.2339 -0.5864  0.0948
17624TIP3    H174287   2.630   6.678   2.002 -0.8303  0.3549  1.9909
17624TIP3    H274288   2.531   6.683   1.887  0.9801  1.3644  0.4282
17625TIP3   OH274289   4.674   1.369  12.292 -0.3923 -0.1516  0.1166
17625TIP3    H174290   4.721   1.442  12.250 -1.8527  0.5182 -0.4001
17625TIP3    H274291   4.665   1.303  12.223  2.3943 -1.6338  1.0039
17626TIP3   OH274292   2.970   6.553   5.490  0.3718 -0.1324 -0.1316
17626TIP3    H174293   3.046   6.495   5.485 -0.8930 -1.8847 -0.0706
17626TIP3    H274294   2.903   6.501   5.534 -0.9669  1.2381 -0.4629
17627TIP3   OH274295   6.477   5.380   5.536  0.0851 -0.2061 -0.1583
17627TIP3    H174296   6.565   5.398   5.569 -0.4271 -0.2396  1.3194
17627TIP3    H274297   6.423   5.451   5.573 -0.2793  0.7067 -2.2788
17628TIP3   OH274298   2.452   6.730  11.267  0.0628 -0.2509  0.2898
17628TIP3    H174299   2.518   6.793  11.239  0.4343 -0.8850 -0.2883
17628TIP3    H274300   2.369   6.767  11.236 -0.2029  1.6680  2.9159
17629TIP3   OH274301   0.245   1.650   6.113 -0.6799  0.1704 -0.5359
17629TIP3    H174302   0.269   1.599   6.191  0.0017  0.5161 -0.5090
17629TIP3    H274303   0.258   1.741   6.138  0.7243  0.2557 -1.3962
17630TIP3   OH274304   0.244   1.473   4.822 -0.3247 -0.0007  0.1435
17630TIP3    H174305   0.293   1.477   4.740 -0.5871  0.0156 -0.0106
17630TIP3    H274306   0.225   1.380   4.834 -1.0649  0.0936 -0.2702
17631TIP3   OH274307   0.945   1.409  11.226 -0.1129 -0.1997  0.1811
17631TIP3    H174308   0.953   1.494  11.183 -1.4105 -0.7379 -1.1787
17631TIP3    H274309   1.030   1.367  11.211  1.0971  1.3739  2.1463
17632TIP3   OH274310   2.012   5.678   1.153  0.2825  0.5962  0.3772
17632TIP3    H174311   1.930   5.720   1.124 -0.3223 -2.1387 -2.3225
17632TIP3    H274312   2.072   5.689   1.080  0.8830 -1.0978  0.5743
17633TIP3   OH274313   6.657   2.516   1.020 -0.3420  0.7630 -0.0260
17633TIP3    H174314   6.654   2.420   1.027  0.0694  0.4338 -2.8868
17633TIP3    H274315   6.573   2.540   0.982  0.0051  1.3674 -0.4470
17634TIP3   OH274316   2.902   3.414  15.577  0.4714  0.0441  0.1276
17634TIP3    H174317   2.935   3.325  15.588 -0.2069 -0.3023 -0.5908
17634TIP3    H274318   2.864   3.415  15.490 -0.3432  0.7812  0.4807
17635TIP3   OH274319   5.838   2.928   4.587  0.9066 -0.1817 -0.1626
17635TIP3    H174320   5.747   2.956   4.593 -0.0886 -3.0776  0.0312
17635TIP3    H274321   5.867   2.957   4.500 -1.2987 -1.8486 -1.5850
17636TIP3   OH274322   5.583   0.765  17.091 -0.0534 -0.2581  0.0624
17636TIP3    H174323   5.638   0.843  17.086 -0.0683 -0.1856  0.8293
17636TIP3    H274324   5.618   0.716  17.166 -0.9169 -0.2832  0.4667
17637TIP3   OH274325   0.153   1.747   4.138 -0.2173  0.4309 -0.0327
17637TIP3    H174326   0.215   1.787   4.198  0.5069  1.0510 -1.1488
17637TIP3    H274327   0.101   1.688   4.192  0.3302  1.0533  1.2019
17638TIP3   OH274328   1.347   1.880  16.731  1.3008 -0.0246  0.4578
17638TIP3    H174329   1.293   1.918  16.662  3.4089 -0.2773 -1.4587
17638TIP3    H274330   1.288   1.869  16.805 -1.7984 -2.1303 -2.0692
17639TIP3   OH274331   2.837   2.760  13.069  0.0267  0.0780  0.5879
17639TIP3    H174332   2.765   2.818  13.046 -0.2154 -1.1812 -2.1870
17639TIP3    H274333   2.913   2.796  13.023 -0.0937 -1.6049 -1.0639
17640TIP3   OH274334   3.353   3.514  17.445  0.1627 -0.0872  0.6209
17640TIP3    H174335   3.377   3.457  17.371 -0.8306  0.2324  0.0300
17640TIP3    H274336   3.258   3.504  17.453 -0.5799  3.5350 -1.3357
17641TIP3   OH274337   1.598   3.391  12.126 -0.1717 -0.4384  0.0328
17641TIP3    H174338   1.653   3.316  12.149  0.9872 -0.1261 -1.5769
17641TIP3    H274339   1.622   3.459  12.188 -0.7241 -1.1331  1.0526
17642TIP3   OH274340   5.095   4.938  12.840  0.5091 -0.7136  0.0595
17642TIP3    H174341   5.093   5.027  12.805  0.5495 -1.1312 -1.0407
17642TIP3    H274342   5.157   4.942  12.913  1.7205 -0.1745 -0.9666
17643TIP3   OH274343   0.017   5.711   1.187 -0.2376 -0.1874  0.8362
17643TIP3    H174344   0.111   5.699   1.199 -0.4575 -1.7525  1.2233
17643TIP3    H274345  -0.023   5.640   1.237 -1.5884 -0.2764 -0.3051
17644TIP3   OH274346   6.092   5.730   0.891  0.1752 -0.2588 -0.0097
17644TIP3    H174347   6.177   5.739   0.935  1.0230 -1.2171 -1.3645
17644TIP3    H274348   6.028   5.732   0.962  1.3332  0.3842  1.0571
17645TIP3   OH274349   4.829   4.559   0.071  0.0635  0.0814 -0.0741
17645TIP3    H174350   4.740   4.572   0.104  0.9848  1.8693  1.9493
17645TIP3    H274351   4.844   4.634   0.013  0.7616  0.6343  0.8120
17646TIP3   OH274352   4.306   3.500   2.761 -0.7615 -0.1294 -0.0852
17646TIP3    H174353   4.228   3.551   2.783 -0.7011  0.7414 -1.7873
17646TIP3    H274354   4.275   3.432   2.701 -0.4285 -0.6752  0.3392
17647TIP3   OH274355   6.155   6.378   2.134 -0.4494  0.3600  0.5234
17647TIP3    H174356   6.103   6.433   2.192 -0.7362 -0.5017  1.1092
17647TIP3    H274357   6.202   6.318   2.193  0.1702  0.2481 -0.0696
17648TIP3   OH274358   6.184   1.277   3.973 -0.2239  0.0048 -0.0459
17648TIP3    H174359   6.166   1.183   3.984 -1.3981  0.2482  0.2631
17648TIP3    H274360   6.098   1.319   3.982  0.1677  1.0493 -0.9335
17649TIP3   OH274361   5.820   2.204   3.170  0.6266 -0.1994  0.6083
17649TIP3    H174362   5.854   2.246   3.091  1.2814  3.0085  2.4279
17649TIP3    H274363   5.894   2.154   3.205  0.4826 -1.1996 -0.4625
17650TIP3   OH274364   6.611   5.220  15.549  0.5463  0.0353 -0.2347
17650TIP3    H174365   6.519   5.219  15.523  0.3809  2.2981  0.0637
17650TIP3    H274366   6.643   5.132  15.528 -1.9897 -1.2462  0.8587
17651TIP3   OH274367   1.474   5.325  10.485 -0.5098 -0.1113 -0.2799
17651TIP3    H174368   1.563   5.295  10.465 -0.2182  1.7174 -2.1111
17651TIP3    H274369   1.418   5.251  10.461  0.5076 -1.8341  2.2547
17652TIP3   OH274370   2.961   6.440   1.271  0.3027  0.2316 -0.0534
17652TIP3    H174371   2.980   6.516   1.325  1.5463 -0.8113  1.0480
17652TIP3    H274372   2.953   6.368   1.333 -2.5869 -0.3093 -0.9006
17653TIP3   OH274373   3.617   1.682   3.734  0.3073  0.0298  0.0324
17653TIP3    H174374   3.585   1.659   3.822  2.4035  1.9012  1.3967
17653TIP3    H274375   3.603   1.776   3.727  1.0668  0.0625 -1.2724
17654TIP3   OH274376   3.454   0.270   2.923  0.4597 -0.0721  0.0815
17654TIP3    H174377   3.370   0.265   2.969  0.1404  0.8915 -0.3662
17654TIP3    H274378   3.472   0.180   2.896 -1.5296 -0.0015 -1.7025
17655TIP3   OH274379   0.222   1.707   3.577  0.0070  0.6023  0.3187
17655TIP3    H174380   0.169   1.661   3.513 -0.4258  0.7102  0.5954
17655TIP3    H274381   0.270   1.638   3.623  1.3239  0.5947 -0.9754
17656TIP3   OH274382   4.091   2.787  15.422  0.0501 -0.7694 -0.0069
17656TIP3    H174383   4.098   2.761  15.330  1.9315  1.4857 -0.5901
17656TIP3    H274384   4.128   2.714  15.471 -0.1673 -1.6256 -1.0891
17657TIP3   OH274385   2.270   0.163   4.256  0.6607  0.2121  0.0124
17657TIP3    H174386   2.282   0.192   4.166 -0.7426  0.3960 -0.1262
17657TIP3    H274387   2.191   0.109   4.254  1.1499 -0.5745  0.9561
17658TIP3   OH274388   3.368   2.956   4.152 -0.4767  0.7655 -0.1550
17658TIP3    H174389   3.414   2.872   4.144 -1.3566  0.0005  2.1549
17658TIP3    H274390   3.293   2.948   4.094  1.3343  1.4517 -2.7985
17659TIP3   OH274391   2.592   0.442   1.093  0.4537 -0.3667 -0.2251
17659TIP3    H174392   2.641   0.480   1.166 -0.9002 -2.2840  1.8235
17659TIP3    H274393   2.612   0.348   1.097 -1.6045 -0.8875 -0.6738
17660TIP3   OH274394   5.696   0.108   3.213 -0.3514  0.3456  0.4790
17660TIP3    H174395   5.692   0.197   3.247  1.9479  0.6031  0.2536
17660TIP3    H274396   5.774   0.070   3.254 -1.0574 -1.4463  0.2673
17661TIP3   OH274397   2.441   6.355  12.542  0.5939  0.0350 -0.2050
17661TIP3    H174398   2.464   6.426  12.482  1.9098 -0.3973 -0.2246
17661TIP3    H274399   2.522   6.334  12.587 -0.1917 -0.2134  1.1466
17662TIP3   OH274400   2.590   1.197   5.238 -0.2719  0.6705 -0.6656
17662TIP3    H174401   2.604   1.203   5.333  0.8805 -2.9779 -0.4497
17662TIP3    H274402   2.677   1.211   5.201 -0.0113 -1.2140 -0.8677
17663TIP3   OH274403   6.608   1.867   4.860  0.2411 -0.2554 -0.2454
17663TIP3    H174404   6.600   1.771   4.860 -0.6000 -0.2151  1.3241
17663TIP3    H274405   6.518   1.898   4.868  0.6426  0.6065  1.2700
17664TIP3   OH274406   0.807   2.671   3.549 -0.2011 -0.3483  0.3699
17664TIP3    H174407   0.872   2.705   3.609  0.8370 -0.3443 -0.7279
17664TIP3    H274408   0.756   2.747   3.522  0.6350 -0.0123 -0.3010
17665TIP3   OH274409   5.564   4.690   5.796  0.4576  0.1426  0.0644
17665TIP3    H174410   5.545   4.638   5.874 -0.9425 -0.2058 -0.4838
17665TIP3    H274411   5.508   4.767   5.804  0.9402  0.5319 -0.1954
17666TIP3   OH274412   3.418   3.356  10.299 -0.3519 -0.0082 -0.1425
17666TIP3    H174413   3.418   3.272  10.254  0.8719  0.0988 -0.3791
17666TIP3    H274414   3.346   3.350  10.361 -2.2025 -0.1058 -2.1816
17667TIP3   OH274415   6.205   0.784   1.481 -0.7094 -0.4694 -0.3553
17667TIP3    H174416   6.186   0.727   1.556  5.5632 -0.1970  2.0873
17667TIP3    H274417   6.211   0.872   1.518 -2.1031  0.5133 -2.3043
17668TIP3   OH274418   1.401   1.878   3.313  0.0346 -0.0910  0.3435
17668TIP3    H174419   1.460   1.848   3.382  0.6507 -0.8204 -0.4730
17668TIP3    H274420   1.460   1.917   3.248 -0.3759 -0.8267 -0.4838
17669TIP3   OH274421   1.699   1.293   2.453 -0.4153  0.0317  0.1941
17669TIP3    H174422   1.756   1.343   2.395 -0.9861  0.1137 -0.3016
17669TIP3    H274423   1.757   1.264   2.524  0.5316 -0.9601 -0.9448
17670TIP3   OH274424   2.570   5.365  11.768 -0.4838  0.0840  0.6136
17670TIP3    H174425   2.539   5.450  11.738 -0.3432 -0.0368  0.1228
17670TIP3    H274426   2.506   5.303  11.733 -0.5362 -0.0212  0.8954
17671TIP3   OH274427   5.006   6.037   1.315 -0.2108 -0.1558 -0.1446
17671TIP3    H174428   4.952   5.987   1.376 -1.2854  0.8898 -0.2010
17671TIP3    H274429   5.094   6.000   1.324 -0.7321 -1.2269  0.6874
17672TIP3   OH274430   3.800   4.080  16.085  0.2187 -0.4748 -0.4579
17672TIP3    H174431   3.782   4.038  16.169 -0.7204  0.1910 -0.3121
17672TIP3    H274432   3.896   4.089  16.083  0.2532 -0.4654  0.5591
17673TIP3   OH274433   5.754   2.964   2.255 -0.2095  0.1874  0.4337
17673TIP3    H174434   5.785   2.874   2.266 -0.2255 -0.0084 -0.9034
17673TIP3    H274435   5.773   2.984   2.163  1.5293  2.2150  1.1538
17674TIP3   OH274436   1.412   4.869   5.462 -0.0529 -0.3588 -0.3740
17674TIP3    H174437   1.325   4.910   5.461 -1.0286 -2.3383 -0.7140
17674TIP3    H274438   1.462   4.919   5.398 -1.0132  0.6284 -0.4034
17675TIP3   OH274439   1.794   3.048   6.003  0.3373 -0.1548  0.1930
17675TIP3    H174440   1.837   3.025   6.086 -0.4020  0.3440  0.7295
17675TIP3    H274441   1.701   3.053   6.025  0.0189 -0.9849 -0.8960
17676TIP3   OH274442   4.002   2.971   5.023 -0.5111 -0.2626  0.1015
17676TIP3    H174443   3.962   3.051   5.057 -0.0602  0.0063  0.0097
17676TIP3    H274444   4.041   2.929   5.100  1.2791  0.7925 -0.1816
17677TIP3   OH274445   0.523   2.027  14.642 -0.0386  0.0862 -0.4139
17677TIP3    H174446   0.506   2.032  14.737 -0.8022  0.8052 -0.5724
17677TIP3    H274447   0.511   2.117  14.611 -0.4694 -0.2686 -1.3048
17678TIP3   OH274448   0.264   6.415   2.837 -0.0608 -0.1713 -0.1841
17678TIP3    H174449   0.257   6.496   2.887 -0.4664 -0.9225  1.0288
17678TIP3    H274450   0.234   6.438   2.749 -1.9465  0.5894  0.5952
17679TIP3   OH274451   4.865   0.047  15.281  0.3181  0.1704 -0.3266
17679TIP3    H174452   4.770   0.043  15.270  0.3406  1.4238 -1.1586
17679TIP3    H274453   4.900   0.038  15.192  0.9081  1.0420 -0.1953
17680TIP3   OH274454   1.427   6.638  14.768 -0.0700 -0.6427 -0.1859
17680TIP3    H174455   1.364   6.690  14.717 -0.7702 -1.9448 -0.6817
17680TIP3    H274456   1.510   6.650  14.722  0.0898  1.0723  0.4585
17681TIP3   OH274457   2.903   3.598   4.514 -0.1733 -0.2876 -0.7027
17681TIP3    H174458   2.823   3.621   4.467  0.6457  0.5677 -1.7348
17681TIP3    H274459   2.965   3.571   4.446  0.7274  0.0142 -0.0338
17682TIP3   OH274460   1.990   5.646  17.076 -0.3934  0.0622 -0.4126
17682TIP3    H174461   1.922   5.654  17.009 -2.5221 -0.2920  1.5710
17682TIP3    H274462   1.955   5.693  17.152  1.2635 -0.7465  0.9283
17683TIP3   OH274463   1.780   3.239   3.695 -0.3909  0.0117  0.4472
17683TIP3    H174464   1.831   3.267   3.620 -2.0860  1.4258 -0.2696
17683TIP3    H274465   1.826   3.163   3.730  0.8963 -0.1581 -1.5044
17684TIP3   OH274466   2.910   4.422  12.981  0.2628 -0.0638  0.4306
17684TIP3    H174467   2.912   4.345  12.925  0.7190  0.0819  0.2419
17684TIP3    H274468   2.966   4.399  13.055 -1.1189 -0.6324  1.3401
17685TIP3   OH274469   6.154   5.323  16.195 -0.2493  0.1895  0.2694
17685TIP3    H174470   6.106   5.242  16.180  1.0316 -0.3011 -1.4862
17685TIP3    H274471   6.225   5.298  16.255  0.5783 -0.1845 -0.8429
17686TIP3   OH274472   0.482   0.767   1.413  0.0714 -0.1703 -0.2911
17686TIP3    H174473   0.489   0.673   1.430 -1.1854 -0.2603 -0.1990
17686TIP3    H274474   0.477   0.774   1.318  0.9034 -0.1302 -0.3392
17687TIP3   OH274475   5.511   4.072  15.552 -0.1069  0.7458 -0.5696
17687TIP3    H174476   5.508   4.140  15.619 -2.0671 -0.1981  0.3818
17687TIP3    H274477   5.446   4.100  15.487  0.8742  1.0181 -1.4449
17688TIP3   OH274478   2.440   4.844   2.176  0.1227  0.1802 -0.2024
17688TIP3    H174479   2.524   4.822   2.216 -0.3287 -0.9186  0.1845
17688TIP3    H274480   2.463   4.886   2.093  1.0512  0.5829  0.2471
17689TIP3   OH274481   5.501   6.051  16.808 -0.0130  0.1869  0.2917
17689TIP3    H174482   5.460   5.998  16.876  0.3159 -1.0609 -0.4285
17689TIP3    H274483   5.595   6.040  16.822  0.1385  2.6852  1.6764
17690TIP3   OH274484   4.218   5.745  12.769  0.1893 -0.3446  0.3971
17690TIP3    H174485   4.134   5.711  12.798  0.4387 -0.6601  0.7692
17690TIP3    H274486   4.274   5.667  12.760  0.3836 -0.1583 -0.0318
17691TIP3   OH274487   4.144   2.127  13.345  0.8141  0.3395 -0.4985
17691TIP3    H174488   4.057   2.164  13.329  0.8262  2.7909  3.6390
17691TIP3    H274489   4.130   2.032  13.345 -2.2423  0.6481  1.3191
17692TIP3   OH274490   1.719   0.183  16.034  0.1587 -0.1556 -0.0627
17692TIP3    H174491   1.741   0.203  15.943 -0.4370  1.0655  0.0443
17692TIP3    H274492   1.747   0.260  16.084 -1.0521 -0.0751  0.5484
17693TIP3   OH274493   3.034   1.180   3.931  0.6341 -0.9003 -0.3729
17693TIP3    H174494   2.977   1.238   3.881  0.6216  0.8935  1.5776
17693TIP3    H274495   3.115   1.230   3.943  0.6861 -1.3073  1.2111
17694TIP3   OH274496   1.835   3.059   4.096  0.4392  0.3126  0.0674
17694TIP3    H174497   1.833   2.979   4.149 -0.2541 -0.0095 -0.4385
17694TIP3    H274498   1.747   3.066   4.060  0.1898  1.8269  0.8736
17695TIP3   OH274499   3.949   4.123  11.924  0.0849 -0.4367 -0.3542
17695TIP3    H174500   3.928   4.064  11.851  0.1361 -1.3893  0.3817
17695TIP3    H274501   4.034   4.159  11.901 -0.0525 -0.4653 -0.9303
17696TIP3   OH274502   5.572   6.694  13.551  0.1618 -0.2843 -0.0967
17696TIP3    H174503   5.563   6.734  13.465 -0.3535  2.4180  1.1212
17696TIP3    H274504   5.665   6.706  13.573  0.5557 -1.9641 -0.6534
17697TIP3   OH274505   2.906   1.989  14.299 -0.0184 -0.2899 -0.3020
17697TIP3    H174506   2.865   1.944  14.372 -0.1313 -0.4981 -0.4914
17697TIP3    H274507   2.882   2.081  14.311 -0.1714 -0.3476 -0.1664
17698TIP3   OH274508   3.271   1.203   2.026 -0.5230  0.1192 -0.2530
17698TIP3    H174509   3.292   1.291   1.995 -0.7977  0.3561  0.2194
17698TIP3    H274510   3.193   1.178   1.978 -0.6606  0.2846 -0.1160
17699TIP3   OH274511   2.188   2.001   2.909 -0.4486 -0.2137  0.5486
17699TIP3    H174512   2.204   1.990   3.003 -1.7402 -1.2300  0.6681
17699TIP3    H274513   2.097   2.030   2.903 -0.5968 -0.8382 -0.4235
17700TIP3   OH274514   5.371   5.636   4.918  0.0133  0.0559  0.3128
17700TIP3    H174515   5.461   5.615   4.894 -0.0787  0.8120 -0.8004
17700TIP3    H274516   5.338   5.686   4.843 -1.8182 -1.4787  0.0234
17701TIP3   OH274517   5.346   2.915   3.532  0.0519 -0.2029  0.4145
17701TIP3    H174518   5.333   2.912   3.627 -1.8777  0.9937  0.2321
17701TIP3    H274519   5.278   2.858   3.497  1.5975 -1.7276 -0.2432
17702TIP3   OH274520   6.724   6.040   5.469 -0.2847 -0.2927  0.6103
17702TIP3    H174521   6.702   5.966   5.526  0.8708 -0.1197  1.3235
17702TIP3    H274522   6.820   6.040   5.466 -0.2948  0.4175 -0.4065
17703TIP3   OH274523   4.933   5.985  16.308  1.0462  0.1233  0.2033
17703TIP3    H174524   4.892   5.921  16.251 -0.3976  0.4416  0.8507
17703TIP3    H274525   4.982   5.933  16.372  1.0199 -0.2800 -0.1064
17704TIP3   OH274526   4.898   3.419   0.488 -0.5413  0.6021 -0.5066
17704TIP3    H174527   4.918   3.462   0.571  0.3222 -0.1728 -0.3005
17704TIP3    H274528   4.815   3.373   0.505 -1.1865  1.7100 -0.5652
17705TIP3   OH274529   3.740   4.434  15.697 -0.0870 -0.1950  0.0586
17705TIP3    H174530   3.758   4.370  15.766  1.4948 -0.4812 -0.5898
17705TIP3    H274531   3.645   4.442  15.697 -0.3666 -2.7605 -0.0277
17706TIP3   OH274532   2.316   0.312   4.012 -0.0995 -0.0113  0.0200
17706TIP3    H174533   2.315   0.269   3.927 -2.8836  1.8643 -1.0461
17706TIP3    H274534   2.348   0.400   3.994  1.0931 -0.1418  1.3107
17707TIP3   OH274535   5.892   5.534   1.547  0.0683  0.0010  0.0679
17707TIP3    H174536   5.827   5.496   1.488  0.6753  0.7656 -1.1122
17707TIP3    H274537   5.976   5.517   1.505  0.5209  0.4413  0.7792
17708TIP3   OH274538   2.392   0.397  11.778  0.2907  0.0007 -0.0250
17708TIP3    H174539   2.324   0.360  11.834  1.2336 -0.8712  0.5870
17708TIP3    H274540   2.409   0.327  11.714  0.3560  0.3578 -0.3990
17709TIP3   OH274541   4.406   0.723  14.618  0.7212 -0.5184 -0.4055
17709TIP3    H174542   4.352   0.799  14.637  0.1137 -0.9959 -0.1644
17709TIP3    H274543   4.388   0.703  14.526  1.5847  0.1713 -0.7326
17710TIP3   OH274544   3.938   3.233   5.826 -0.1202 -0.2237  0.7488
17710TIP3    H174545   3.905   3.320   5.846  1.5949  0.5392  0.4482
17710TIP3    H274546   3.913   3.180   5.901 -1.8135  0.3222  0.6132
17711TIP3   OH274547   5.498   4.198   0.434 -0.0249 -0.4654  0.0370
17711TIP3    H174548   5.511   4.251   0.355 -1.5586 -0.8151 -0.4838
17711TIP3    H274549   5.587   4.177   0.464  0.6106  1.1579 -0.5690
17712TIP3   OH274550   5.700   3.082  11.745  0.1488  0.1591 -0.1419
17712TIP3    H174551   5.656   3.114  11.666  0.4698  0.4198 -0.2163
17712TIP3    H274552   5.666   2.993  11.756 -0.9502  0.5966  0.2142
17713TIP3   OH274553   6.718   1.631  16.546  0.7286  0.1803  0.1713
17713TIP3    H174554   6.759   1.546  16.560  1.0270  0.7443  3.5700
17713TIP3    H274555   6.789   1.694  16.557 -0.1156  0.9705  1.2555
17714TIP3   OH274556   0.502   0.133  13.508  0.4731  0.7777  0.1750
17714TIP3    H174557   0.529   0.044  13.481  0.1243  0.2478  1.5151
17714TIP3    H274558   0.438   0.118  13.578 -0.6043  2.0785 -0.4951
17715TIP3   OH274559   4.329   3.952  14.427  0.2313 -0.0126  0.2272
17715TIP3    H174560   4.274   3.905  14.365 -1.1401  1.2905  0.3934
17715TIP3    H274561   4.398   3.991  14.373 -0.6107  0.6241 -0.4291
17716TIP3   OH274562   5.682   6.343   0.514  0.1155 -0.5412  0.3164
17716TIP3    H174563   5.727   6.421   0.482 -2.1133  0.9664  0.6382
17716TIP3    H274564   5.723   6.325   0.598  0.0249  0.9108  0.7040
17717TIP3   OH274565   2.875   1.525   0.642  0.5801  0.0071  0.2960
17717TIP3    H174566   2.862   1.548   0.550  1.0018  1.2201  0.5210
17717TIP3    H274567   2.814   1.453   0.658  0.4533 -0.1735 -0.9059
17718TIP3   OH274568   6.227   1.065  14.183 -0.2056  0.7517  0.1951
17718TIP3    H174569   6.186   0.986  14.147  2.9087 -0.7337 -0.4955
17718TIP3    H274570   6.265   1.036  14.266 -0.1654  1.9139  0.5989
17719TIP3   OH274571   1.946   0.482  13.116 -0.9860  0.2594 -0.4519
17719TIP3    H174572   1.911   0.423  13.049  0.2993 -1.0902  0.0163
17719TIP3    H274573   1.944   0.430  13.196  0.2414  0.8314 -0.0319
17720TIP3   OH274574   3.062   0.086   0.874 -0.2212  0.0218 -0.6988
17720TIP3    H174575   3.005   0.123   0.807  0.3405  1.6769 -0.3281
17720TIP3    H274576   3.150   0.091   0.837  0.0869  0.8798  0.1005
17721TIP3   OH274577   0.260   5.438  13.175 -1.2073  0.0351  0.1980
17721TIP3    H174578   0.237   5.418  13.265  0.6131 -0.2519  0.6503
17721TIP3    H274579   0.210   5.377  13.122 -0.6651 -1.2902  1.1714
17722TIP3   OH274580   3.671   6.183   4.244  0.4808 -0.1738 -0.8216
17722TIP3    H174581   3.608   6.180   4.316  0.2180 -0.1141 -1.0459
17722TIP3    H274582   3.617   6.188   4.165  0.7577 -0.7378 -1.0519
17723TIP3   OH274583   4.801   0.452  12.872 -0.0402  0.3818 -0.2964
17723TIP3    H174584   4.829   0.543  12.870  0.6123  0.3265  2.6016
17723TIP3    H274585   4.879   0.402  12.849  0.1352  0.4962  0.0469
17724TIP3   OH274586   2.758   1.827   5.994  0.0608 -0.3125  0.3677
17724TIP3    H174587   2.715   1.810   6.077  0.0319  2.2541  0.9540
17724TIP3    H274588   2.841   1.869   6.017  1.6900 -2.6584 -0.8324
17725TIP3   OH274589   3.780   3.532  15.530 -0.0430  0.7242  0.1778
17725TIP3    H174590   3.799   3.609  15.585  0.5087  0.9938 -0.3814
17725TIP3    H274591   3.720   3.565  15.463 -0.1007  0.5728  0.1546
17726TIP3   OH274592   1.439   2.199  16.646  0.4167 -0.2625 -0.1489
17726TIP3    H174593   1.445   2.105  16.665  0.3575 -0.2166  0.1095
17726TIP3    H274594   1.506   2.238  16.701 -0.5969  0.0058  0.9610
17727TIP3   OH274595   4.978   0.068  14.501 -0.3586  0.3078  0.1501
17727TIP3    H174596   4.887   0.069  14.472 -0.3070  0.1187 -0.0191
17727TIP3    H274597   5.014  -0.013  14.465  0.8178  1.9553 -2.6436
17728TIP3   OH274598   2.216   0.288  11.535 -0.5453  0.0239 -0.2318
17728TIP3    H174599   2.280   0.228  11.574 -0.9171 -0.2962 -0.1140
17728TIP3    H274600   2.194   0.247  11.451 -1.5677 -0.5354  0.2988
17729TIP3   OH274601   5.195   3.440   1.442 -0.0993 -0.5674 -0.1618
17729TIP3    H174602   5.163   3.387   1.515  1.9333  0.2859  1.4679
17729TIP3    H274603   5.251   3.381   1.392  0.3740 -0.5627  0.3519
17730TIP3   OH274604   3.979   4.790  12.021  0.1090  0.3732 -0.1718
17730TIP3    H174605   3.953   4.836  11.941 -1.8932 -1.8806 -0.9557
17730TIP3    H274606   3.934   4.837  12.091 -1.0593  0.2806 -0.8262
17731TIP3   OH274607   5.684   5.861   5.630  0.2800  1.0023  0.0873
17731TIP3    H174608   5.661   5.953   5.633 -0.5301  0.7928  0.7531
17731TIP3    H274609   5.627   5.825   5.561  0.6823  1.0234 -0.2567
17732TIP3   OH274610   0.591   5.351   2.381 -0.4837 -0.7909  0.0803
17732TIP3    H174611   0.618   5.345   2.473 -0.7323 -1.1735  0.1303
17732TIP3    H274612   0.522   5.417   2.381  0.4949  0.2731 -0.0650
17733TIP3   OH274613   4.097   6.745   0.592 -0.0079  0.2072  0.1024
17733TIP3    H174614   4.129   6.699   0.514  0.7695  2.0111 -0.6913
17733TIP3    H274615   4.079   6.834   0.562  1.4232  1.2992  2.2015
17734TIP3   OH274616   6.438   6.482   4.394 -0.0193  0.1145  0.1601
17734TIP3    H174617   6.372   6.551   4.391  0.4941  0.7224  1.9137
17734TIP3    H274618   6.387   6.401   4.390 -0.7058  0.5685 -0.7256
17735TIP3   OH274619   1.652   5.277   1.106 -0.1903  0.2146  0.2223
17735TIP3    H174620   1.732   5.278   1.053  0.2495  1.2854  0.8789
17735TIP3    H274621   1.585   5.312   1.048 -0.1822 -0.6281 -0.3138
17736TIP3   OH274622   3.984   3.702  15.211  0.2648 -0.7235  0.1300
17736TIP3    H174623   4.011   3.682  15.301 -0.2973  0.3470  0.5465
17736TIP3    H274624   3.958   3.794  15.213 -0.6760 -0.9445 -0.9128
17737TIP3   OH274625   5.121   1.533   7.101  0.3173 -0.1151 -0.7361
17737TIP3    H174626   5.047   1.593   7.104  0.4884  0.0747  2.0252
17737TIP3    H274627   5.191   1.578   7.148  1.3354 -1.3614 -1.0071
17738TIP3   OH274628   1.443   2.470   4.545 -0.0251  0.1158  0.6157
17738TIP3    H174629   1.473   2.380   4.558  0.2413 -0.2267 -1.8630
17738TIP3    H274630   1.494   2.521   4.608  0.7198 -1.3195  1.2302
17739TIP3   OH274631   2.801   6.555  14.121  0.4833 -0.3025 -0.1668
17739TIP3    H174632   2.788   6.564  14.026 -0.6036 -0.8843 -0.0888
17739TIP3    H274633   2.882   6.504  14.129  0.7125 -0.0496 -0.7732
17740TIP3   OH274634   2.305   6.064   4.338 -0.0262 -0.4394 -0.2582
17740TIP3    H174635   2.220   6.034   4.370  0.1594 -0.2626  0.4108
17740TIP3    H274636   2.341   5.988   4.291  0.5513 -1.3996  1.6376
17741TIP3   OH274637   6.739   0.740  11.731 -0.0036  0.2154 -0.3736
17741TIP3    H174638   6.644   0.734  11.737 -0.1002  1.7757  0.1316
17741TIP3    H274639   6.762   0.814  11.787  1.4386  0.3332 -1.0667
17742TIP3   OH274640   0.548   1.357  16.384  0.1773  0.5134  0.1776
17742TIP3    H174641   0.607   1.352  16.459  0.5859  1.2803 -0.0823
17742TIP3    H274642   0.497   1.437  16.397 -0.1884  0.3208 -0.0473
17743TIP3   OH274643   0.540   2.752   5.764 -0.3938 -0.3367 -0.1792
17743TIP3    H174644   0.501   2.834   5.734  1.2717  1.4724  2.2278
17743TIP3    H274645   0.466   2.704   5.804 -1.0251  1.0042  0.3328
17744TIP3   OH274646   6.392   6.659  14.496  0.4854 -0.2206 -0.4546
17744TIP3    H174647   6.468   6.702  14.456  0.5581 -0.1135 -0.2064
17744TIP3    H274648   6.426   6.577  14.531  0.6970  0.2462  0.4787
17745TIP3   OH274649   3.824   3.724   1.997 -0.3509 -0.2154  0.0699
17745TIP3    H174650   3.805   3.675   1.917 -0.0539 -0.3712  0.0954
17745TIP3    H274651   3.817   3.816   1.970  1.8693 -0.2011 -0.6906
17746TIP3   OH274652   0.797   1.937  13.615 -0.2695 -0.1257  0.1968
17746TIP3    H174653   0.827   2.007  13.673  0.9267 -1.5517  1.3764
17746TIP3    H274654   0.828   1.857  13.657 -0.1482 -1.2771 -1.9801
17747TIP3   OH274655   5.480   1.674   4.951 -0.5590 -0.1730 -0.3942
17747TIP3    H174656   5.481   1.617   4.875 -0.1346 -1.8451  0.7999
17747TIP3    H274657   5.518   1.621   5.021 -0.7117  1.3814  0.9270
17748TIP3   OH274658   0.666   1.324   4.917  0.0166 -0.5910 -0.0317
17748TIP3    H174659   0.608   1.399   4.929  0.6319  0.0149 -0.7120
17748TIP3    H274660   0.646   1.292   4.829  1.5746  0.4322 -0.8046
17749TIP3   OH274661   3.511   2.571  13.419 -0.8961 -0.0433 -0.2476
17749TIP3    H174662   3.439   2.515  13.447 -1.2470  1.6120  2.5408
17749TIP3    H274663   3.479   2.660  13.436  1.1512  0.8099 -0.6444
17750TIP3   OH274664   6.161   1.257   2.635 -0.5113  0.5883 -0.7008
17750TIP3    H174665   6.184   1.222   2.550 -1.9187 -1.8531 -0.1621
17750TIP3    H274666   6.152   1.180   2.692 -0.9335  2.0342  1.3177
17751TIP3   OH274667   4.544   2.564  16.845 -0.4107 -0.1477  0.1125
17751TIP3    H174668   4.499   2.631  16.794  0.2040  0.0902 -0.1231
17751TIP3    H274669   4.499   2.565  16.930  0.5276  1.6185  0.6510
17752TIP3   OH274670   1.597   2.230  15.826  0.1118 -0.2751  0.3738
17752TIP3    H174671   1.588   2.297  15.895  0.9704 -1.7767  2.0198
17752TIP3    H274672   1.636   2.155  15.870  0.8143 -1.2837 -1.8124
17753TIP3   OH274673   4.429   2.973  16.280 -0.2372 -0.3038 -0.2624
17753TIP3    H174674   4.367   2.973  16.353  1.6930 -2.3274  1.5101
17753TIP3    H274675   4.464   3.062  16.278 -1.3396  0.1603  0.3367
17754TIP3   OH274676   3.476   4.981  12.302  0.4037 -0.0448  0.3577
17754TIP3    H174677   3.479   5.049  12.369 -0.4283 -0.7893  1.1896
17754TIP3    H274678   3.557   4.993  12.252 -0.4437  2.5384 -0.5465
17755TIP3   OH274679   3.566   4.176  14.210 -0.1225 -0.0688 -0.5693
17755TIP3    H174680   3.530   4.213  14.291  1.8301  0.3158  0.1738
17755TIP3    H274681   3.489   4.156  14.157 -1.5130 -0.7761  1.5669
17756TIP3   OH274682   6.243   3.587  15.012 -0.3001  0.2864 -0.5277
17756TIP3    H174683   6.162   3.577  14.963  0.5490 -1.3816 -1.6573
17756TIP3    H274684   6.238   3.676  15.047 -2.5160  0.2921 -0.7029
17757TIP3   OH274685   4.215   3.717   0.113 -0.1824 -0.3410  0.4880
17757TIP3    H174686   4.175   3.800   0.087  0.0406 -0.5253 -0.4735
17757TIP3    H274687   4.306   3.725   0.087 -0.1314 -0.8433  0.5049
17758TIP3   OH274688   6.030   2.240   1.510 -0.1335  0.3450 -0.5255
17758TIP3    H174689   6.026   2.159   1.561  2.1268  0.2539 -0.4304
17758TIP3    H274690   5.952   2.288   1.538 -2.2049 -2.2202 -1.4371
17759TIP3   OH274691   2.898   1.111   0.428  0.2192  0.2390  0.0801
17759TIP3    H174692   2.876   1.058   0.505 -0.3403  0.1751 -0.1183
17759TIP3    H274693   2.832   1.180   0.428  1.2233  1.2411  0.6205
17760TIP3   OH274694   3.297   3.951   3.784 -0.1979  0.4647 -0.1324
17760TIP3    H174695   3.266   3.862   3.767 -1.1185  0.4883  1.2624
17760TIP3    H274696   3.248   4.006   3.723 -0.1249  0.0998 -0.5244
17761TIP3   OH274697   3.480   1.179  13.867  0.6652  0.0657  0.1306
17761TIP3    H174698   3.555   1.137  13.907  0.5221 -1.8807 -1.4809
17761TIP3    H274699   3.428   1.107  13.832 -0.9325  1.4691 -0.5394
17762TIP3   OH274700   2.435   4.819  11.963  0.5188 -0.3769  0.1146
17762TIP3    H174701   2.460   4.902  12.002 -0.9593 -0.1764  0.7071
17762TIP3    H274702   2.516   4.769  11.957  1.2182  0.6400  0.8890
17763TIP3   OH274703   4.162   2.339  13.854 -0.2690 -0.4283  0.2025
17763TIP3    H174704   4.182   2.273  13.788 -1.3477 -1.0975  0.5143
17763TIP3    H274705   4.099   2.397  13.812  1.2363  0.8759 -0.3270
17764TIP3   OH274706   5.813   2.705   5.028  0.5316  0.9106  0.2431
17764TIP3    H174707   5.871   2.763   4.979  0.2859  1.8575  1.0423
17764TIP3    H274708   5.867   2.672   5.100  0.1436  1.6337  0.8711
17765TIP3   OH274709   6.373   6.482   0.487 -0.0803  0.3476  0.4214
17765TIP3    H174710   6.342   6.411   0.543 -1.3509  0.1739 -0.4397
17765TIP3    H274711   6.465   6.492   0.509 -0.6377  0.6541  2.9005
17766TIP3   OH274712   1.794   0.478   1.808 -0.2010  0.3464  0.0123
17766TIP3    H174713   1.807   0.385   1.825  0.1459  0.5674  1.0709
17766TIP3    H274714   1.705   0.484   1.773  0.9538 -0.7537 -3.4913
17767TIP3   OH274715   2.754   2.263  11.458  0.2450 -0.4256 -0.2327
17767TIP3    H174716   2.766   2.169  11.445 -1.0463 -0.7889  0.9668
17767TIP3    H274717   2.756   2.275  11.553  1.0342  0.8717 -0.3811
17768TIP3   OH274718   2.256   2.882  12.583  0.1195 -0.1458  0.2751
17768TIP3    H174719   2.260   2.959  12.640 -1.2246 -0.4557  0.8158
17768TIP3    H274720   2.342   2.842  12.592  1.1813  1.7326 -0.6969
17769TIP3   OH274721   2.449   6.614   1.237 -0.2995 -0.9600 -0.5664
17769TIP3    H174722   2.434   6.709   1.230 -0.1136 -0.7855  1.0248
17769TIP3    H274723   2.543   6.604   1.222 -0.3039 -0.8785 -0.6486
17770TIP3   OH274724   0.445   3.184   0.858 -0.0542 -0.0419 -0.2575
17770TIP3    H174725   0.422   3.267   0.816  1.8497 -0.1268 -1.5727
17770TIP3    H274726   0.529   3.201   0.899 -0.0824 -1.0805  0.2621
17771TIP3   OH274727   0.853   0.559   5.882 -0.8844  0.3284 -0.0034
17771TIP3    H174728   0.837   0.540   5.789  1.7494  0.7266 -0.6178
17771TIP3    H274729   0.866   0.653   5.885  2.5299 -0.0089  0.0276
17772TIP3   OH274730   2.881   0.646   1.737  0.3124  0.0967  0.0582
17772TIP3    H174731   2.813   0.581   1.719 -0.5249  0.9204  0.1518
17772TIP3    H274732   2.877   0.706   1.662  0.7395  0.3156  0.2076
17773TIP3   OH274733   0.038   4.581   5.049 -0.2390  0.2087 -0.3224
17773TIP3    H174734  -0.000   4.552   4.967  4.1115 -0.6702 -2.3373
17773TIP3    H274735  -0.011   4.534   5.117 -1.8378 -1.6498 -2.6107
17774TIP3   OH274736   5.993   4.541  16.903 -0.1909 -0.0189  0.5139
17774TIP3    H174737   6.024   4.631  16.910 -0.0864 -0.0849  0.9367
17774TIP3    H274738   5.990   4.524  16.809  0.0673  0.3287  0.4405
17775TIP3   OH274739   1.279   0.927   5.362 -0.1790 -0.0453 -0.4360
17775TIP3    H174740   1.184   0.934   5.355 -0.3333  0.1297  1.3209
17775TIP3    H274741   1.307   1.011   5.399  0.5336 -0.4366 -0.0516
17776TIP3   OH274742   5.255   4.110   2.772  0.2239 -0.3354 -0.2317
17776TIP3    H174743   5.324   4.082   2.833  0.1547 -0.1549 -0.0702
17776TIP3    H274744   5.178   4.059   2.799  0.2296 -0.3577 -0.2573
17777TIP3   OH274745   0.558   3.612   0.571  0.1316 -0.7862  0.5966
17777TIP3    H174746   0.590   3.570   0.491 -2.0334  0.9906 -1.3471
17777TIP3    H274747   0.552   3.705   0.548 -1.4281 -0.3565  2.4909
17778TIP3   OH274748   4.848   0.676   3.819 -0.2085 -0.2660  0.1746
17778TIP3    H174749   4.863   0.684   3.725  1.1417 -0.6783  0.3235
17778TIP3    H274750   4.857   0.583   3.837  2.5400  0.0751  1.1058
17779TIP3   OH274751   5.417   0.115  14.379  0.7583  0.1181 -0.4810
17779TIP3    H174752   5.408   0.190  14.438 -2.1526 -0.7973  0.4343
17779TIP3    H274753   5.349   0.129  14.313  2.2219 -0.2310 -2.1257
17780TIP3   OH274754   2.615   2.591   5.478  0.5390  0.0586  0.1324
17780TIP3    H174755   2.697   2.604   5.431  1.6129  0.8728  2.0954
17780TIP3    H274756   2.642   2.568   5.567 -1.3793 -0.7142  0.5688
17781TIP3   OH274757   0.309   6.003  15.263 -0.0291 -0.1854 -0.1080
17781TIP3    H174758   0.287   6.000  15.356 -1.4161  0.8548 -0.3618
17781TIP3    H274759   0.231   5.970  15.218  0.0843  0.6402 -0.9465
17782TIP3   OH274760   1.289   4.937  17.116 -0.9780  0.0316  0.1667
17782TIP3    H174761   1.231   4.913  17.044  0.4040  0.3217 -1.1150
17782TIP3    H274762   1.231   4.959  17.189 -2.4869  1.0144 -1.2745
17783TIP3   OH274763   0.719   1.578  11.965 -0.2925  0.3096  0.3444
17783TIP3    H174764   0.765   1.543  12.042  1.0825  1.3289  0.0228
17783TIP3    H274765   0.787   1.586  11.898 -1.4035 -0.2501 -0.8925
17784TIP3   OH274766   3.285   6.291  12.270  0.1268 -0.5469 -0.6194
17784TIP3    H174767   3.245   6.248  12.194 -0.0098 -1.6378  0.0420
17784TIP3    H274768   3.379   6.272  12.261  0.1106 -0.6755 -0.5238
17785TIP3   OH274769   1.488   5.926  14.057  0.1102  0.3284 -0.4939
17785TIP3    H174770   1.438   5.892  14.131  0.5315 -1.0659 -0.8013
17785TIP3    H274771   1.459   6.016  14.047 -1.4649 -0.0779  0.0843
17786TIP3   OH274772   6.343   2.687  11.572 -0.2604  0.0909 -0.3490
17786TIP3    H174773   6.403   2.642  11.513  1.2977  0.7986  0.6538
17786TIP3    H274774   6.331   2.626  11.645 -0.5356  0.0823 -0.3990
17787TIP3   OH274775   4.058   4.270   5.023  0.0785 -0.2210  0.3076
17787TIP3    H174776   4.109   4.321   4.960  1.5170 -0.5272  1.1859
17787TIP3    H274777   3.989   4.230   4.970  0.6579  0.3202 -0.8986
17788TIP3   OH274778   2.929   3.341  14.179 -0.0199 -0.0044 -0.4659
17788TIP3    H174779   2.869   3.303  14.243 -0.5922 -0.4218 -1.2368
17788TIP3    H274780   2.978   3.266  14.145 -1.7762 -0.2900 -2.6581
17789TIP3   OH274781   1.007   6.424  14.351  0.0005  0.0358  0.0910
17789TIP3    H174782   1.066   6.406  14.277 -0.3281  0.4538 -0.2854
17789TIP3    H274783   0.975   6.338  14.378 -0.1206 -0.0994 -0.4665
17790TIP3   OH274784   2.191   2.641  15.883 -0.3834 -0.1838 -0.1545
17790TIP3    H174785   2.236   2.648  15.799 -0.3958  0.0837 -0.1389
17790TIP3    H274786   2.260   2.642  15.949 -0.4732  1.9173 -0.0284
17791TIP3   OH274787   0.898   0.989  14.662 -0.5170 -0.3696 -0.0525
17791TIP3    H174788   0.991   1.008  14.672 -0.6781  1.5404 -1.7093
17791TIP3    H274789   0.896   0.899  14.628  0.7050 -0.4338 -0.0117
17792TIP3   OH274790   2.737   2.361  12.164  0.4983 -0.4550 -0.0850
17792TIP3    H174791   2.788   2.436  12.134  0.3282  0.2342  1.2906
17792TIP3    H274792   2.703   2.387  12.249 -1.7351 -1.1038 -0.7220
17793TIP3   OH274793   6.317   0.457   0.357  0.2643 -0.1413 -0.0730
17793TIP3    H174794   6.336   0.548   0.379  0.6997  0.0518 -1.1807
17793TIP3    H274795   6.403   0.414   0.356  0.2423 -0.1856 -1.1215
17794TIP3   OH274796   2.985   0.636  13.911 -0.1699 -0.0249 -0.4569
17794TIP3    H174797   2.963   0.543  13.913  3.1931 -0.9304  0.2326
17794TIP3    H274798   3.021   0.651  13.824  1.1226  0.0852  0.0684
17795TIP3   OH274799   2.666   0.585   6.011 -0.2198 -0.1654 -0.0202
17795TIP3    H174800   2.590   0.558   6.063  1.0946 -0.7293  1.6870
17795TIP3    H274801   2.706   0.656   6.061  0.8132 -0.3854 -0.5009
17796TIP3   OH274802   3.866   5.009   0.497 -0.4646 -0.7581 -0.2613
17796TIP3    H174803   3.850   5.099   0.524  0.4624  0.0212 -2.1583
17796TIP3    H274804   3.779   4.971   0.486 -1.0279  1.0399 -2.9251
17797TIP3   OH274805   4.883   5.345  14.279 -0.1654 -0.3394 -0.7802
17797TIP3    H174806   4.829   5.306  14.210 -0.2361  1.1219 -1.5857
17797TIP3    H274807   4.892   5.437  14.253 -0.4157  0.3218  1.3031
17798TIP3   OH274808   5.480   0.342   3.840 -0.6663 -0.1192 -0.2588
17798TIP3    H174809   5.448   0.286   3.911 -0.1772 -1.1139 -0.8012
17798TIP3    H274810   5.553   0.390   3.880  0.1916 -1.3416 -0.3171
17799TIP3   OH274811   4.382   2.528  13.835  0.3350 -0.2074  0.0822
17799TIP3    H174812   4.366   2.587  13.908  0.2237 -1.5311  1.1570
17799TIP3    H274813   4.298   2.482  13.823  0.7168 -0.8733 -0.0610
17800TIP3   OH274814   3.044   0.683   3.290  0.3380 -0.5318  0.3158
17800TIP3    H174815   2.978   0.633   3.241 -0.1735  1.0495 -0.6928
17800TIP3    H274816   3.063   0.629   3.367 -2.9132 -0.6044  1.2026
17801TIP3   OH274817   4.842   5.594  14.223  0.2460 -0.6125  0.9792
17801TIP3    H174818   4.896   5.641  14.286  0.6983  0.1008  0.0758
17801TIP3    H274819   4.855   5.640  14.141 -1.5694 -0.5746  0.6831
17802TIP3   OH274820   1.512   2.347   3.793 -0.5833  0.0176  0.0380
17802TIP3    H174821   1.462   2.357   3.874  2.0702  0.3083  1.7387
17802TIP3    H274822   1.520   2.252   3.781 -0.1099 -0.0307  0.7016
17803TIP3   OH274823   3.961   1.024   4.886 -0.8486 -0.6481  0.7099
17803TIP3    H174824   4.043   1.049   4.844 -0.0372 -0.8673  2.1070
17803TIP3    H274825   3.901   1.010   4.813  0.1656  0.1220 -0.3203
17804TIP3   OH274826   4.574   6.515  14.422 -0.1476  0.9393  0.1572
17804TIP3    H174827   4.618   6.472  14.495  0.6151 -0.2031 -0.9224
17804TIP3    H274828   4.481   6.505  14.440  0.0262 -0.3933  0.3950
17805TIP3   OH274829   4.269   5.330  13.830  0.0603 -0.5416  1.0397
17805TIP3    H174830   4.345   5.302  13.778  0.4895  3.2640 -0.7181
17805TIP3    H274831   4.194   5.319  13.771  0.0085  0.4181  0.9171
17806TIP3   OH274832   2.874   4.100   4.374 -0.3892  0.2912  0.3905
17806TIP3    H174833   2.944   4.035   4.377  0.0875  0.7800  0.0672
17806TIP3    H274834   2.824   4.086   4.454 -0.2917 -0.4700  0.3227
17807TIP3   OH274835   0.572   3.639  16.620 -0.5007 -0.6722  0.7468
17807TIP3    H174836   0.638   3.582  16.660 -0.2604  0.0456  1.4052
17807TIP3    H274837   0.494   3.624  16.673 -0.1233  0.4403  1.6684
17808TIP3   OH274838   1.242   0.499  16.980 -0.3057  0.2803 -0.2990
17808TIP3    H174839   1.206   0.587  16.992 -2.9161 -0.8980  1.7606
17808TIP3    H274840   1.164   0.443  16.977  1.3155 -2.1129  0.1646
17809TIP3   OH274841   3.280   1.341  16.776  0.5232 -0.0466 -0.7282
17809TIP3    H174842   3.350   1.392  16.733  1.5216  0.1236  1.0027
17809TIP3    H274843   3.327   1.276  16.828 -0.7123 -1.7048 -1.5981
17810TIP3   OH274844   6.493   0.137  12.683  0.0986  0.2806 -0.1064
17810TIP3    H174845   6.410   0.177  12.660 -0.9642 -1.8216 -0.1285
17810TIP3    H274846   6.556   0.175  12.621 -1.0185  1.1451 -0.7386
17811TIP3   OH274847   5.584   5.172   2.741  0.2760  0.2824 -0.6801
17811TIP3    H174848   5.575   5.088   2.696  1.6058 -0.3323  0.1663
17811TIP3    H274849   5.607   5.234   2.671 -0.6523 -0.0386 -1.2978
17812TIP3   OH274850   6.743   6.014   1.696  0.1320 -0.3373  0.1455
17812TIP3    H174851   6.772   6.088   1.643  0.1743 -0.3990  0.0826
17812TIP3    H274852   6.655   5.995   1.663 -1.1442  1.5772  2.1152
17813TIP3   OH274853   5.099   0.262   2.169 -0.3202  0.0639 -0.1638
17813TIP3    H174854   5.138   0.291   2.252  2.8988 -0.3995 -1.3545
17813TIP3    H274855   5.102   0.340   2.113 -0.0332 -0.2667 -0.6163
17814TIP3   OH274856   1.433   0.301   3.579 -0.8491  0.7258 -0.1008
17814TIP3    H174857   1.360   0.250   3.545  0.4975 -0.9046 -0.6848
17814TIP3    H274858   1.426   0.293   3.674 -0.6568 -0.5887 -0.1821
17815TIP3   OH274859   3.093   1.752   3.992  0.0659 -0.1458 -0.2763
17815TIP3    H174860   3.032   1.799   3.934  2.0244  2.2324 -0.5849
17815TIP3    H274861   3.055   1.762   4.079 -1.1047 -0.6679 -0.7041
17816TIP3   OH274862   2.160   6.638   1.805  0.4075  0.6287 -0.0322
17816TIP3    H174863   2.100   6.571   1.773 -0.9869  1.9609 -0.3610
17816TIP3    H274864   2.224   6.649   1.734 -0.6000  1.0978 -0.9097
17817TIP3   OH274865   4.171   5.786  17.206 -0.5693  0.5649  0.4444
17817TIP3    H174866   4.077   5.783  17.191 -0.4268 -1.0707 -0.2699
17817TIP3    H274867   4.204   5.849  17.142 -0.7130 -1.9142 -2.2730
17818TIP3   OH274868   1.128   5.245   3.974  0.7087 -0.2084  0.0772
17818TIP3    H174869   1.155   5.170   3.921  1.2147 -0.1288  0.2106
17818TIP3    H274870   1.143   5.217   4.065  0.1778 -0.2187  0.1640
17819TIP3   OH274871   5.103   1.184   5.538 -0.7311  0.3343 -0.5669
17819TIP3    H174872   5.103   1.269   5.494  1.0740  1.3736  1.2496
17819TIP3    H274873   5.187   1.145   5.517 -0.7161 -0.0951  0.2362
17820TIP3   OH274874   1.125   0.869  11.217  0.0782 -0.3931  0.7083
17820TIP3    H174875   1.214   0.888  11.187  0.3262 -0.2093  1.5396
17820TIP3    H274876   1.069   0.921  11.160  0.4877 -0.6528  0.0520
17821TIP3   OH274877   1.667   3.575   1.623 -0.2438  0.6118  0.7683
17821TIP3    H174878   1.738   3.542   1.678  1.0505  0.6857 -0.8232
17821TIP3    H274879   1.709   3.632   1.560 -1.5812 -0.0532 -0.8003
17822TIP3   OH274880   0.276   1.227  13.719 -0.0938 -0.1093  0.0393
17822TIP3    H174881   0.349   1.168  13.736  0.0505  0.0522 -0.0255
17822TIP3    H274882   0.316   1.313  13.706 -0.4070  0.3152  1.6370
17823TIP3   OH274883   1.162   2.004   3.975  0.0386  0.2066 -0.2835
17823TIP3    H174884   1.223   2.077   3.990  1.7111 -1.2550  0.3763
17823TIP3    H274885   1.092   2.042   3.922  1.7487  1.8694 -1.4924
17824TIP3   OH274886   2.381   6.174  15.122  0.3142 -0.0796 -0.0450
17824TIP3    H174887   2.414   6.260  15.149  0.0823  0.2228 -0.7194
17824TIP3    H274888   2.301   6.192  15.073  0.8011 -0.6097 -1.0649
17825TIP3   OH274889   3.200   4.980  13.815 -0.7773  0.2652 -0.7229
17825TIP3    H174890   3.164   5.041  13.879  0.1244 -0.1155  0.1704
17825TIP3    H274891   3.242   5.036  13.749  0.0383  0.6390  0.0852
17826TIP3   OH274892   5.551   2.966  13.096  0.4396  0.6205 -0.2877
17826TIP3    H174893   5.556   2.872  13.079  0.5259  0.3513  1.0891
17826TIP3    H274894   5.522   3.004  13.013  1.6459 -0.4646 -1.2399
17827TIP3   OH274895   0.472   1.318  15.135 -0.2374  0.1791  0.0389
17827TIP3    H174896   0.443   1.236  15.093 -0.3325  0.0135  0.4264
17827TIP3    H274897   0.399   1.379  15.120 -0.1004  0.2407 -0.3876
17828TIP3   OH274898   3.311   6.089  15.183  0.1401  0.0251  0.2980
17828TIP3    H174899   3.360   6.171  15.193  0.5346 -0.4070  2.3535
17828TIP3    H274900   3.378   6.024  15.164  0.2559 -0.3475  1.8605
17829TIP3   OH274901   5.359   5.798  12.741  0.4103  1.2117  0.1662
17829TIP3    H174902   5.374   5.824  12.832  0.5877  2.8730 -0.2960
17829TIP3    H274903   5.265   5.813  12.728  0.0058 -0.7037  0.5332
17830TIP3   OH274904   4.396   3.555  11.085 -0.2400 -0.2110 -0.5487
17830TIP3    H174905   4.381   3.570  11.178 -0.1256  0.9629 -0.7084
17830TIP3    H274906   4.480   3.508  11.081  0.0085  0.1863 -0.0837
17831TIP3   OH274907   0.353   3.389  14.160 -0.2429  0.3042  0.5705
17831TIP3    H174908   0.260   3.404  14.174 -0.2997  0.3032  0.2081
17831TIP3    H274909   0.386   3.359  14.245 -0.1995  2.1268  1.2377
17832TIP3   OH274910   1.302   1.339   5.688  0.3561 -0.2469  0.0705
17832TIP3    H174911   1.389   1.334   5.650  0.0676  0.2405 -0.6712
17832TIP3    H274912   1.297   1.265   5.748  1.3725 -0.1263  0.3169
17833TIP3   OH274913   5.400   6.066   1.207 -0.3304 -1.0221 -0.3136
17833TIP3    H174914   5.309   6.096   1.211  0.6335  2.3058 -0.0456
17833TIP3    H274915   5.421   6.043   1.298 -0.8950 -1.8439 -0.3843
17834TIP3   OH274916   0.050   3.866   2.984 -0.0421  0.4271 -0.0847
17834TIP3    H174917   0.078   3.781   3.017  2.1122  1.1090  0.0310
17834TIP3    H274918  -0.000   3.904   3.056 -0.8474 -0.6537 -0.0666
17835TIP3   OH274919   5.429   0.083   6.272  0.1636  0.4822 -0.1569
17835TIP3    H174920   5.353   0.138   6.291 -0.8628  0.2178 -3.0297
17835TIP3    H274921   5.461   0.114   6.187  2.1609 -0.6263  0.1180
17836TIP3   OH274922   6.650   3.038  12.328 -0.4706 -0.0411 -0.4347
17836TIP3    H174923   6.668   3.131  12.340 -1.7871  0.2610 -0.6115
17836TIP3    H274924   6.598   3.013  12.404 -1.0674 -0.3525 -0.9346
17837TIP3   OH274925   5.215   0.310  13.785 -0.2820  0.5088  0.0815
17837TIP3    H174926   5.308   0.331  13.781 -0.4619  1.0614 -2.1204
17837TIP3    H274927   5.179   0.373  13.848  0.5062  1.6036 -0.5469
17838TIP3   OH274928   0.687   1.746   5.857  0.1704 -0.0671 -0.2728
17838TIP3    H174929   0.772   1.774   5.821  0.1822 -1.9500 -1.8775
17838TIP3    H274930   0.707   1.720   5.947  0.5613  2.7727  0.5608
17839TIP3   OH274931   1.188   2.863   2.495  0.2321  0.1575 -0.4995
17839TIP3    H174932   1.201   2.857   2.589  0.5469 -2.2854 -0.6253
17839TIP3    H274933   1.094   2.882   2.485  0.3306  1.0876  0.3017
17840TIP3   OH274934   1.107   5.105  13.193  0.3462  0.2841 -0.6061
17840TIP3    H174935   1.131   5.197  13.189  0.0937  0.3734 -0.0934
17840TIP3    H274936   1.013   5.104  13.209  0.0465 -0.0716 -2.2134
17841TIP3   OH274937   1.635   5.672  15.837 -0.5126  0.1652 -0.0583
17841TIP3    H174938   1.624   5.758  15.797 -2.7107  0.4746  1.0908
17841TIP3    H274939   1.661   5.615  15.764 -0.9301  1.4158 -1.2135
17842TIP3   OH274940   4.959   1.599  13.631 -0.0487  0.9215 -0.2201
17842TIP3    H174941   4.868   1.611  13.659 -0.1093  3.0965 -1.1952
17842TIP3    H274942   4.999   1.547  13.701 -1.8388  0.5826  0.5961
17843TIP3   OH274943   6.083   5.255   5.444  0.0989  0.0370  0.1087
17843TIP3    H174944   6.154   5.280   5.385 -0.4352  0.2926 -0.4457
17843TIP3    H274945   6.113   5.174   5.485  0.4934 -0.1405 -0.5116
17844TIP3   OH274946   0.134   5.310   1.867 -0.3383  0.0040 -0.5512
17844TIP3    H174947   0.155   5.325   1.959 -1.3926  0.5724 -0.3852
17844TIP3    H274948   0.207   5.349   1.820 -1.2118  2.4866 -0.0059
17845TIP3   OH274949   1.113   2.220  13.808  0.2714  0.2536  0.2415
17845TIP3    H174950   1.125   2.131  13.841  2.3831  1.1739  2.2725
17845TIP3    H274951   1.197   2.264  13.825  0.1015  2.0313 -2.8292
17846TIP3   OH274952   3.298   2.110  14.241 -0.5177  0.0783  0.1277
17846TIP3    H174953   3.279   2.192  14.286  1.6019  1.4487 -1.3211
17846TIP3    H274954   3.346   2.136  14.162  1.3634 -2.6214  0.2524
17847TIP3   OH274955   0.396   0.660   6.600  0.2828 -0.3510 -0.3897
17847TIP3    H174956   0.447   0.591   6.557  0.2184 -0.5927 -0.0775
17847TIP3    H274957   0.315   0.665   6.549  0.4860 -0.1801 -0.6993
17848TIP3   OH274958   0.146   1.630  11.894  0.1810 -0.2736 -0.5655
17848TIP3    H174959   0.118   1.720  11.879  0.1942 -0.1741 -0.0072
17848TIP3    H274960   0.226   1.638  11.946 -0.1674 -0.6165  0.0405
17849TIP3   OH274961   1.641   6.580   3.672 -0.2394  0.4629 -0.3125
17849TIP3    H174962   1.710   6.534   3.625 -1.2287 -1.4520 -0.0040
17849TIP3    H274963   1.632   6.531   3.754 -0.4124  2.0806  0.6650
17850TIP3   OH274964   1.590   5.170  15.954  0.0284  0.0601  0.0470
17850TIP3    H174965   1.556   5.250  15.994 -0.1837  0.5462 -1.0406
17850TIP3    H274966   1.595   5.191  15.860 -1.3576 -1.6475 -0.4755
17851TIP3   OH274967   4.480   5.590   1.524  0.1901  0.2401 -0.3390
17851TIP3    H174968   4.484   5.583   1.619 -0.8772  1.9454 -0.1384
17851TIP3    H274969   4.464   5.500   1.494 -1.0010 -0.0923  1.1837
17852TIP3   OH274970   6.627   0.190   4.110 -0.3333  0.4656 -0.8967
17852TIP3    H174971   6.683   0.155   4.040  2.4501  0.8811  0.9651
17852TIP3    H274972   6.554   0.129   4.114  1.6786 -2.1569 -1.2519
17853TIP3   OH274973   1.759   2.387   0.601 -0.6082 -0.7143 -0.3902
17853TIP3    H174974   1.798   2.443   0.668 -0.9723  1.0452 -1.5559
17853TIP3    H274975   1.831   2.331   0.572  0.2015  0.1839 -0.1935
17854TIP3   OH274976   5.701   4.816  10.988  0.0893 -0.3641  0.5436
17854TIP3    H174977   5.701   4.739  10.931  1.5579 -0.3929  0.5566
17854TIP3    H274978   5.782   4.862  10.967  1.1599 -0.8443  3.2098
17855TIP3   OH274979   5.676   1.511   2.636 -1.1749  0.1475  0.1794
17855TIP3    H174980   5.654   1.581   2.575 -0.9202  1.1016  1.1636
17855TIP3    H274981   5.771   1.502   2.630 -1.3369 -1.1733 -1.0467
17856TIP3   OH274982   2.826   5.475  13.710  0.6380 -0.3412  0.5759
17856TIP3    H174983   2.789   5.473  13.622 -1.5379 -1.3504  1.4405
17856TIP3    H274984   2.758   5.439  13.766  2.0486  0.0253  2.6696
17857TIP3   OH274985   5.266   4.975   4.290 -0.6298  0.0044  0.3770
17857TIP3    H174986   5.311   5.000   4.371 -0.8070  2.0146 -0.0900
17857TIP3    H274987   5.174   4.974   4.314 -0.5704 -1.3297  0.6393
17858TIP3   OH274988   1.073   0.301  16.361  0.1095 -0.0854 -0.4467
17858TIP3    H174989   1.165   0.326  16.360 -0.0889  0.6984 -1.8575
17858TIP3    H274990   1.063   0.241  16.288 -1.1355  2.5213 -2.5940
17859TIP3   OH274991   3.946   0.016  16.596  0.4445  0.5114 -0.7177
17859TIP3    H174992   4.012  -0.034  16.548 -0.0956  0.7672 -1.7578
17859TIP3    H274993   3.893   0.057  16.528  0.2092  1.6323  0.1180
17860TIP3   OH274994   2.620   6.731  17.023  0.0004 -0.0119  0.1583
17860TIP3    H174995   2.610   6.821  16.991  0.3328 -1.0248 -3.1718
17860TIP3    H274996   2.714   6.714  17.017 -0.3139 -1.3375 -1.7665
17861TIP3   OH274997   6.509   6.568  13.275  0.4757 -0.5301  0.3405
17861TIP3    H174998   6.592   6.614  13.261  0.1489 -0.3558 -1.1943
17861TIP3    H274999   6.458   6.587  13.197 -1.4278  0.1790  1.6853
17862TIP3   OH275000   1.088   2.189   3.368  0.0786  0.2514  0.4863
17862TIP3    H175001   1.123   2.103   3.389 -0.6952 -0.3493 -0.6074
17862TIP3    H275002   1.143   2.220   3.295  0.6487  0.8983  1.1711
17863TIP3   OH275003   5.021   4.902   0.125  0.0733 -0.2948 -0.2419
17863TIP3    H175004   4.934   4.897   0.166  1.5659  0.8855  3.4810
17863TIP3    H275005   5.059   4.816   0.140  0.7823  0.2662  1.5155
17864TIP3   OH275006   2.661   6.550   0.774  0.3589 -0.3376  1.2055
17864TIP3    H175007   2.658   6.639   0.808  3.3166  0.3536 -0.0294
17864TIP3    H275008   2.726   6.505   0.829  2.3054 -0.3145 -0.9208
17865TIP3   OH275009   0.076   6.165  13.903  0.1661  0.1279  0.1103
17865TIP3    H175010   0.072   6.255  13.873 -0.3261  0.0444 -0.0892
17865TIP3    H275011   0.147   6.126  13.852 -0.3174  0.1255 -0.5895
17866TIP3   OH275012   2.589   0.176   5.058  0.8736  0.2313 -0.0876
17866TIP3    H175013   2.511   0.129   5.027  0.0458  2.2536 -1.2606
17866TIP3    H275014   2.657   0.109   5.059 -0.3604 -1.1301 -1.1696
17867TIP3   OH275015   2.350   3.903  13.386  1.0699  0.0606 -0.1968
17867TIP3    H175016   2.266   3.858  13.398  1.0736  0.1210  0.0563
17867TIP3    H275017   2.333   3.966  13.316  0.9364 -0.0108 -0.2298
17868TIP3   OH275018   6.406   6.068   4.454 -0.6767  0.4326 -0.1982
17868TIP3    H175019   6.368   6.064   4.541  1.7254 -0.2755  0.9090
17868TIP3    H275020   6.369   6.147   4.415 -3.1843 -0.2009  0.7227
17869TIP3   OH275021   5.651   0.515  14.756 -0.2765  0.3380  0.4274
17869TIP3    H175022   5.578   0.545  14.810 -0.3345  0.1354  0.4604
17869TIP3    H275023   5.625   0.428  14.726  1.1576 -0.9756  2.7371
17870TIP3   OH275024   2.241   1.256   5.218 -0.5069  0.3623  0.4848
17870TIP3    H175025   2.184   1.331   5.204 -0.5802  0.5084  1.4606
17870TIP3    H275026   2.293   1.249   5.138 -0.6615  1.3085  0.2963
17871TIP3   OH275027   6.064   4.193  13.257  0.3250  0.4232 -0.0738
17871TIP3    H175028   5.988   4.197  13.314  1.4270  0.1626  1.4620
17871TIP3    H275029   6.050   4.264  13.194 -0.8020  0.8801  0.6587
17872TIP3   OH275030   0.509   5.816  10.655 -0.0953  0.3905  0.1589
17872TIP3    H175031   0.478   5.809  10.564  1.9821  0.6753 -0.6230
17872TIP3    H275032   0.506   5.727  10.688 -0.3533  0.1936 -0.3772
17873TIP3   OH275033   4.989   4.995   4.321  0.5303  0.4583 -0.0374
17873TIP3    H175034   4.919   4.988   4.386 -1.0053  1.2783 -1.4944
17873TIP3    H275035   4.952   4.952   4.243  1.6384  0.9716 -0.8584
17874TIP3   OH275036   0.313   0.537  13.787 -0.3480  0.2741 -0.1817
17874TIP3    H175037   0.231   0.518  13.741 -1.0305  0.7573  0.7831
17874TIP3    H275038   0.304   0.628  13.814  1.0130  0.6845 -1.0416
17875TIP3   OH275039   3.205   2.652   0.720 -0.6900  0.1646  0.0677
17875TIP3    H175040   3.143   2.718   0.689 -0.5254 -0.6484 -2.1459
17875TIP3    H275041   3.290   2.683   0.689 -0.5910 -0.9633 -0.8340
17876TIP3   OH275042   0.548   3.161  16.279  0.1657 -0.5114  0.1786
17876TIP3    H175043   0.545   3.085  16.337 -0.8644 -1.8636 -1.5695
17876TIP3    H275044   0.459   3.197  16.281  0.5275  0.4114  0.6293
17877TIP3   OH275045   6.192   6.173   6.189 -0.0038  0.1466  0.1517
17877TIP3    H175046   6.107   6.200   6.223 -1.2925 -1.7462 -1.4157
17877TIP3    H275047   6.192   6.200   6.098  0.5100 -1.0668 -0.2279
17878TIP3   OH275048   5.891   1.776  12.498 -0.0582 -0.4624  0.1776
17878TIP3    H175049   5.884   1.737  12.585  1.0563 -3.8692 -1.1094
17878TIP3    H275050   5.826   1.731  12.445  1.5745 -1.0052 -1.5071
17879TIP3   OH275051   6.157   5.904   3.544  0.3137 -0.0859 -0.2220
17879TIP3    H175052   6.120   5.816   3.534 -0.9622  0.4519 -0.5254
17879TIP3    H275053   6.116   5.938   3.623  0.5292  0.3616 -0.3036
17880TIP3   OH275054   5.344   0.512   5.514 -0.6939  0.3128 -0.2752
17880TIP3    H175055   5.431   0.497   5.477 -1.7595  0.4659 -3.0948
17880TIP3    H275056   5.336   0.607   5.521 -0.6697  0.2999 -0.0417
17881TIP3   OH275057   1.794   5.908   2.152 -0.4539 -0.7169  0.0333
17881TIP3    H175058   1.848   5.834   2.126 -0.9127 -1.6663  1.6278
17881TIP3    H275059   1.704   5.876   2.146 -0.6325 -0.5263  1.3074
17882TIP3   OH275060   4.055   0.192  16.983 -0.4013 -0.2045  0.4995
17882TIP3    H175061   4.102   0.199  16.900 -0.0765 -1.1666  0.5963
17882TIP3    H275062   3.975   0.144  16.961 -0.2547 -0.5735  0.7651
17883TIP3   OH275063   4.645   6.594  12.489  0.0740 -0.3086  0.0076
17883TIP3    H175064   4.620   6.542  12.566 -0.1477 -0.8951 -0.4478
17883TIP3    H275065   4.737   6.616  12.504 -0.2956  0.6211  1.0080
17884TIP3   OH275066   6.423   2.025  15.952  0.0768  0.3056  0.6867
17884TIP3    H175067   6.405   2.106  15.998 -0.4121 -0.2231  1.4491
17884TIP3    H275068   6.377   1.958  16.002  2.7353 -0.8751  1.7219
17885TIP3   OH275069   3.218   5.145  14.415  0.7362  0.4918 -0.0042
17885TIP3    H175070   3.199   5.106  14.330 -1.0312 -1.5933  1.2488
17885TIP3    H275071   3.171   5.229  14.413 -1.8502 -0.8599 -0.0753
17886TIP3   OH275072   5.075   1.785   2.457  0.4546  0.1490  0.2579
17886TIP3    H175073   5.084   1.866   2.508 -1.6142  1.9534 -2.0018
17886TIP3    H275074   5.031   1.725   2.516 -0.4618  1.6159  1.1373
17887TIP3   OH275075   3.098   0.667   4.224 -0.4651 -0.4444  0.4271
17887TIP3    H175076   3.142   0.628   4.299 -2.2677  0.7753  2.2542
17887TIP3    H275077   3.061   0.593   4.176  0.9261 -1.2653  0.5688
17888TIP3   OH275078   0.535   0.553   4.600 -0.3684  0.0811 -0.1318
17888TIP3    H175079   0.604   0.568   4.665  0.0933 -0.1488 -0.5658
17888TIP3    H275080   0.483   0.634   4.602  0.7384  0.8230 -0.7993
17889TIP3   OH275081   4.890   2.025   1.009  0.4712 -0.2355 -0.2475
17889TIP3    H175082   4.965   2.077   1.039  1.2282 -1.5304  0.2035
17889TIP3    H275083   4.818   2.053   1.066  1.2238 -0.6861  0.9852
17890TIP3   OH275084   0.251   4.425   1.181 -0.7938 -0.2531  0.3300
17890TIP3    H175085   0.183   4.449   1.118  0.5164  0.4398 -0.8826
17890TIP3    H275086   0.281   4.339   1.153 -1.1345 -0.5431  0.8416
17891TIP3   OH275087   3.577   3.021   5.731 -0.2540  0.4333 -0.2514
17891TIP3    H175088   3.532   3.097   5.695 -0.3227  0.5581  0.0945
17891TIP3    H275089   3.508   2.959   5.751 -0.2534  0.5269  0.0476
17892TIP3   OH275090   1.480   4.589  14.729  0.1241 -0.4202 -0.3545
17892TIP3    H175091   1.533   4.576  14.808 -0.8321  0.2146  0.4189
17892TIP3    H275092   1.480   4.504  14.685  0.7768 -0.7448  0.2560
17893TIP3   OH275093   3.761   0.623  14.873  0.3943 -0.3565  0.1855
17893TIP3    H175094   3.746   0.599  14.964 -0.1474  0.7253  0.4003
17893TIP3    H275095   3.834   0.685  14.875 -1.1236  1.5252  0.1961
17894TIP3   OH275096   1.717   5.479   0.165  0.0791 -0.7219 -0.5091
17894TIP3    H175097   1.704   5.559   0.216  1.9838  0.2251 -1.3892
17894TIP3    H275098   1.669   5.412   0.213 -1.3546  0.8808  0.4157
17895TIP3   OH275099   2.200   0.322  11.971 -0.1002  0.6767 -0.5301
17895TIP3    H175100   2.220   0.377  12.046  0.5827  2.4593 -1.9642
17895TIP3    H275101   2.108   0.340  11.951 -1.0923 -1.6902  1.3046
17896TIP3   OH275102   3.491   0.516   3.166 -0.3324 -0.5393 -0.2435
17896TIP3    H175103   3.420   0.452   3.156 -0.1246 -0.8271  0.1058
17896TIP3    H275104   3.569   0.462   3.182 -0.4273 -0.1521  1.6700
17897TIP3   OH275105   4.373   1.384   1.238 -0.2588 -0.6355 -0.4094
17897TIP3    H175106   4.326   1.319   1.185  1.6405  0.0805 -3.1170
17897TIP3    H275107   4.450   1.407   1.187  1.6848  0.2567  2.6302
17898TIP3   OH275108   2.254   3.799  17.260 -0.2413  0.3342 -0.3018
17898TIP3    H175109   2.275   3.706  17.253 -1.5101 -0.1428  1.4583
17898TIP3    H275110   2.335   3.840  17.292  0.5153 -0.0230 -1.6774
17899TIP3   OH275111   4.009   0.718   3.818 -0.2309  0.1979  0.2928
17899TIP3    H175112   3.934   0.723   3.759  0.7105  0.6869 -0.8965
17899TIP3    H275113   4.045   0.630   3.805 -0.5166  0.0017  0.7836
17900TIP3   OH275114   4.341   5.202  16.773  0.3623 -0.5940 -0.0890
17900TIP3    H175115   4.419   5.214  16.827  0.0482  1.5431 -0.0147
17900TIP3    H275116   4.363   5.244  16.690 -0.6010 -0.2169 -0.1666
17901TIP3   OH275117   6.601   1.647   1.674 -0.1886 -0.2133  0.0288
17901TIP3    H175118   6.526   1.662   1.617 -1.2696 -0.8379  1.2501
17901TIP3    H275119   6.623   1.555   1.662 -1.2122 -0.6829  1.4996
17902TIP3   OH275120   1.437   3.929  12.853  0.2445 -0.1454  0.5063
17902TIP3    H175121   1.425   4.005  12.910 -0.8327  0.5305 -0.5689
17902TIP3    H275122   1.468   3.860  12.911  1.0017  1.0348  1.5593
17903TIP3   OH275123   6.341   1.391   1.879 -0.0634 -0.8039 -0.0973
17903TIP3    H175124   6.288   1.414   1.802  0.6429  0.6537 -0.1836
17903TIP3    H275125   6.330   1.465   1.938 -0.4806 -1.8442  1.1825
17904TIP3   OH275126   6.073   3.335  15.925 -0.1894  0.5134 -0.3615
17904TIP3    H175127   6.094   3.294  16.009  0.5703  0.4679 -0.5661
17904TIP3    H275128   6.059   3.262  15.865 -2.2469  0.5073  0.0482
17905TIP3   OH275129   2.082   6.494   4.963  0.1813 -0.0399 -0.5733
17905TIP3    H175130   2.039   6.443   5.032  0.2263  1.7235  0.8078
17905TIP3    H275131   2.021   6.491   4.889 -0.4114 -0.9623 -0.0658
17906TIP3   OH275132   6.266   6.224  13.322 -0.5065  0.3181  0.0093
17906TIP3    H175133   6.345   6.174  13.304 -0.2770  0.5858  0.2550
17906TIP3    H275134   6.290   6.280  13.396 -1.0877  0.0322  0.4152
17907TIP3   OH275135   4.524   1.545   4.692 -0.0319 -0.4565  0.0599
17907TIP3    H175136   4.458   1.477   4.702 -0.0273 -0.7422 -1.6312
17907TIP3    H275137   4.499   1.592   4.613  1.5954 -0.3554 -0.4338
17908TIP3   OH275138   5.537   2.639   0.151 -0.3544  0.1189 -0.0934
17908TIP3    H175139   5.503   2.605   0.233 -1.3310 -1.5100 -1.1204
17908TIP3    H275140   5.577   2.723   0.174 -2.2623  0.6000  1.7027
17909TIP3   OH275141   4.766   1.520   5.078  0.7676 -0.0035  0.3792
17909TIP3    H175142   4.758   1.555   4.989  1.4093  0.3987  0.4734
17909TIP3    H275143   4.762   1.596   5.135  2.4505 -0.0041  0.5669
17910TIP3   OH275144   5.920   2.701  17.207  0.3349 -0.5021  0.0554
17910TIP3    H175145   5.845   2.672  17.155 -0.3325 -0.9654  1.2389
17910TIP3    H275146   5.892   2.784  17.246  0.5159 -0.5791  0.3492
17911TIP3   OH275147   5.108   0.453   1.054  0.1831 -0.1995  0.5651
17911TIP3    H175148   5.056   0.393   1.108  1.0071 -0.9358  0.5714
17911TIP3    H275149   5.183   0.475   1.109 -0.9507  2.2719  1.2551
17912TIP3   OH275150   0.003   3.606  16.811  0.0341 -0.0056 -0.5081
17912TIP3    H175151  -0.045   3.667  16.867  1.1689  0.0517  0.4165
17912TIP3    H275152  -0.016   3.520  16.849  1.4709  0.1000  0.5002
17913TIP3   OH275153   1.223   3.544   0.619 -0.3218  0.1229  0.3543
17913TIP3    H175154   1.192   3.458   0.646 -0.0868  0.2350  0.9950
17913TIP3    H275155   1.283   3.527   0.547 -1.2151 -0.1567 -0.3457
17914TIP3   OH275156   3.461   1.823   6.150 -0.3010  0.5087 -0.0327
17914TIP3    H175157   3.519   1.860   6.216 -0.8224 -0.8474  1.2225
17914TIP3    H275158   3.481   1.873   6.070  1.4319  1.1380  0.7494
17915TIP3   OH275159   5.460   1.956   5.270  0.2258 -0.2350  0.6468
17915TIP3    H175160   5.501   2.015   5.207 -0.5311  0.3188  0.6599
17915TIP3    H275161   5.419   2.014   5.334 -1.6848 -0.7232 -0.0587
17916TIP3   OH275162   3.133   1.752   2.550 -0.1025 -0.4538 -0.0122
17916TIP3    H175163   3.091   1.838   2.553  0.0948 -0.3698  2.6524
17916TIP3    H275164   3.071   1.694   2.594  1.6709 -0.6905  2.3867
17917TIP3   OH275165   2.964   1.108   3.464  0.2329  0.1445 -0.6230
17917TIP3    H175166   2.998   1.026   3.428  1.0099  0.1851 -0.0032
17917TIP3    H275167   2.877   1.086   3.497 -0.1534 -0.0847 -1.7662
17918TIP3   OH275168   1.523   2.069  15.173 -0.2537 -0.0003  1.0914
17918TIP3    H175169   1.556   2.131  15.238 -0.5667  0.4072  0.8674
17918TIP3    H275170   1.598   2.013  15.153  0.7134  1.6569 -0.3067
17919TIP3   OH275171   0.710   3.592   3.315 -1.2831  0.3337  0.3617
17919TIP3    H175172   0.690   3.670   3.367  0.8337  1.4333 -0.3629
17919TIP3    H275173   0.791   3.613   3.270 -1.0139 -2.0495 -0.4249
17920TIP3   OH275174   1.424   5.469  14.776  0.4064  0.7178  0.0543
17920TIP3    H175175   1.478   5.425  14.842 -1.7184  0.4182  1.6945
17920TIP3    H275176   1.356   5.405  14.755 -0.8763  2.0455  0.0700
17921TIP3   OH275177   6.282   4.183  11.373  0.5348 -0.4560  0.2770
17921TIP3    H175178   6.240   4.097  11.370  1.1302 -0.7440 -0.1016
17921TIP3    H275179   6.361   4.173  11.320  0.0146  0.6637 -0.7598
17922TIP3   OH275180   2.996   3.411   0.727 -0.2429 -0.3800  0.0429
17922TIP3    H175181   3.004   3.348   0.655 -0.2686 -0.4322  0.0857
17922TIP3    H275182   3.015   3.360   0.805 -2.3063 -0.8518  0.2984
17923TIP3   OH275183   6.268   3.349  13.652  0.4955 -0.8595  0.4664
17923TIP3    H175184   6.311   3.414  13.708 -0.5603 -0.0381  0.3721
17923TIP3    H275185   6.316   3.268  13.667  2.5532  0.1565 -0.2179
17924TIP3   OH275186   2.708   6.561  12.914 -0.3142  0.2963  0.3738
17924TIP3    H175187   2.752   6.588  12.995  0.0578 -1.7284  0.8892
17924TIP3    H275188   2.758   6.486  12.883 -0.5087  0.9687 -1.7205
17925TIP3   OH275189   3.307   3.516  12.830  0.1180  0.4665  0.0494
17925TIP3    H175190   3.326   3.542  12.740 -1.0790  0.8789 -0.0995
17925TIP3    H275191   3.352   3.432  12.840  1.4587  1.0989 -0.4565
17926TIP3   OH275192   3.448   2.640  16.839  0.2655 -0.4068  0.2599
17926TIP3    H175193   3.410   2.615  16.923  0.7273 -0.3500  0.4863
17926TIP3    H275194   3.473   2.732  16.850 -0.0353 -0.2799 -0.0729
17927TIP3   OH275195   0.381   4.146  12.426  0.3477 -0.0313  0.3039
17927TIP3    H175196   0.340   4.222  12.386  0.6745  1.0228  1.8612
17927TIP3    H275197   0.330   4.130  12.505  2.2625  0.7011  1.7692
17928TIP3   OH275198   0.250   4.729  11.976 -0.5050 -0.1344 -0.1454
17928TIP3    H175199   0.220   4.774  11.897 -0.0618 -0.7752 -0.6846
17928TIP3    H275200   0.320   4.671  11.946 -1.6389 -1.8486  0.3750
17929TIP3   OH275201   6.522   3.728   2.179 -0.1792  0.0492  0.0699
17929TIP3    H175202   6.466   3.721   2.257  0.4881 -1.8684  0.4284
17929TIP3    H275203   6.469   3.776   2.115 -0.2194  3.0059  2.1152
17930TIP3   OH275204   5.301   6.293  13.040 -0.2165 -0.6861 -0.2215
17930TIP3    H175205   5.364   6.286  12.969  1.2321  2.5162  0.5823
17930TIP3    H275206   5.250   6.371  13.019 -1.3605 -1.0318  1.1030
17931TIP3   OH275207   4.870   3.219  15.482 -0.9652  0.1441  0.4937
17931TIP3    H175208   4.774   3.213  15.481 -0.9041 -2.3814  1.6088
17931TIP3    H275209   4.892   3.247  15.570 -0.6494  0.3344  0.3567
17932TIP3   OH275210   3.181   6.505  13.841 -0.5055  0.2837  0.1726
17932TIP3    H175211   3.170   6.410  13.834 -1.2732  0.4129 -0.7255
17932TIP3    H275212   3.275   6.518  13.847 -0.2658 -0.4664 -1.3792
17933TIP3   OH275213   3.933   4.013   4.959  0.0868  0.2835  0.0554
17933TIP3    H175214   3.894   3.973   5.037 -0.1307 -0.4919 -0.4474
17933TIP3    H275215   3.860   4.054   4.914 -0.1137 -0.8681 -0.7029
17934TIP3   OH275216   3.668   3.649   2.695  0.2971  0.2963 -0.2516
17934TIP3    H175217   3.728   3.621   2.764  0.1677 -1.4523 -0.7988
17934TIP3    H275218   3.587   3.601   2.713 -0.2895  1.1013 -0.6734
17935TIP3   OH275219   1.273   3.552   3.429 -0.0561 -0.8415  0.2658
17935TIP3    H175220   1.207   3.588   3.489 -1.2693 -3.1565  0.4173
17935TIP3    H275221   1.278   3.616   3.358 -2.3969 -0.5035  0.3283
17936TIP3   OH275222   1.032   0.504   0.902  0.1886  0.2804 -0.3396
17936TIP3    H175223   1.095   0.538   0.965  1.2948 -1.8598 -0.1963
17936TIP3    H275224   0.963   0.570   0.898 -0.2318  0.2766  3.5313
17937TIP3   OH275225   0.400   4.080  15.188 -0.1618 -0.4980  0.7062
17937TIP3    H175226   0.337   4.143  15.223 -0.5321 -0.6993  0.4037
17937TIP3    H275227   0.348   4.018  15.137  0.3640 -0.2344 -0.1772
17938TIP3   OH275228   2.638   0.081  16.244  0.0302  0.0416  0.6970
17938TIP3    H175229   2.647   0.137  16.321  0.2817 -0.2551  0.8922
17938TIP3    H275230   2.706   0.014  16.256 -1.5277 -1.4685  1.4777
17939TIP3   OH275231   1.757   1.533   4.973  0.1401  0.3329 -0.0557
17939TIP3    H175232   1.678   1.579   4.947  0.8268  0.9770 -1.0419
17939TIP3    H275233   1.750   1.526   5.069  0.0523  2.5847  0.1607
17940TIP3   OH275234   2.209   4.389  17.230 -0.6356  0.0204 -0.0049
17940TIP3    H175235   2.182   4.314  17.176  0.8016 -0.3054 -0.3091
17940TIP3    H275236   2.182   4.365  17.319 -0.7885 -0.5532 -0.1977
17941TIP3   OH275237   5.105   0.122  15.632 -0.1125 -0.5599  0.4755
17941TIP3    H175238   5.196   0.149  15.622 -0.7981  1.5568 -0.6295
17941TIP3    H275239   5.091   0.120  15.727  0.6425  0.8316  0.6458
17942TIP3   OH275240   4.393   4.233  16.760  0.4988 -0.3897  1.0691
17942TIP3    H175241   4.449   4.260  16.687 -0.2989 -1.6916 -0.0895
17942TIP3    H275242   4.352   4.314  16.790  2.1956  0.4389  1.2965
17943TIP3   OH275243   5.819   4.436   4.804  0.0888 -0.0931 -0.6753
17943TIP3    H175244   5.836   4.376   4.731  0.2280 -1.9880  0.8226
17943TIP3    H275245   5.727   4.460   4.795  0.1128 -0.2941 -1.4928
17944TIP3   OH275246   0.318   6.035  11.969  0.2195 -0.0252  0.2368
17944TIP3    H175247   0.357   6.014  11.884  0.9203  2.8500 -0.2561
17944TIP3    H275248   0.321   5.953  12.018  2.8620 -0.9822 -1.3331
17945TIP3   OH275249   3.035   0.711  15.405 -0.1467 -0.0009  0.0229
17945TIP3    H175250   2.961   0.653  15.420 -0.4576  0.1631 -0.8324
17945TIP3    H275251   3.081   0.673  15.330  1.9016 -1.3332  1.8338
17946TIP3   OH275252   1.685   1.110  16.934  0.0226  0.2589  0.2286
17946TIP3    H175253   1.685   1.198  16.894  1.8669  0.9797  1.6496
17946TIP3    H275254   1.745   1.060  16.879 -0.6448  0.0130 -0.2894
17947TIP3   OH275255   5.114   2.353  11.235  0.7876  0.2425 -0.0189
17947TIP3    H175256   5.144   2.444  11.232 -1.0729  0.8726 -0.6120
17947TIP3    H275257   5.088   2.333  11.145  0.0173 -0.4622  0.3477
17948TIP3   OH275258   5.148   0.086  14.793 -0.7508  0.0716 -0.1966
17948TIP3    H175259   5.146   0.172  14.751  0.4751  1.2229  1.8930
17948TIP3    H275260   5.092   0.031  14.739 -2.6210  2.5162 -0.9336
17949TIP3   OH275261   5.531   4.889  11.481  0.1708  0.5958 -0.1752
17949TIP3    H175262   5.534   4.921  11.571  1.3970 -0.1128  0.0586
17949TIP3    H275263   5.604   4.827  11.475 -0.6039 -0.2517 -1.3198
17950TIP3   OH275264   5.234   6.195   2.859 -0.4790 -0.3035 -0.3631
17950TIP3    H175265   5.149   6.220   2.896 -0.4629 -0.7785  0.0081
17950TIP3    H275266   5.276   6.278   2.837 -1.3956 -0.0926 -1.3851
17951TIP3   OH275267   2.996   1.873  12.690 -0.1016 -0.0137 -0.1149
17951TIP3    H175268   2.954   1.957  12.710 -0.4053 -0.2781  0.4010
17951TIP3    H275269   3.030   1.883  12.602  1.8905  1.4709  0.7413
17952TIP3   OH275270   5.857   3.272  12.780 -0.3464 -0.5701 -0.3723
17952TIP3    H175271   5.920   3.284  12.850 -3.3271 -0.9737  2.6729
17952TIP3    H275272   5.866   3.350  12.725  0.6061  0.9468  1.7894
17953TIP3   OH275273   0.213   3.749  15.136 -0.4476  0.0336 -0.3475
17953TIP3    H175274   0.207   3.718  15.045 -0.6789  0.2228 -0.3985
17953TIP3    H275275   0.126   3.786  15.154 -0.0231  1.1139 -0.4556
17954TIP3   OH275276   4.768   0.611   0.033  1.0652 -0.5194  0.2009
17954TIP3    H175277   4.800   0.672   0.100  0.8472 -1.9704  1.6923
17954TIP3    H275278   4.683   0.582   0.066  0.4309 -0.4193 -1.2893
17955TIP3   OH275279   1.029   5.880   1.946 -0.4181  0.3387  0.4504
17955TIP3    H175280   1.115   5.906   1.981 -0.0202 -0.8555  0.3911
17955TIP3    H275281   1.035   5.785   1.934 -0.9027  0.5295 -1.8103
17956TIP3   OH275282   5.386   0.188   4.046 -0.8862 -0.7733 -0.4525
17956TIP3    H175283   5.389   0.213   4.138  1.2171  0.3944 -0.7677
17956TIP3    H275284   5.381   0.092   4.047  3.3118 -1.1721  1.0237
17957TIP3   OH275285   0.373   2.163   1.795  0.0455 -0.1284 -0.5765
17957TIP3    H175286   0.453   2.207   1.766 -1.0398  0.7784 -2.4113
17957TIP3    H275287   0.305   2.196   1.736 -1.2046 -2.9092 -0.8471
17958TIP3   OH275288   3.856   5.372   2.879  0.0578 -0.5707 -0.5684
17958TIP3    H175289   3.951   5.363   2.886 -0.0574 -1.0657  0.4990
17958TIP3    H275290   3.826   5.286   2.848 -0.1616 -0.8875  0.4827
17959TIP3   OH275291   5.322   1.169  14.310 -0.6009 -0.3135 -0.0216
17959TIP3    H175292   5.270   1.214  14.243 -0.7435 -1.4722 -0.7179
17959TIP3    H275293   5.261   1.152  14.381 -1.3075 -1.9603 -0.9733
17960TIP3   OH275294   4.162   0.177   6.705  0.3137 -0.1765  0.1043
17960TIP3    H175295   4.191   0.267   6.718  1.3652 -0.6106  1.0355
17960TIP3    H275296   4.067   0.182   6.699  0.3827  1.0159 -0.0542
17961TIP3   OH275297   2.956   5.877  16.843  0.0287 -0.1158 -0.2105
17961TIP3    H175298   2.954   5.799  16.897  1.1778  0.2985  0.4604
17961TIP3    H275299   2.873   5.922  16.862 -1.9559 -2.4264 -2.6129
17962TIP3   OH275300   3.599   5.370   0.904 -0.2861  0.1102  0.0327
17962TIP3    H175301   3.682   5.412   0.923 -0.9639  0.8954  1.3674
17962TIP3    H275302   3.563   5.420   0.831 -0.0167  0.3498  0.0628
17963TIP3   OH275303   0.774   4.899  14.338  0.0035  0.4603 -0.0479
17963TIP3    H175304   0.733   4.880  14.254 -0.5381 -1.3991  0.5801
17963TIP3    H275305   0.856   4.942  14.316 -0.5187  0.7671 -1.4784
17964TIP3   OH275306   1.367   1.323  13.373  0.1411 -0.7172  0.1199
17964TIP3    H175307   1.427   1.395  13.391  0.4216 -1.0875  0.6901
17964TIP3    H275308   1.307   1.323  13.448 -0.8712 -0.0663 -0.6521
17965TIP3   OH275309   6.039   4.566   3.208 -0.4245  0.3348  0.6914
17965TIP3    H175310   5.960   4.570   3.262 -0.1095 -1.5015  1.3500
17965TIP3    H275311   6.099   4.629   3.249 -0.1613 -1.0906  2.6065
17966TIP3   OH275312   4.447   2.508  12.016 -0.0785 -0.1757  0.4919
17966TIP3    H175313   4.523   2.566  12.019  0.4937 -0.9448  1.8222
17966TIP3    H275314   4.377   2.558  12.057 -0.5390  0.8119 -1.3798
17967TIP3   OH275315   6.196   0.640  12.162  0.0521 -0.2090 -0.0212
17967TIP3    H175316   6.230   0.607  12.079  1.8697  0.1291  0.5547
17967TIP3    H275317   6.259   0.707  12.189 -1.0215  0.3605  1.1675
17968TIP3   OH275318   0.998   1.970   1.886 -0.4405 -0.0210 -0.4667
17968TIP3    H175319   0.969   1.892   1.840 -2.3642  1.1062 -1.3020
17968TIP3    H275320   1.067   2.007   1.831 -0.2422 -0.5677 -0.5884
17969TIP3   OH275321   2.259   1.664   6.011 -0.1554 -0.3620 -0.0653
17969TIP3    H175322   2.291   1.743   6.054  0.3499 -0.3403 -0.4798
17969TIP3    H275323   2.177   1.692   5.969  0.1821  0.0296 -0.4805
17970TIP3   OH275324   1.171   1.689   6.119  0.1001 -0.0528 -0.2525
17970TIP3    H175325   1.148   1.675   6.211  0.2060  1.1611 -0.0356
17970TIP3    H275326   1.259   1.653   6.111  0.3808  0.5059  0.2968
17971TIP3   OH275327   5.286   0.912   4.096 -0.0457 -0.5212  0.5781
17971TIP3    H175328   5.275   0.817   4.093 -1.5068 -0.4479  1.9413
17971TIP3    H275329   5.356   0.930   4.034  0.6359 -2.5373  0.6669
17972TIP3   OH275330   0.420   3.702   4.228 -0.7006  0.1535 -0.2843
17972TIP3    H175331   0.391   3.716   4.138 -0.4665  1.1912 -0.2064
17972TIP3    H275332   0.339   3.699   4.280 -0.8615 -0.8943 -0.5731
17973TIP3   OH275333   5.752   6.329  14.183  0.6913 -0.1472  0.2730
17973TIP3    H175334   5.703   6.247  14.195 -0.7889  0.9254  2.0220
17973TIP3    H275335   5.730   6.356  14.094 -1.5527  0.0142  0.8188
17974TIP3   OH275336   0.650   2.640  11.453  0.2789 -0.1390  0.1831
17974TIP3    H175337   0.590   2.664  11.382 -1.4534 -0.0427  1.6229
17974TIP3    H275338   0.624   2.551  11.477  1.8149 -0.7301 -0.2216
17975TIP3   OH275339   5.420   0.400  16.356 -0.5963 -0.7210  0.0449
17975TIP3    H175340   5.393   0.480  16.401 -0.4040 -0.5295 -0.1754
17975TIP3    H275341   5.347   0.378  16.298  0.3435  0.7256 -1.8026
17976TIP3   OH275342   6.594   5.847   2.448 -0.3215 -0.2060 -0.7886
17976TIP3    H175343   6.552   5.761   2.444 -1.0511  0.1412 -0.8638
17976TIP3    H275344   6.522   5.909   2.432 -0.0507  0.4688  0.5114
17977TIP3   OH275345   0.959   3.090  11.885 -0.4195 -0.3984  0.6066
17977TIP3    H175346   0.904   3.038  11.945  0.8602 -0.6993  1.5489
17977TIP3    H275347   0.977   3.031  11.812  1.1071 -1.3776  1.7178
17978TIP3   OH275348   5.896   4.713   3.614  0.2433  0.8695 -0.0700
17978TIP3    H175349   5.845   4.749   3.686 -1.7063 -2.5342  0.4626
17978TIP3    H275350   5.973   4.769   3.609 -1.5766  3.8023  1.7912
17979TIP3   OH275351   3.468   2.482  14.049  0.2037 -0.5845 -0.9559
17979TIP3    H175352   3.426   2.568  14.044  0.9084 -0.2315 -0.9163
17979TIP3    H275353   3.495   2.464  13.959 -0.6128 -1.1169 -1.1062
17980TIP3   OH275354   2.642   6.598   0.083 -0.5925  0.0218  0.3649
17980TIP3    H175355   2.644   6.645  -0.001 -0.6200  0.5306  0.6459
17980TIP3    H275356   2.734   6.577   0.100 -0.5731  0.0256  0.2671
17981TIP3   OH275357   3.734   6.568  14.981 -0.3786 -0.4012  0.1027
17981TIP3    H175358   3.679   6.548  15.057 -1.6461  0.9542 -0.4213
17981TIP3    H275359   3.810   6.611  15.018 -0.3598 -0.9259  0.7098
17982TIP3   OH275360   0.571   3.344   5.805  0.2354 -0.1521 -0.6450
17982TIP3    H175361   0.505   3.299   5.857 -0.5788  0.0633 -1.4735
17982TIP3    H275362   0.527   3.365   5.723  1.4117 -0.2293 -1.3142
17983TIP3   OH275363   4.054   4.153  16.079 -0.0339 -0.0010 -0.1637
17983TIP3    H175364   4.148   4.156  16.096  0.0045 -0.2658 -0.3245
17983TIP3    H275365   4.014   4.194  16.156  0.1238 -1.2919  0.6377
17984TIP3   OH275366   4.219   1.259  16.441  0.0012 -0.8691 -0.8148
17984TIP3    H175367   4.212   1.279  16.535  0.7220 -0.5808 -0.8201
17984TIP3    H275368   4.201   1.165  16.436  0.0713 -0.9092 -0.3697
17985TIP3   OH275369   1.234   4.026   1.016 -0.3827  0.4543 -0.5034
17985TIP3    H175370   1.200   4.065   1.097 -1.3164 -0.6957 -0.3118
17985TIP3    H275371   1.264   4.100   0.964 -2.2739  1.4537 -0.2464
17986TIP3   OH275372   6.193   3.864  17.475 -0.1177 -0.3694  0.3571
17986TIP3    H175373   6.182   3.783  17.426 -0.7395 -1.2387  1.8558
17986TIP3    H275374   6.282   3.860  17.510  0.5582  0.5505 -1.1501
17987TIP3   OH275375   4.904   0.939   2.366 -0.2085 -0.1906 -0.5764
17987TIP3    H175376   4.917   0.846   2.347 -0.1526 -0.4519  0.6515
17987TIP3    H275377   4.877   0.941   2.458 -1.0669  0.9419 -0.8292
17988TIP3   OH275378   0.299   6.220   1.412  0.3914  0.1635  0.3429
17988TIP3    H175379   0.303   6.125   1.402  0.5835 -0.1286  2.6252
17988TIP3    H275380   0.386   6.244   1.443  0.6278  1.2491 -1.0478
17989TIP3   OH275381   4.581   4.625   0.595  0.8423  0.4267  0.2396
17989TIP3    H175382   4.607   4.649   0.506  0.3198  1.4490  0.3521
17989TIP3    H275383   4.547   4.536   0.586 -2.1584  1.5795 -1.2319
17990TIP3   OH275384   5.090   2.084   5.824  0.2326  0.0657 -0.4520
17990TIP3    H175385   5.056   2.145   5.890  0.4376  1.2861 -1.4249
17990TIP3    H275386   5.087   2.134   5.742  2.7449 -0.3178 -0.8703
17991TIP3   OH275387   3.584   4.896  11.308 -0.0796  0.0108 -0.1768
17991TIP3    H175388   3.547   4.888  11.221 -1.3241 -0.7220  0.3934
17991TIP3    H275389   3.542   4.973  11.346 -0.3024 -0.2621  0.1343
17992TIP3   OH275390   2.353   3.325  13.853 -0.7877 -0.7279  0.4311
17992TIP3    H175391   2.369   3.381  13.778 -0.2634 -0.4781  0.7257
17992TIP3    H275392   2.258   3.312  13.854 -0.7883 -0.8086 -0.3214
17993TIP3   OH275393   0.692   0.586   4.009  0.3469 -0.1840 -0.3761
17993TIP3    H175394   0.709   0.593   4.103 -0.9050  1.9530 -0.2272
17993TIP3    H275395   0.612   0.638   3.996  1.2406  0.6913 -2.8163
17994TIP3   OH275396   1.327   0.632  12.902 -0.2151  0.5373 -0.4789
17994TIP3    H175397   1.303   0.540  12.893 -0.8809  0.6624 -0.0321
17994TIP3    H275398   1.259   0.679  12.855 -0.0163  0.8205 -0.4854
17995TIP3   OH275399   2.239   3.788   6.888 -0.3017  0.2809 -0.1114
17995TIP3    H175400   2.295   3.809   6.963 -0.4972  0.3936  0.0020
17995TIP3    H275401   2.259   3.857   6.824 -0.2081  0.2407 -0.1269
17996TIP3   OH275402   4.421   5.848  13.202  0.0353  0.2799 -0.4773
17996TIP3    H175403   4.508   5.882  13.181 -0.2481  0.8920 -0.6967
17996TIP3    H275404   4.438   5.777  13.264  0.7230  0.0429 -0.9238
17997TIP3   OH275405   4.573   3.134  15.271 -0.5346  1.2718  0.0796
17997TIP3    H175406   4.598   3.217  15.229 -0.4855  0.7787 -0.8836
17997TIP3    H275407   4.571   3.155  15.365 -1.9699  2.7503 -0.2357
17998TIP3   OH275408   6.648   5.477   2.136  0.1413 -0.2384 -0.0458
17998TIP3    H175409   6.568   5.448   2.179  1.3895 -0.1395  2.5079
17998TIP3    H275410   6.714   5.481   2.206  2.0297  1.0782 -1.7577
17999TIP3   OH275411   0.513   3.794   2.445  0.2236  0.5376  0.2639
17999TIP3    H175412   0.426   3.768   2.415  0.9214 -1.5799 -0.1311
17999TIP3    H275413   0.522   3.756   2.532  0.7971  0.6239  0.2524
18000TIP3   OH275414   6.507   2.762   1.518  0.0314  0.1619  0.2406
18000TIP3    H175415   6.589   2.734   1.558  0.9896  0.5880 -1.3391
18000TIP3    H275416   6.439   2.735   1.580  1.1829 -2.0505  0.6347
18001TIP3   OH275417   3.266   4.529   1.399  0.7924  0.8129 -0.0645
18001TIP3    H175418   3.276   4.578   1.481  0.7008  1.1375 -0.2474
18001TIP3    H275419   3.173   4.536   1.377  1.0321  1.7490 -0.8291
18002TIP3   OH275420   2.612   2.165  13.826 -0.1021  0.3417  0.5851
18002TIP3    H175421   2.545   2.204  13.768  0.8969  2.4340  0.7323
18002TIP3    H275422   2.693   2.173  13.777  0.1824 -1.5557  0.6889
18003TIP3   OH275423   3.805   2.029  12.769  0.0382 -0.0352  0.8609
18003TIP3    H175424   3.775   2.106  12.817  1.9653  0.0626  2.0410
18003TIP3    H275425   3.826   2.062  12.681 -0.9270  0.3657  0.7689
18004TIP3   OH275426   0.187   3.262  12.316  0.0828 -0.0805 -0.6829
18004TIP3    H175427   0.250   3.322  12.358 -1.8058  0.6415  1.3273
18004TIP3    H275428   0.101   3.297  12.340 -1.1341 -3.4459  0.4321
18005TIP3   OH275429   3.306   1.128   3.639 -0.1096 -0.2468  0.2180
18005TIP3    H175430   3.313   1.190   3.711 -3.9864  1.0913 -0.3175
18005TIP3    H275431   3.250   1.172   3.575  0.3826 -2.7265 -2.1006
18006TIP3   OH275432   2.858   3.899   3.191 -0.1250 -0.3869  0.0763
18006TIP3    H175433   2.775   3.851   3.182 -0.4798  0.2689 -0.2980
18006TIP3    H275434   2.851   3.970   3.127  0.2633  0.3267  0.8017
18007TIP3   OH275435   1.502   2.843   4.473  0.4687 -0.0998 -0.4580
18007TIP3    H175436   1.433   2.908   4.461 -0.6432 -1.1605  0.0517
18007TIP3    H275437   1.577   2.893   4.505  0.0429  1.1088 -1.2644
18008TIP3   OH275438   2.851   2.297  13.035  0.1405 -0.5028 -0.0860
18008TIP3    H175439   2.757   2.306  13.051  0.2022  0.2463 -0.1534
18008TIP3    H275440   2.863   2.203  13.020 -0.5592 -0.6366  0.1557
18009TIP3   OH275441   6.536   0.644   2.461  0.5071  0.4311  0.2020
18009TIP3    H175442   6.456   0.605   2.497  0.3946  0.2889 -0.1920
18009TIP3    H275443   6.510   0.733   2.436  0.7511  0.7502  1.0553
18010TIP3   OH275444   4.898   2.574  11.195 -0.3672  0.3071  0.3464
18010TIP3    H175445   4.810   2.610  11.193 -0.7849 -0.6691  0.7381
18010TIP3    H275446   4.890   2.491  11.242  0.9329  0.6782  1.3208
18011TIP3   OH275447   5.610   1.467   5.813  0.3531  0.2199 -0.0728
18011TIP3    H175448   5.639   1.463   5.904  1.2224  2.2077 -0.2078
18011TIP3    H275449   5.532   1.523   5.815  0.7235  0.7660 -0.5993
18012TIP3   OH275450   0.957   1.318   3.320 -0.3735 -0.0451  0.2628
18012TIP3    H175451   1.050   1.323   3.298 -0.2741  1.3164  0.8751
18012TIP3    H275452   0.945   1.230   3.356  0.5373 -0.4576 -0.4061
18013TIP3   OH275453   5.149   6.149   1.093  0.4653  0.3847  0.0146
18013TIP3    H175454   5.063   6.119   1.122  0.1648 -1.9931 -2.8294
18013TIP3    H275455   5.143   6.244   1.090 -1.2209  0.4105  2.0787
18014TIP3   OH275456   6.566   5.800  13.700 -0.3198  0.0945  0.2897
18014TIP3    H175457   6.579   5.860  13.627  0.1588 -0.6475 -0.2568
18014TIP3    H275458   6.564   5.713  13.659  2.0394 -0.5299  1.3403
18015TIP3   OH275459   0.549   4.558  16.119  0.1417 -0.1663 -0.2413
18015TIP3    H175460   0.472   4.614  16.128  0.2207 -0.0942 -0.0027
18015TIP3    H275461   0.620   4.617  16.095  0.3779 -0.0528  0.6918
18016TIP3   OH275462   5.488   6.309   3.086  0.2121  0.0820 -0.3044
18016TIP3    H175463   5.532   6.390   3.061 -1.3792  0.9059 -0.5801
18016TIP3    H275464   5.505   6.249   3.013 -1.2386  1.2400 -1.6863
18017TIP3   OH275465   2.473   5.632  11.995  0.1563  0.4312 -0.2029
18017TIP3    H175466   2.457   5.709  11.941  0.4174 -0.2588 -1.2788
18017TIP3    H275467   2.434   5.559  11.947  1.6456 -0.4163 -0.1878
18018TIP3   OH275468   4.374   0.440  14.206  0.1470  0.4147  0.0979
18018TIP3    H175469   4.432   0.400  14.271  0.1818  1.4051  0.6936
18018TIP3    H275470   4.353   0.368  14.146 -1.1095 -0.9310  2.0306
18019TIP3   OH275471   1.093   2.685   4.963  0.8505 -0.1821  0.5239
18019TIP3    H175472   1.152   2.729   4.902 -0.9943 -0.4918 -1.6216
18019TIP3    H275473   1.119   2.593   4.959  0.0794 -0.3743 -0.6880
18020TIP3   OH275474   3.331   6.416   5.765  0.1616  0.1379  0.3724
18020TIP3    H175475   3.316   6.477   5.837  1.0947  1.1911 -0.2943
18020TIP3    H275476   3.367   6.470   5.695 -0.0260 -1.0002 -0.6271
18021TIP3   OH275477   4.413   5.984  16.816 -0.1246  0.3446  0.2841
18021TIP3    H175478   4.445   6.072  16.838  1.0011 -0.2788  1.2257
18021TIP3    H275479   4.444   5.928  16.887 -0.9112 -0.8123 -0.2480
18022TIP3   OH275480   5.242   4.173  14.884 -0.2656  0.3303 -0.2172
18022TIP3    H175481   5.261   4.239  14.950 -1.4072  0.8922 -0.4322
18022TIP3    H275482   5.166   4.207  14.837 -1.8844 -1.8457  0.6833
18023TIP3   OH275483   4.944   6.649   6.550 -0.3019 -0.1608  0.0661
18023TIP3    H175484   4.886   6.574   6.539 -0.2290 -0.4769  1.5218
18023TIP3    H275485   4.891   6.725   6.529 -0.3984 -0.6067 -1.3645
18024TIP3   OH275486   0.377   1.419  15.378  0.2414 -0.0291  0.3908
18024TIP3    H175487   0.440   1.390  15.312  1.3202 -0.5091  1.5999
18024TIP3    H275488   0.403   1.508  15.399  0.5940 -0.2633  0.9658
18025TIP3   OH275489   0.840   2.584  12.349 -0.1570 -0.1911 -0.2001
18025TIP3    H175490   0.811   2.510  12.295 -0.3074  0.2851 -0.7904
18025TIP3    H275491   0.784   2.657  12.321  0.5966  0.3699 -0.2891
18026TIP3   OH275492   1.622   2.957  14.752  0.0538  0.1822  0.2811
18026TIP3    H175493   1.533   2.925  14.736  0.4091 -0.1180 -1.2151
18026TIP3    H275494   1.656   2.901  14.821  0.3104 -2.1465 -1.6071
18027TIP3   OH275495   3.651   5.759  13.168  0.1421 -0.0573 -0.0676
18027TIP3    H175496   3.674   5.836  13.220 -2.2153  1.9780 -1.7979
18027TIP3    H275497   3.665   5.787  13.077  0.0504 -2.0214 -0.7353
18028TIP3   OH275498   1.781   0.353   0.354 -1.1128  0.2362 -0.5650
18028TIP3    H175499   1.810   0.413   0.285 -0.8674  0.1502 -0.5370
18028TIP3    H275500   1.725   0.289   0.309 -0.8208  0.0844 -0.7102
18029TIP3   OH275501   3.059   5.738   2.661  0.1027  0.1290 -0.0999
18029TIP3    H175502   3.077   5.751   2.568  1.3607  1.6201  0.3065
18029TIP3    H275503   3.080   5.822   2.701 -0.3497 -0.5087  1.5602
18030TIP3   OH275504   4.801   1.254   4.446  0.1223 -0.0348  0.4691
18030TIP3    H175505   4.874   1.194   4.430  0.3921  0.6052 -0.8559
18030TIP3    H275506   4.733   1.226   4.386 -0.6751 -0.4991  1.5594
18031TIP3   OH275507   5.185   4.009   4.855 -0.2742  0.7772 -0.3470
18031TIP3    H175508   5.189   4.098   4.821 -2.1722  0.8851 -0.4011
18031TIP3    H275509   5.259   4.003   4.916 -0.3620  2.5325 -0.0297
18032TIP3   OH275510   6.305   1.071   4.990 -0.2078 -0.0904  0.2819
18032TIP3    H175511   6.304   1.149   4.934 -1.0848 -0.6781 -0.5543
18032TIP3    H275512   6.331   1.104   5.076  0.5193  0.9404 -0.3139
18033TIP3   OH275513   3.002   5.254  16.666  0.2437  0.1000  0.5067
18033TIP3    H175514   2.957   5.208  16.596 -2.0183 -0.2571  2.0926
18033TIP3    H275515   3.077   5.296  16.623 -2.2581  1.8123 -2.5388
18034TIP3   OH275516   3.430   2.144  11.759  1.2797  0.1655 -0.6603
18034TIP3    H175517   3.338   2.145  11.783  1.7249 -1.5507  1.4302
18034TIP3    H275518   3.434   2.087  11.682  0.7567 -1.2514  0.3188
18035TIP3   OH275519   6.676   4.767   2.606 -0.4486 -0.0229  0.5587
18035TIP3    H175520   6.721   4.715   2.673 -0.3166  0.4731  0.8586
18035TIP3    H275521   6.709   4.733   2.523 -0.5142 -0.5524  0.7449
18036TIP3   OH275522   5.153   2.602  12.713 -0.1483  0.5961  0.3527
18036TIP3    H175523   5.099   2.531  12.679 -0.4809  1.0793 -0.1351
18036TIP3    H275524   5.222   2.613  12.648  1.4174 -0.9799  1.6521
18037TIP3   OH275525   1.941   1.402   2.538 -0.4363  0.1596 -0.4537
18037TIP3    H175526   2.023   1.452   2.534  0.2036 -0.7667  0.4100
18037TIP3    H275527   1.969   1.311   2.539 -1.4870 -0.1712 -0.2707
18038TIP3   OH275528   6.160   4.623  13.631 -0.2026  0.0508  0.1352
18038TIP3    H175529   6.221   4.588  13.566 -0.6166 -2.1605  0.8573
18038TIP3    H275530   6.080   4.641  13.582  0.1880  0.5173 -0.3462
18039TIP3   OH275531   4.534   3.733   0.062  0.0647  0.1567  0.5976
18039TIP3    H175532   4.546   3.669   0.132  0.1765 -1.4954 -0.8635
18039TIP3    H275533   4.603   3.712  -0.002 -1.8508 -0.3797 -1.4141
18040TIP3   OH275534   6.180   4.030  11.720 -0.2250 -0.2194  0.1403
18040TIP3    H175535   6.094   3.997  11.746  0.8809 -2.5935  1.0352
18040TIP3    H275536   6.219   4.062  11.801 -0.2056  0.8413 -0.2612
18041TIP3   OH275537   6.573   5.491   1.332  0.6334 -0.4942 -0.4605
18041TIP3    H175538   6.651   5.443   1.359  0.8240 -1.3795 -2.4120
18041TIP3    H275539   6.501   5.430   1.345  0.5508 -0.4327 -0.6197
18042TIP3   OH275540   1.171   5.263   1.930 -0.6229  0.8249  0.6187
18042TIP3    H175541   1.188   5.175   1.963 -1.0958  0.2226 -0.6661
18042TIP3    H275542   1.077   5.265   1.915 -0.3978  0.9766 -0.8942
18043TIP3   OH275543   3.942   5.556  15.139  0.3560 -0.2014 -0.0893
18043TIP3    H175544   4.033   5.537  15.115  0.4893  0.0757  0.1940
18043TIP3    H275545   3.892   5.483  15.102  0.6827 -0.3167 -0.3104
18044TIP3   OH275546   5.401   3.796   1.685 -0.6490 -0.4878 -0.0927
18044TIP3    H175547   5.419   3.719   1.630  0.8730  0.2525 -0.6760
18044TIP3    H275548   5.485   3.818   1.724 -0.3984  2.4122 -1.9779
18045TIP3   OH275549   4.258   1.863  12.192 -0.7353  0.6030 -0.5941
18045TIP3    H175550   4.174   1.818  12.201 -0.1010 -0.4374  0.4822
18045TIP3    H275551   4.241   1.952  12.223 -0.9370 -0.2362  2.0004
18046TIP3   OH275552   3.359   0.745  14.333 -0.1153  0.1401  0.0604
18046TIP3    H175553   3.376   0.798  14.411 -0.3619 -0.5473  0.5879
18046TIP3    H275554   3.389   0.657  14.357 -2.5863 -0.7034  0.3560
18047TIP3   OH275555   3.864   5.418   5.059  0.1951 -0.0569  0.0207
18047TIP3    H175556   3.924   5.477   5.014 -0.5286  1.2379  0.7064
18047TIP3    H275557   3.777   5.445   5.031 -0.2881  0.8331  2.1766
18048TIP3   OH275558   3.897   0.293  11.130  0.1239  1.1235  0.5296
18048TIP3    H175559   3.843   0.365  11.162 -1.0687  0.5594 -0.1363
18048TIP3    H275560   3.907   0.309  11.037  1.1194  1.2103  0.6418
18049TIP3   OH275561   5.147   5.399   2.470 -0.8774 -0.0346  0.4367
18049TIP3    H175562   5.229   5.403   2.520 -0.3634  0.8225 -0.4565
18049TIP3    H275563   5.154   5.319   2.419  0.0712  0.7655 -0.7342
18050TIP3   OH275564   3.621   4.652   1.846 -0.0468  0.3699 -0.2772
18050TIP3    H175565   3.687   4.608   1.792 -0.4413 -0.0667 -0.4023
18050TIP3    H275566   3.543   4.598   1.838 -0.2775  0.6156  0.2773
18051TIP3   OH275567   3.714   6.171   4.663 -0.1788 -0.3266  0.3330
18051TIP3    H175568   3.753   6.129   4.586  3.0019 -0.2818  1.8036
18051TIP3    H275569   3.701   6.262   4.637 -0.6591 -0.6581 -0.6404
18052TIP3   OH275570   3.801   3.502  11.695  0.2389  0.4932  0.3738
18052TIP3    H175571   3.751   3.555  11.633  0.0357 -1.8624 -1.6369
18052TIP3    H275572   3.736   3.446  11.737  0.4617  1.6333  2.3934
18053TIP3   OH275573   4.301   1.097  15.760 -0.2239 -0.1028 -0.5734
18053TIP3    H175574   4.293   1.079  15.667  1.7060 -0.3403 -0.7285
18053TIP3    H275575   4.213   1.127  15.786 -0.7590  0.1159 -2.4683
18054TIP3   OH275576   0.607   3.450   3.077  0.3869 -0.0414  0.0160
18054TIP3    H175577   0.520   3.417   3.100  0.0566 -0.0153 -1.1636
18054TIP3    H275578   0.612   3.536   3.120 -0.0602 -0.1597  0.3130
18055TIP3   OH275579   1.510   3.395   3.475 -0.4587  0.0860 -0.0745
18055TIP3    H175580   1.436   3.452   3.455 -0.3376  0.7987  1.3831
18055TIP3    H275581   1.506   3.382   3.569  0.8781 -0.4264 -0.0627
18056TIP3   OH275582   2.927   4.631   4.079 -0.1043  0.0079  0.3986
18056TIP3    H175583   2.871   4.649   4.004  1.0494  0.5091 -0.3612
18056TIP3    H275584   2.894   4.548   4.114 -1.2718  0.2584 -0.0531
18057TIP3   OH275585   4.209   3.515  15.804  0.1754 -0.0334 -0.1363
18057TIP3    H175586   4.261   3.593  15.825 -0.5555 -0.0393  1.8299
18057TIP3    H275587   4.268   3.442  15.820 -0.2929 -0.0284  1.8539
18058TIP3   OH275588   2.730   4.106   2.994  0.1091  0.2376  0.0510
18058TIP3    H175589   2.646   4.098   3.039  0.5803  1.4156  1.1845
18058TIP3    H275590   2.718   4.180   2.935 -0.5291 -1.3394 -1.9152
18059TIP3   OH275591   0.307   3.040   0.156  0.1736 -0.2511  0.0119
18059TIP3    H175592   0.358   3.120   0.140  0.7046 -0.3467  1.1331
18059TIP3    H275593   0.365   2.985   0.208 -1.8834  0.6666  3.6110
18060TIP3   OH275594   3.548   3.475  11.245 -0.2203 -0.0528  0.0718
18060TIP3    H175595   3.542   3.401  11.305 -1.1623  1.4245  1.9151
18060TIP3    H275596   3.581   3.438  11.163 -0.3590 -2.4176  1.0266
18061TIP3   OH275597   1.570   1.699   2.771  0.3622 -0.3804 -0.5381
18061TIP3    H175598   1.505   1.687   2.840  0.1697 -3.2326 -1.0655
18061TIP3    H275599   1.635   1.630   2.787  0.9083 -0.3921 -2.4945
18062TIP3   OH275600   6.720   2.320  14.157 -0.0952  0.1151  0.6820
18062TIP3    H175601   6.748   2.266  14.231  3.5549  0.4631 -0.2664
18062TIP3    H275602   6.772   2.289  14.083 -1.1689  1.9828 -0.9571
18063TIP3   OH275603   4.832   6.461  15.009  0.0029 -0.3248 -0.0178
18063TIP3    H175604   4.827   6.367  14.989  2.2378 -1.1422  2.5771
18063TIP3    H275605   4.925   6.476  15.025 -0.4950  2.0324  0.9893
18064TIP3   OH275606   0.862   2.243   1.119 -0.2922  0.3280  0.3177
18064TIP3    H175607   0.886   2.314   1.060  1.7955 -0.1867  0.4847
18064TIP3    H275608   0.857   2.284   1.206 -0.0489  0.4394  0.2777
18065TIP3   OH275609   3.076   1.525  17.027 -0.2656 -0.5182 -0.4659
18065TIP3    H175610   3.076   1.434  16.999 -1.6444 -0.6947  0.0088
18065TIP3    H275611   3.168   1.548  17.037  0.0950 -1.8642 -0.5747
18066TIP3   OH275612   0.981   4.252   5.157 -0.2949 -0.3258  0.0109
18066TIP3    H175613   0.906   4.211   5.115 -0.5346 -0.1109  0.2309
18066TIP3    H275614   0.977   4.344   5.129  0.0391 -0.3740 -0.1976
18067TIP3   OH275615   3.608   3.629  11.501 -0.1189 -0.4000 -0.0786
18067TIP3    H175616   3.595   3.561  11.434  2.2567 -1.3020  0.2819
18067TIP3    H275617   3.519   3.652  11.529 -1.0446 -2.6178 -0.9594
18068TIP3   OH275618   3.992   5.543   6.639 -0.1402  0.0313  0.9808
18068TIP3    H175619   3.977   5.472   6.701 -0.4029 -0.0436  0.8347
18068TIP3    H275620   3.911   5.594   6.642 -0.3577 -0.2707  0.3138
18069TIP3   OH275621   1.574   6.625  17.075 -0.0422 -0.0037  0.2852
18069TIP3    H175622   1.570   6.583  17.160 -0.2190 -1.5590 -0.4589
18069TIP3    H275623   1.493   6.600  17.031  0.6264 -0.3215 -0.8163
18070TIP3   OH275624   3.371   1.974  11.557 -0.1741 -0.0061  0.7747
18070TIP3    H175625   3.298   1.917  11.534 -2.0669  0.6987  4.2364
18070TIP3    H275626   3.360   2.051  11.502  0.6642 -1.6334 -1.8352
18071TIP3   OH275627   5.052   1.171   2.373  0.1126  0.3025 -0.1095
18071TIP3    H175628   5.003   1.090   2.366  2.1688 -1.1839  1.2582
18071TIP3    H275629   5.018   1.213   2.453 -0.6833  0.6074 -0.6016
18072TIP3   OH275630   2.945   3.422  16.292  0.3770 -0.1122 -0.2374
18072TIP3    H175631   2.948   3.470  16.209  1.3839  0.2539 -0.0009
18072TIP3    H275632   3.000   3.473  16.351 -0.0811 -0.5439  0.5697
18073TIP3   OH275633   1.507   0.983   2.564  0.1099  0.4294 -0.1310
18073TIP3    H175634   1.530   0.953   2.652  2.3573  2.7765  0.2071
18073TIP3    H275635   1.514   0.905   2.509  0.4458 -0.7091  1.4636
18074TIP3   OH275636   2.678   2.267   5.233  0.2544 -0.4164 -0.5008
18074TIP3    H175637   2.681   2.196   5.169 -1.6455 -0.1699 -0.9327
18074TIP3    H275638   2.585   2.278   5.252  0.6562  0.6252  1.0831
18075TIP3   OH275639   0.864   1.725   6.382  0.2517 -0.1024  0.0738
18075TIP3    H175640   0.815   1.653   6.423 -0.3260 -1.0499 -2.1327
18075TIP3    H275641   0.956   1.706   6.404  0.1164 -1.5676 -0.4531
18076TIP3   OH275642   2.791   6.623  11.396  0.2650  0.1239 -0.4158
18076TIP3    H175643   2.878   6.662  11.385 -0.7139  2.5126 -0.1726
18076TIP3    H275644   2.734   6.675  11.340 -1.2304 -0.5909  0.4063
18077TIP3   OH275645   4.156   1.534   3.982 -0.0843  0.2314 -0.0624
18077TIP3    H175646   4.068   1.535   3.943 -0.3748  1.2209  0.5898
18077TIP3    H275647   4.210   1.489   3.917 -1.2001 -1.0450 -0.1707
18078TIP3   OH275648   6.493   3.684   5.166  0.1599 -0.5720  0.2740
18078TIP3    H175649   6.431   3.714   5.233  0.7519  0.2301  0.4715
18078TIP3    H275650   6.517   3.763   5.118  0.9029 -0.9053  0.0847
18079TIP3   OH275651   4.199   3.136   3.989  0.4284 -0.4361  0.3293
18079TIP3    H175652   4.197   3.228   3.964  0.5212 -0.4229  0.3669
18079TIP3    H275653   4.291   3.110   3.975  0.5547 -0.3449  0.9452
18080TIP3   OH275654   3.385   5.847   1.600 -0.0336 -0.2012 -0.3031
18080TIP3    H175655   3.361   5.829   1.690 -0.2972 -1.2669 -0.5680
18080TIP3    H275656   3.481   5.846   1.600 -0.0156  0.5847  0.0979
18081TIP3   OH275657   1.855   4.138   2.161  0.1075  0.1149  0.0056
18081TIP3    H175658   1.917   4.066   2.152 -0.2995 -0.5674  2.1396
18081TIP3    H275659   1.791   4.123   2.092  1.8779  0.4492 -1.8068
18082TIP3   OH275660   2.453   1.857   2.315 -0.4155  0.1168 -0.1583
18082TIP3    H175661   2.529   1.817   2.274 -1.0571 -0.2603 -1.0273
18082TIP3    H275662   2.434   1.802   2.390  1.3059  1.3188  1.2227
18083TIP3   OH275663   5.234   3.945  12.920 -0.0479  0.6002 -0.5586
18083TIP3    H175664   5.289   3.959  12.843  0.9051  3.0925  0.4971
18083TIP3    H275665   5.156   3.998  12.904 -0.4846  0.0358 -0.3740
18084TIP3   OH275666   4.323   1.127   2.099 -0.3767  0.6141 -0.6200
18084TIP3    H175667   4.408   1.085   2.092 -0.4157  0.4212 -0.0558
18084TIP3    H275668   4.292   1.137   2.009  0.2025  0.6075 -0.8184
18085TIP3   OH275669   5.433   2.873  13.314 -0.5525 -0.0737  0.3018
18085TIP3    H175670   5.481   2.898  13.235  0.8924 -1.8347  0.5699
18085TIP3    H275671   5.437   2.951  13.370  1.8946 -0.0737  0.2316
18086TIP3   OH275672   4.667   2.456   5.872 -0.7565 -0.3493 -0.3948
18086TIP3    H175673   4.670   2.399   5.949 -0.4450  0.7215  0.4139
18086TIP3    H275674   4.575   2.481   5.864 -1.0540 -1.6116 -1.2735
18087TIP3   OH275675   3.952   2.483   3.949 -0.3720 -0.1136  0.4108
18087TIP3    H175676   3.950   2.577   3.935  2.4300 -0.0699 -0.2175
18087TIP3    H275677   3.929   2.445   3.863 -3.3350 -0.1355  1.0903
18088TIP3   OH275678   6.407   1.464  13.520 -0.2760  0.3797 -0.3548
18088TIP3    H175679   6.502   1.449  13.525 -0.5342 -1.1017  2.5312
18088TIP3    H275680   6.370   1.378  13.503 -1.1476  0.8253 -0.7737
18089TIP3   OH275681   6.519   4.575  11.132  0.0750  0.4736 -0.3760
18089TIP3    H175682   6.431   4.597  11.163  0.2730  1.4898 -0.4884
18089TIP3    H275683   6.535   4.638  11.061  1.7581  1.8288  1.1165
18090TIP3   OH275684   2.189   2.874   2.936 -0.1089  0.3089  0.0588
18090TIP3    H175685   2.200   2.937   2.865  0.7697  0.5308  0.3794
18090TIP3    H275686   2.278   2.845   2.957 -0.3897 -0.0612  0.7904
18091TIP3   OH275687   5.252   3.821   6.412 -0.0969 -0.3733 -0.2738
18091TIP3    H175688   5.337   3.784   6.385  0.1408 -1.1613  1.4491
18091TIP3    H275689   5.220   3.761   6.479 -2.6112 -0.7304 -1.7024
18092TIP3   OH275690   0.803   5.800  11.082 -0.1895  0.3237  0.3508
18092TIP3    H175691   0.850   5.783  11.163  1.3935  0.2298 -0.5383
18092TIP3    H275692   0.773   5.714  11.052  1.1249  0.0537 -0.2456
18093TIP3   OH275693   3.553   5.604  15.099 -0.4019 -0.4361 -0.3980
18093TIP3    H175694   3.594   5.538  15.154 -1.1233 -0.9403 -0.4489
18093TIP3    H275695   3.622   5.633  15.040  0.5872  0.6204  1.1943
18094TIP3   OH275696   6.519   5.364   0.183  0.1206  0.2080 -0.0349
18094TIP3    H175697   6.525   5.357   0.278 -1.8291 -0.0309  0.0961
18094TIP3    H275698   6.502   5.457   0.166  2.3740  0.6415 -0.3275
18095TIP3   OH275699   5.437   6.722   4.467 -0.4233  0.1552  0.5361
18095TIP3    H175700   5.356   6.762   4.435 -0.5444  0.9333  1.7319
18095TIP3    H275701   5.452   6.647   4.409 -1.7657  0.2562  0.0303
18096TIP3   OH275702   4.999   5.244  17.300  0.0580  0.4736  0.1407
18096TIP3    H175703   5.001   5.328  17.345 -3.2267  0.1531  1.1051
18096TIP3    H275704   4.973   5.266  17.210 -0.8061  0.5289  0.3942
18097TIP3   OH275705   2.432   1.048  11.663  0.3490  0.0162 -0.1886
18097TIP3    H175706   2.447   0.972  11.720  0.6357  0.3177  0.1465
18097TIP3    H275707   2.369   1.101  11.711 -1.7690 -1.1607 -1.5080
18098TIP3   OH275708   3.960   0.386  13.836 -0.3257 -0.1790  0.2935
18098TIP3    H175709   4.055   0.379  13.840 -0.3048  0.1852  0.4637
18098TIP3    H275710   3.942   0.480  13.840 -0.6196 -0.1212 -1.6878
18099TIP3   OH275711   1.627   4.372  14.891  0.0459  0.1741  0.6694
18099TIP3    H175712   1.632   4.324  14.808 -0.4881  0.0541  0.7002
18099TIP3    H275713   1.626   4.303  14.958  1.4031  0.2933  0.8387
18100TIP3   OH275714   3.251   4.887   1.341 -0.0108  0.0859  0.1656
18100TIP3    H175715   3.256   4.821   1.272 -0.1580  0.2407  0.0085
18100TIP3    H275716   3.158   4.891   1.363  0.0338  0.0409  0.3697
18101TIP3   OH275717   5.646   5.441  10.920  0.1348  0.2836 -0.4477
18101TIP3    H175718   5.721   5.405  10.874  0.4594 -0.5020  0.6620
18101TIP3    H275719   5.588   5.473  10.851  0.9995 -0.0744 -1.3513
18102TIP3   OH275720   0.550   5.351   4.139 -0.3429 -0.1407 -0.0414
18102TIP3    H175721   0.489   5.417   4.171 -0.6608 -0.5552  0.2134
18102TIP3    H275722   0.501   5.304   4.071 -0.4861 -0.7966  0.5047
18103TIP3   OH275723   2.581   3.936  16.255  0.5990  0.0958  0.2319
18103TIP3    H175724   2.597   3.963  16.345  1.9414  1.2198 -0.3145
18103TIP3    H275725   2.638   3.992  16.202 -0.1579 -0.5362 -1.3229
18104TIP3   OH275726   6.608   0.925  16.040 -0.1765 -0.2377  0.6503
18104TIP3    H175727   6.602   0.869  16.117 -0.5780 -0.5229  0.4178
18104TIP3    H275728   6.695   0.909  16.005 -0.0856 -0.2967  0.9010
18105TIP3   OH275729   4.745   4.680  15.620  1.0984  0.2845 -0.1915
18105TIP3    H175730   4.777   4.750  15.563  2.6443  0.2877  0.6292
18105TIP3    H275731   4.726   4.608  15.560 -0.9881  1.5066 -1.1137
18106TIP3   OH275732   4.378   5.798   3.540 -0.3337  0.4250 -0.0212
18106TIP3    H175733   4.474   5.800   3.536 -0.3565  0.0291 -2.9997
18106TIP3    H275734   4.356   5.706   3.531 -0.9996  0.5286  0.5135
18107TIP3   OH275735   0.638   5.259  12.716  0.0778 -0.7072  0.3878
18107TIP3    H175736   0.648   5.164  12.706 -0.6141 -0.7314 -0.1623
18107TIP3    H275737   0.579   5.269  12.791  0.5009 -0.6979  0.7204
18108TIP3   OH275738   4.478   6.542  14.167 -0.1005 -0.1126 -0.0278
18108TIP3    H175739   4.516   6.599  14.100  1.2152 -1.4044 -0.4286
18108TIP3    H275740   4.529   6.560  14.246  0.9300 -1.3416 -0.3853
18109TIP3   OH275741   4.829   4.703  13.840  0.1124  0.2523 -0.4139
18109TIP3    H175742   4.872   4.691  13.925  0.8760 -2.0406 -1.0486
18109TIP3    H275743   4.736   4.695  13.860  0.0545  2.6600  0.5897
18110TIP3   OH275744   3.370   6.684   0.253 -0.5055  0.2575 -0.2328
18110TIP3    H175745   3.395   6.768   0.216 -1.6569 -0.2406 -2.3039
18110TIP3    H275746   3.274   6.685   0.253 -0.5386 -0.6929  0.6037
18111TIP3   OH275747   3.408   3.273   5.784 -0.1628 -0.1890 -0.5245
18111TIP3    H175748   3.343   3.212   5.821 -0.5719 -0.9813 -2.4178
18111TIP3    H275749   3.375   3.292   5.696  0.7702  1.6031 -0.5292
18112TIP3   OH275750   4.258   2.354  11.813  0.3054  0.0436  0.5044
18112TIP3    H175751   4.226   2.439  11.844 -1.2871 -0.4005  0.1222
18112TIP3    H275752   4.241   2.354  11.719  2.7789  0.3445 -0.0269
18113TIP3   OH275753   0.149   2.755  11.219  0.1645  0.0072 -0.0566
18113TIP3    H175754   0.117   2.843  11.199  0.9339  0.4293  0.5362
18113TIP3    H275755   0.224   2.743  11.162  0.4617  0.0003  0.3292
18114TIP3   OH275756   0.064   1.731   5.920  0.1184 -0.1045  0.1342
18114TIP3    H175757   0.112   1.695   5.995  0.1062  0.0699  0.2292
18114TIP3    H275758   0.040   1.656   5.867  0.0171 -0.2421  0.3741
18115TIP3   OH275759   4.130   3.827  12.844  0.2619 -0.6101  0.3630
18115TIP3    H175760   4.145   3.742  12.884 -0.2966 -1.3633 -0.9324
18115TIP3    H275761   4.217   3.862  12.826  0.4923 -0.8587  0.9925
18116TIP3   OH275762   5.188   6.112   0.834  0.0197 -0.0959  0.0042
18116TIP3    H175763   5.192   6.099   0.929 -0.0280  0.3658  0.0719
18116TIP3    H275764   5.252   6.180   0.816  0.0958 -0.2466 -0.3095
18117TIP3   OH275765   1.192   4.205  10.813 -0.2380 -0.6001  0.1199
18117TIP3    H175766   1.193   4.205  10.717 -1.3882  0.4686  0.0876
18117TIP3    H275767   1.186   4.297  10.837  1.1102 -0.7847  1.2610
18118TIP3   OH275768   6.328   2.345   4.239  0.4528 -0.1964 -0.2403
18118TIP3    H175769   6.390   2.315   4.173  0.3181  0.2051 -0.5559
18118TIP3    H275770   6.303   2.433   4.210  0.3959 -0.0136  0.3469
18119TIP3   OH275771   6.705   5.455   5.712 -0.0494  0.3133 -0.1474
18119TIP3    H175772   6.696   5.384   5.777  0.6412  0.7572  0.4450
18119TIP3    H275773   6.731   5.531   5.764  0.2168  0.7516 -0.9165
18120TIP3   OH275774   2.387   6.216  16.267  0.0524 -0.1039 -0.4698
18120TIP3    H175775   2.481   6.198  16.277  0.2506  1.3280  0.5373
18120TIP3    H275776   2.348   6.129  16.260  1.1942 -0.9138  1.8272
18121TIP3   OH275777   3.448   4.907  11.072 -0.2414  0.1614 -0.2213
18121TIP3    H175778   3.472   4.890  10.981 -1.1305  1.2638 -0.6926
18121TIP3    H275779   3.352   4.905  11.073 -0.3207  2.0432  0.2536
18122TIP3   OH275780   6.106   6.182  14.116  0.3498 -0.3631  0.7040
18122TIP3    H175781   6.082   6.167  14.024  0.7090  0.4054  0.4732
18122TIP3    H275782   6.080   6.102  14.161  0.1802 -0.7569 -0.0731
18123TIP3   OH275783   1.825   3.855   5.704 -0.5354 -0.0266  0.0671
18123TIP3    H175784   1.736   3.876   5.731 -0.2432  0.6266  0.5429
18123TIP3    H275785   1.881   3.905   5.763  0.1549 -0.6089 -0.0755
18124TIP3   OH275786   4.415   3.161  13.305  0.7874 -0.6095 -0.3865
18124TIP3    H175787   4.405   3.198  13.217  0.7853  0.8793  0.2045
18124TIP3    H275788   4.454   3.075  13.291 -1.4316 -1.4592 -2.0102
18125TIP3   OH275789   2.739   4.884   4.325  0.1981 -0.0642 -0.1337
18125TIP3    H175790   2.817   4.874   4.270 -0.3224 -2.2672 -0.5592
18125TIP3    H275791   2.682   4.944   4.277  1.0233  0.4526 -0.4866
18126TIP3   OH275792   5.855   5.016  13.238 -0.4572  0.3641 -0.4933
18126TIP3    H175793   5.933   5.047  13.192 -0.6939  0.9796 -0.4959
18126TIP3    H275794   5.852   5.069  13.318  0.7144 -1.6185  0.9496
18127TIP3   OH275795   5.112   1.241  15.999  0.0403  1.0090  0.6440
18127TIP3    H175796   5.143   1.250  15.909 -0.9320 -0.7305  0.0898
18127TIP3    H275797   5.120   1.329  16.036 -0.7125  2.0606 -1.5282
18128TIP3   OH275798   2.270   4.039  15.158 -0.1565 -0.3869  0.2513
18128TIP3    H175799   2.247   4.058  15.067  1.0369 -1.4060 -0.2991
18128TIP3    H275800   2.236   4.114  15.207 -0.9775  0.1074 -0.9971
18129TIP3   OH275801   3.762   6.160   2.900  0.6511 -0.2315 -0.1354
18129TIP3    H175802   3.751   6.092   2.966 -1.0284  0.0592 -0.0772
18129TIP3    H275803   3.839   6.133   2.850 -0.2158 -2.4147 -0.3917
18130TIP3   OH275804   1.226   0.695   4.727 -0.0495  0.6842  0.4099
18130TIP3    H175805   1.262   0.623   4.778 -0.4742 -0.2302 -0.5539
18130TIP3    H275806   1.269   0.689   4.642  1.1113  2.5730  0.8060
18131TIP3   OH275807   0.983   6.601  11.446  0.0238  0.0105 -0.3718
18131TIP3    H175808   1.048   6.670  11.433 -1.1193  1.0357 -0.8644
18131TIP3    H275809   0.929   6.632  11.518 -1.3395  0.3237 -1.4813
18132TIP3   OH275810   1.471   2.648  15.866  0.1984  0.0937 -0.2065
18132TIP3    H175811   1.538   2.672  15.803  1.8500  0.1018  1.4706
18132TIP3    H275812   1.513   2.585  15.924 -1.8599 -1.4159 -0.2346
18133TIP3   OH275813   4.357   0.183   2.009  0.4410  0.0729  0.2226
18133TIP3    H175814   4.314   0.158   1.927  2.6386  3.1467 -2.1089
18133TIP3    H275815   4.286   0.187   2.073 -1.6228 -1.0960 -1.8277
18134TIP3   OH275816   4.020   2.582  17.350  0.3876 -0.3349 -0.1328
18134TIP3    H175817   3.990   2.511  17.408  1.1662 -0.8420 -0.3217
18134TIP3    H275818   4.023   2.659  17.406 -0.9032 -0.3366 -0.0326
18135TIP3   OH275819   5.178   6.338  10.632  0.3064  0.5963 -0.7730
18135TIP3    H175820   5.107   6.277  10.614 -0.3191  1.2061 -0.4056
18135TIP3    H275821   5.253   6.282  10.652 -0.7065 -0.0929  1.4138
18136TIP3   OH275822   2.004   5.669   0.414 -0.3610 -0.1980  0.5253
18136TIP3    H175823   2.084   5.713   0.385 -0.3811 -0.4490  0.0924
18136TIP3    H275824   1.979   5.716   0.494  0.2838 -0.1971  0.7289
18137TIP3   OH275825   2.425   0.193   0.659 -0.1792  0.8793 -0.7052
18137TIP3    H175826   2.493   0.144   0.705 -1.0375  1.4089  1.2469
18137TIP3    H275827   2.398   0.136   0.587  0.9700 -0.1632 -0.3350
18138TIP3   OH275828   1.729   3.117  17.196  0.1646  0.1944 -0.8944
18138TIP3    H175829   1.780   3.115  17.277  0.5850  1.3481 -1.1203
18138TIP3    H275830   1.658   3.054  17.212 -1.3058  2.2503  1.4376
18139TIP3   OH275831   4.739   3.982  17.160  0.1373 -0.2522  0.5115
18139TIP3    H175832   4.683   4.004  17.235  0.1632  0.2844  0.3815
18139TIP3    H275833   4.735   4.060  17.104 -0.0370 -0.7240 -0.1446
18140TIP3   OH275834   6.593   1.662   4.598 -0.7233  0.5421  0.2444
18140TIP3    H175835   6.535   1.596   4.561 -2.0070  1.2091  0.9569
18140TIP3    H275836   6.648   1.615   4.660 -2.0310  0.1998  1.1878
18141TIP3   OH275837   4.995   5.684  17.441  0.1290 -0.1843 -0.0092
18141TIP3    H175838   4.966   5.599  17.407 -0.4783  1.0695 -2.9798
18141TIP3    H275839   4.918   5.739  17.437 -0.1803  0.0437  4.3066
18142TIP3   OH275840   1.370   5.853   1.757  0.1172  0.3765 -0.5380
18142TIP3    H175841   1.368   5.760   1.734  0.1286  0.7923 -2.3809
18142TIP3    H275842   1.324   5.897   1.685  1.5840  1.9570 -0.5744
18143TIP3   OH275843   5.592   5.946  14.749  0.2757 -0.0524  0.2153
18143TIP3    H175844   5.616   6.038  14.751 -0.9630  0.3319 -1.1610
18143TIP3    H275845   5.530   5.935  14.821 -0.0935  0.3591 -0.0338
18144TIP3   OH275846   1.253   0.569  15.901 -0.2652 -0.0217 -0.1096
18144TIP3    H175847   1.174   0.531  15.864 -0.2926 -0.2671  0.1932
18144TIP3    H275848   1.291   0.620  15.830  0.0870 -1.0875 -0.6875
18145TIP3   OH275849   0.781   2.478   2.814  0.3874 -0.1394  0.5824
18145TIP3    H175850   0.858   2.428   2.787  1.2589  0.7475  1.3726
18145TIP3    H275851   0.816   2.560   2.848 -0.8988  0.2174  1.1060
18146TIP3   OH275852   6.506   5.823  15.343  0.3878  0.0088  0.5542
18146TIP3    H175853   6.512   5.727  15.352 -2.2085 -0.3375 -0.5174
18146TIP3    H275854   6.475   5.853  15.429 -0.0654 -0.2769  0.4939
18147TIP3   OH275855   3.802   1.457  11.711  0.4529  0.1513  0.0236
18147TIP3    H175856   3.721   1.458  11.660 -0.2453 -0.7533  1.0888
18147TIP3    H275857   3.829   1.549  11.713 -1.9040  0.9026  1.7447
18148TIP3   OH275858   4.759   3.183   4.984  0.6385 -0.2400 -0.2441
18148TIP3    H175859   4.850   3.164   5.008 -0.0096  0.2682  3.0227
18148TIP3    H275860   4.715   3.099   4.988  0.6973 -0.2923 -0.6219
18149TIP3   OH275861   6.706   1.513  14.438  0.4749  0.2052  0.3093
18149TIP3    H175862   6.677   1.579  14.501 -0.1419  0.1270  0.1152
18149TIP3    H275863   6.674   1.545  14.353  1.7036  0.5518 -0.0495
18150TIP3   OH275864   3.376   6.293  16.000  0.0467  0.0872  0.2608
18150TIP3    H175865   3.455   6.345  15.984  0.7951 -0.4347  2.0057
18150TIP3    H275866   3.403   6.202  15.986 -1.0827  0.0327 -2.1220
18151TIP3   OH275867   3.098   1.762  15.094  0.2092 -0.4475 -0.2325
18151TIP3    H175868   3.153   1.767  15.015 -1.0129  1.5628 -1.0340
18151TIP3    H275869   3.014   1.797  15.066  0.0325  1.2752  2.2016
18152TIP3   OH275870   5.147   1.492  16.063 -0.2593 -0.1574  0.2151
18152TIP3    H175871   5.129   1.555  16.133 -0.7662  1.6801 -1.4548
18152TIP3    H275872   5.238   1.510  16.038  0.1495 -1.2855  0.8293
18153TIP3   OH275873   1.839   0.930   5.062 -0.4939 -0.0946  0.2207
18153TIP3    H175874   1.779   0.867   5.102 -0.2605  0.1301  0.9472
18153TIP3    H275875   1.925   0.890   5.070 -0.6089 -0.7947 -1.5718
18154TIP3   OH275876   5.879   1.477   2.879  0.1620  0.1772  0.2473
18154TIP3    H175877   5.813   1.546   2.885  0.4656  0.3803  1.4998
18154TIP3    H275878   5.957   1.515   2.918  0.1727 -1.0566  1.5234
18155TIP3   OH275879   0.911   3.101   4.176 -0.0497 -0.2212  0.2129
18155TIP3    H175880   0.937   3.093   4.268  2.6790 -0.2848 -0.4591
18155TIP3    H275881   0.899   3.195   4.163 -0.5246 -0.2175  0.6365
18156TIP3   OH275882   0.344   5.954  16.534 -0.4019 -0.1946 -0.0273
18156TIP3    H175883   0.408   5.989  16.472 -1.6419  1.4270 -0.4738
18156TIP3    H275884   0.262   5.950  16.485 -0.7915 -1.6881  0.6907
18157TIP3   OH275885   0.530   2.735  11.184  0.0022  0.0879 -0.5870
18157TIP3    H175886   0.591   2.783  11.128  1.6806 -1.9274 -0.6172
18157TIP3    H275887   0.533   2.645  11.151 -1.4990 -0.4707  0.6852
18158TIP3   OH275888   6.242   5.724   2.778 -0.0929  0.5132 -0.0073
18158TIP3    H175889   6.182   5.668   2.729  0.1357  1.4028 -1.3764
18158TIP3    H275890   6.184   5.781   2.830 -0.3191 -2.0381  2.7829
18159TIP3   OH275891   6.637   1.385   3.112  0.3095  0.5398 -0.2018
18159TIP3    H175892   6.593   1.369   3.196 -0.2230 -1.0723 -0.7500
18159TIP3    H275893   6.577   1.349   3.046  1.7709 -0.3787 -1.0840
18160TIP3   OH275894   5.586   3.911  16.285  0.4212 -0.2129 -0.1800
18160TIP3    H175895   5.529   3.839  16.257  0.3072 -0.9149  1.6777
18160TIP3    H275896   5.639   3.931  16.208 -0.6431 -1.1991 -1.2258
18161TIP3   OH275897   4.742   6.278  14.828  0.4734  0.0834 -0.0048
18161TIP3    H175898   4.742   6.191  14.787  1.3828  0.6898 -1.3400
18161TIP3    H275899   4.769   6.338  14.759  3.9803  0.9528  1.8248
18162TIP3   OH275900   1.431   3.827   1.202  0.5676 -0.5094 -0.3537
18162TIP3    H175901   1.345   3.848   1.166 -0.2851 -1.8709  0.8014
18162TIP3    H275902   1.440   3.733   1.189  2.1104 -0.3180 -0.8824
18163TIP3   OH275903   3.433   1.253  12.994  0.3403  0.1252 -0.4574
18163TIP3    H175904   3.444   1.342  13.028  0.1438  0.3482 -0.9608
18163TIP3    H275905   3.514   1.237  12.944  0.2340  0.1451 -0.6356
18164TIP3   OH275906   5.085   2.599   3.780  0.0610  0.0922 -0.3364
18164TIP3    H175907   5.125   2.590   3.866 -0.6469  1.1390  0.1200
18164TIP3    H275908   5.053   2.511   3.759 -0.9954  0.0958  1.1069
18165TIP3   OH275909   3.689   5.998  13.307  0.0036 -0.2812 -0.2652
18165TIP3    H175910   3.703   6.072  13.247  1.3228 -1.1491 -1.0671
18165TIP3    H275911   3.769   5.993  13.359 -0.1355 -1.0437 -0.1144
18166TIP3   OH275912   2.500   5.345  14.021  0.2469 -0.0233  0.5103
18166TIP3    H175913   2.410   5.325  13.995  0.6408  1.3000 -2.2264
18166TIP3    H275914   2.544   5.260  14.026 -0.8496 -0.5949  0.7471
18167TIP3   OH275915   2.128   4.523  11.152  1.1329 -0.2775 -0.5404
18167TIP3    H175916   2.199   4.586  11.140  0.4762  0.6697  0.3555
18167TIP3    H275917   2.050   4.576  11.164  0.8880 -1.1165  2.4611
18168TIP3   OH275918   0.377   6.634   3.302 -0.3749  0.0513  1.0206
18168TIP3    H175919   0.314   6.606   3.235 -1.2910  0.4752  1.6796
18168TIP3    H275920   0.439   6.561   3.308  0.4757  0.5326 -1.1594
18169TIP3   OH275921   1.211   4.275  10.532 -0.0752  0.1253  0.3586
18169TIP3    H175922   1.199   4.369  10.521  0.5706  0.5726  2.8239
18169TIP3    H275923   1.304   4.260  10.513 -0.6588 -0.4957 -2.4022
18170TIP3   OH275924   5.448   0.959  13.254  0.7192  0.6552  0.3087
18170TIP3    H175925   5.404   1.043  13.267  0.7506  0.6803  0.2531
18170TIP3    H275926   5.522   0.962  13.314 -0.3820 -0.1409  1.7529
18171TIP3   OH275927   3.484   1.858   3.417  0.3947 -0.4681  0.0739
18171TIP3    H175928   3.419   1.861   3.487 -0.8845  0.5812 -1.1056
18171TIP3    H275929   3.529   1.943   3.422  0.0043 -0.2096 -0.6169
18172TIP3   OH275930   4.079   2.846  14.557 -0.2440 -0.1658  0.4817
18172TIP3    H175931   4.064   2.926  14.608 -0.1196 -0.7559  1.4877
18172TIP3    H275932   4.013   2.848  14.489  0.3350  1.2456 -0.0884
18173TIP3   OH275933   0.374   2.917   6.483 -0.5840 -0.0772  0.4014
18173TIP3    H175934   0.463   2.908   6.450 -0.7110  1.7809 -0.6587
18173TIP3    H275935   0.369   3.008   6.514 -2.1118 -0.0961  0.3131
18174TIP3   OH275936   5.201   3.201  17.461  0.5596  0.4056  0.1740
18174TIP3    H175937   5.256   3.279  17.462  1.7650 -0.4314  0.4168
18174TIP3    H275938   5.115   3.233  17.431  1.0044  1.8244  0.3351
18175TIP3   OH275939   3.516   4.282   5.347  0.7083  0.2867 -0.2423
18175TIP3    H175940   3.538   4.305   5.257  0.2137  1.1581 -0.1527
18175TIP3    H275941   3.421   4.291   5.352  0.8051  1.0908  0.5794
18176TIP3   OH275942   2.961   6.636   6.410  0.4352 -0.0243  0.7285
18176TIP3    H175943   2.954   6.576   6.336  2.1350  1.0219 -0.3356
18176TIP3    H275944   3.026   6.596   6.467  2.2544  1.1561 -0.4215
18177TIP3   OH275945   4.263   4.660   3.828  0.0345 -0.8697 -0.0232
18177TIP3    H175946   4.239   4.718   3.756  3.3860  0.9606  0.1132
18177TIP3    H275947   4.310   4.716   3.890  0.5687 -3.1249  1.7744
18178TIP3   OH275948   1.037   1.764   3.604 -0.3997 -0.7423  0.2459
18178TIP3    H175949   0.959   1.810   3.635 -1.4071 -1.1673 -1.5332
18178TIP3    H275950   1.060   1.705   3.676 -0.2667  1.0327  1.7539
18179TIP3   OH275951   2.500   1.178   2.128  0.3097 -0.2028  0.4768
18179TIP3    H175952   2.419   1.161   2.176  1.7283 -1.1389  2.7100
18179TIP3    H275953   2.564   1.199   2.196  1.8407  1.0079 -1.2549
18180TIP3   OH275954   2.828   3.161  16.376  0.4621 -0.0314 -0.1532
18180TIP3    H175955   2.787   3.210  16.447 -2.5206 -0.1960 -1.5623
18180TIP3    H275956   2.881   3.226  16.329 -0.3538  0.9366  0.2279
18181TIP3   OH275957   5.958   5.098   1.542  0.1283  0.0692  0.2709
18181TIP3    H175958   5.982   5.142   1.623  0.3838 -0.7015  0.6237
18181TIP3    H275959   5.985   5.159   1.473 -1.2344  1.2900  0.7675
18182TIP3   OH275960   5.224   4.910  15.753  0.6626  0.1345  0.8117
18182TIP3    H175961   5.137   4.943  15.777  0.4232 -0.9763  1.5135
18182TIP3    H275962   5.268   4.986  15.714 -0.7829  0.6013 -0.0044
18183TIP3   OH275963   4.281   4.976  15.778 -0.0037  0.3083 -0.4979
18183TIP3    H175964   4.276   5.005  15.687  0.4710  0.3905 -0.4960
18183TIP3    H275965   4.356   4.917  15.781  0.9688  1.5241  0.1712
18184TIP3   OH275966   1.212   4.849  13.330  0.0366  0.1742 -0.8137
18184TIP3    H175967   1.157   4.911  13.282  0.1940  0.9550  0.0008
18184TIP3    H275968   1.151   4.784  13.364 -0.1378 -0.0937 -1.6185
18185TIP3   OH275969   1.961   0.377   5.137 -0.0596  0.1190  0.0728
18185TIP3    H175970   1.997   0.454   5.181 -1.2503  0.6960  0.0817
18185TIP3    H275971   2.031   0.347   5.080  0.4537  1.1746  0.1155
18186TIP3   OH275972   0.228   5.729  11.809 -0.4503  0.0822 -0.0166
18186TIP3    H175973   0.249   5.674  11.734  0.6210 -0.3068  0.5377
18186TIP3    H275974   0.205   5.814  11.772  3.1130  0.8910 -0.7681
18187TIP3   OH275975   2.228   2.764  15.119  0.9475  0.2924 -0.2610
18187TIP3    H175976   2.210   2.856  15.099 -0.2196  0.3236  0.7993
18187TIP3    H275977   2.322   2.762  15.139  0.4990  1.8998  2.6933
18188TIP3   OH275978   6.472   1.408   3.365  0.2542 -0.9078 -0.3691
18188TIP3    H175979   6.431   1.324   3.345 -3.0034  1.3077 -4.7065
18188TIP3    H275980   6.411   1.450   3.426  3.3421 -2.3995  4.3035
18189TIP3   OH275981   5.241   1.019   1.618 -0.3000 -0.1737  0.4336
18189TIP3    H175982   5.175   1.051   1.557 -0.3620  0.0862  0.6361
18189TIP3    H275983   5.318   1.073   1.600 -0.5768  0.4775  1.1605
18190TIP3   OH275984   1.263   3.990   4.497 -0.3675 -0.3491 -0.4343
18190TIP3    H175985   1.249   3.958   4.408 -1.7370 -1.2307  0.0640
18190TIP3    H275986   1.270   4.085   4.487 -2.4541 -0.2321 -1.3171
18191TIP3   OH275987   0.019   1.357   4.108 -0.0759  0.1647  0.0910
18191TIP3    H175988   0.090   1.393   4.161  0.7111 -0.1398 -0.7314
18191TIP3    H275989  -0.040   1.317   4.172  0.8740 -0.2371  0.7462
18192TIP3   OH275990   2.937   5.566   4.956 -0.0978  0.7418  0.8110
18192TIP3    H175991   2.974   5.578   5.044 -0.6379  1.8176  0.9191
18192TIP3    H275992   2.968   5.642   4.907  0.8778 -0.2718 -0.1967
18193TIP3   OH275993   0.810   0.855   4.616  0.2825 -0.2302  0.5306
18193TIP3    H175994   0.735   0.901   4.654  0.4601  0.2498  0.3173
18193TIP3    H275995   0.860   0.924   4.572  1.3331 -0.3913  1.4263
18194TIP3   OH275996   5.614   5.641   4.518  0.1967 -0.4288 -0.1258
18194TIP3    H175997   5.690   5.681   4.561  0.2712 -0.9323  0.2183
18194TIP3    H275998   5.652   5.580   4.455  0.0796 -0.1773 -0.4430
18195TIP3   OH275999   4.944   0.201   0.168  0.0087  0.1503 -0.0043
18195TIP3    H176000   4.992   0.261   0.111  0.4972  0.0391  0.2867
18195TIP3    H276001   4.872   0.253   0.203 -2.3587 -0.5746 -3.2571
18196TIP3   OH276002   3.569   6.570   3.281 -0.2689  0.0161  0.1707
18196TIP3    H176003   3.575   6.483   3.322 -2.3431 -0.3225 -0.1509
18196TIP3    H276004   3.581   6.553   3.188  1.5428  0.4152  0.2865
18197TIP3   OH276005   0.963   0.121   3.151  0.4887  0.1497 -0.1440
18197TIP3    H176006   0.916   0.156   3.226 -1.0122 -3.5500  0.8928
18197TIP3    H276007   1.051   0.101   3.184  0.1555 -0.4954  0.3908
18198TIP3   OH276008   1.653   4.153   5.906 -0.0793  0.1831  0.5629
18198TIP3    H176009   1.723   4.097   5.940 -0.0960  0.2116  0.6439
18198TIP3    H276010   1.599   4.094   5.852  0.8657  0.4685 -0.7460
18199TIP3   OH276011   6.362   5.341  14.518 -0.1040  0.3308 -0.1882
18199TIP3    H176012   6.285   5.398  14.510  0.2884  0.6866 -1.6279
18199TIP3    H276013   6.425   5.392  14.569 -0.1907  0.7142 -0.4613
18200TIP3   OH276014   3.149   2.259   0.609 -0.9389 -0.1238  0.6217
18200TIP3    H176015   3.110   2.341   0.578 -0.7475 -0.6329 -1.1105
18200TIP3    H276016   3.088   2.191   0.578  0.4371 -0.8129 -0.7010
18201TIP3   OH276017   1.107   1.536  13.903 -0.0729  0.2564 -0.1049
18201TIP3    H176018   1.115   1.459  13.960 -0.8036  0.5868  0.4709
18201TIP3    H276019   1.055   1.598  13.954  1.3976  1.5691 -0.1252
18202TIP3   OH276020   5.979   0.999  16.848  0.2559  0.2103  0.1086
18202TIP3    H176021   6.001   0.942  16.774  2.3500 -0.5393  1.2386
18202TIP3    H276022   5.968   1.085  16.808  2.5448  0.0736 -1.0176
18203TIP3   OH276023   5.852   0.123   0.861  0.0869 -0.0481 -0.4545
18203TIP3    H176024   5.791   0.057   0.828 -0.0308  0.2505 -0.8456
18203TIP3    H276025   5.846   0.116   0.956  0.6848 -1.1449 -0.4917
18204TIP3   OH276026   4.913   1.007  15.529 -0.6474 -0.0366  1.1803
18204TIP3    H176027   4.923   0.954  15.450 -3.4630 -0.1218  0.7857
18204TIP3    H276028   4.997   0.999  15.575  1.8242  1.4712 -2.6117
18205TIP3   OH276029   3.208   6.574  13.056  0.1430  0.0668  0.2524
18205TIP3    H176030   3.161   6.500  13.094 -0.1518  0.1070 -0.0347
18205TIP3    H276031   3.295   6.570  13.097  0.2488 -0.6455 -0.0322
18206TIP3   OH276032   0.030   4.719   2.356 -0.1114  0.2182  0.0905
18206TIP3    H176033  -0.057   4.735   2.319 -0.4326 -1.7833 -0.1437
18206TIP3    H276034   0.090   4.731   2.282 -0.4813 -1.0167 -0.4422
18207TIP3   OH276035   0.025   2.697   4.198  0.2868 -0.5686 -0.0700
18207TIP3    H176036   0.033   2.666   4.108  0.2512  0.2735 -0.3657
18207TIP3    H276037   0.012   2.617   4.249  0.8049 -1.0950 -0.7439
18208TIP3   OH276038   1.882   3.171  17.411 -0.1327 -0.1748  0.1223
18208TIP3    H176039   1.891   3.214  17.496  1.2645 -0.5367  0.1911
18208TIP3    H276040   1.958   3.201  17.360 -0.5760 -0.4925 -0.7578
18209TIP3   OH276041   2.039   1.101  17.358  0.4637  1.1436  0.0297
18209TIP3    H176042   2.020   1.008  17.372 -1.6194  1.6146  0.6011
18209TIP3    H276043   2.109   1.120  17.421  0.1834  0.2139  0.6501
18210TIP3   OH276044   0.640   1.513   1.273 -0.3511  0.0906  0.0115
18210TIP3    H176045   0.691   1.593   1.257 -1.8745  0.9663 -0.6564
18210TIP3    H276046   0.696   1.460   1.329  1.5900  0.6957 -1.2488
18211TIP3   OH276047   1.633   2.271   3.477 -0.0067  0.1195 -0.2576
18211TIP3    H176048   1.544   2.259   3.445 -0.3835  1.5928  0.1202
18211TIP3    H276049   1.657   2.188   3.518 -1.6564  0.0560  0.6497
18212TIP3   OH276050   0.801   6.652   3.190  0.1035  0.7615 -0.0112
18212TIP3    H176051   0.726   6.676   3.135  1.4113  1.4116 -1.5957
18212TIP3    H276052   0.867   6.718   3.170  0.3784  1.5456  3.0468
18213TIP3   OH276053   2.715   4.832  12.182 -0.0395  0.0162  0.5547
18213TIP3    H176054   2.733   4.823  12.089 -0.2896 -2.0090  0.6428
18213TIP3    H276055   2.719   4.742  12.216  1.4664  0.8153  2.7637
18214TIP3   OH276056   4.429   3.047   5.333 -0.4126 -0.1811  0.0933
18214TIP3    H176057   4.498   3.109   5.308 -0.4743 -0.6495 -1.3428
18214TIP3    H276058   4.347   3.093   5.315 -0.4823  0.0402  0.9338
18215TIP3   OH276059   5.582   0.075   2.300 -0.2477  0.2879 -0.2023
18215TIP3    H176060   5.512   0.009   2.305  0.9597 -0.9797  0.8934
18215TIP3    H276061   5.655   0.029   2.258  0.6405  0.9137  0.6252
18216TIP3   OH276062   4.402   0.391   6.186 -0.7243 -0.0835 -0.3859
18216TIP3    H176063   4.420   0.438   6.105 -3.6886  4.8420  1.3563
18216TIP3    H276064   4.459   0.432   6.251 -0.6078 -1.7818  0.6626
18217TIP3   OH276065   5.256   5.736   0.481 -0.1169 -0.8740 -0.0262
18217TIP3    H176066   5.260   5.829   0.505 -3.0715 -0.6211 -0.2134
18217TIP3    H276067   5.215   5.734   0.395  0.3464 -2.3632 -0.2506
18218TIP3   OH276068   0.889   3.624   0.468 -0.0910 -0.5964  1.3900
18218TIP3    H176069   0.808   3.576   0.450 -1.2707  2.0317 -1.0832
18218TIP3    H276070   0.862   3.697   0.523 -0.1914  2.0114 -1.8076
18219TIP3   OH276071   2.418   1.197   0.298  0.5213 -0.4261  0.2018
18219TIP3    H176072   2.470   1.139   0.243  0.9884  0.9353 -0.8754
18219TIP3    H276073   2.374   1.255   0.236 -0.5368 -0.1334  1.1985
18220TIP3   OH276074   6.480   4.035  15.728  0.3593  0.1415  0.0131
18220TIP3    H176075   6.564   4.068  15.759  0.7701 -1.0568  0.2445
18220TIP3    H276076   6.428   4.025  15.807  0.6613 -0.8795  0.0973
18221TIP3   OH276077   1.169   0.370   4.297  0.0963 -0.2037 -0.5843
18221TIP3    H176078   1.120   0.308   4.243 -0.8845 -0.3027  0.3780
18221TIP3    H276079   1.119   0.452   4.291 -0.4498 -0.4093  0.7147
18222TIP3   OH276080   1.724   3.889  14.339  0.6207 -0.1237 -0.9316
18222TIP3    H176081   1.637   3.851  14.349  0.5959 -0.2549 -1.5707
18222TIP3    H276082   1.733   3.950  14.412  0.3788 -0.8216 -0.3134
18223TIP3   OH276083   1.129   5.075   0.663  0.2247 -0.4879 -0.1231
18223TIP3    H176084   1.121   5.030   0.747  0.3099 -0.1699  0.0537
18223TIP3    H276085   1.190   5.021   0.613  0.1444 -0.6982  0.0026
18224TIP3   OH276086   6.525   4.744   0.600  0.2980  0.5307 -0.4865
18224TIP3    H176087   6.619   4.761   0.592  0.5769 -1.0796 -1.0245
18224TIP3    H276088   6.493   4.741   0.510  0.0723 -0.5503 -0.3899
18225TIP3   OH276089   2.845   4.918  11.886  0.1805 -0.0998  0.4168
18225TIP3    H176090   2.833   4.823  11.879  0.0895 -0.0213 -0.6587
18225TIP3    H276091   2.803   4.953  11.807 -0.0940  0.8641  0.9801
18226TIP3   OH276092   3.362   3.114  13.409 -0.2010 -0.3972 -0.0144
18226TIP3    H176093   3.311   3.097  13.488 -1.6603  2.1377 -0.2824
18226TIP3    H276094   3.439   3.162  13.440 -0.3106 -0.2155 -0.0178
18227TIP3   OH276095   4.228   4.113   6.076 -0.0821  0.0826  0.4050
18227TIP3    H176096   4.149   4.074   6.112  0.2220 -1.0017 -0.0574
18227TIP3    H276097   4.272   4.152   6.152  0.2783 -1.6763  1.1562
18228TIP3   OH276098   5.539   4.781   2.041  0.1458 -0.4155  0.4563
18228TIP3    H176099   5.563   4.773   1.948  0.4430  1.0725  0.3745
18228TIP3    H276100   5.444   4.773   2.042 -0.1311  2.0980 -0.3470
18229TIP3   OH276101   6.598   2.950   5.320 -0.1198 -0.2538  0.4228
18229TIP3    H176102   6.668   2.923   5.262  0.1983 -0.0581  0.7144
18229TIP3    H276103   6.563   2.868   5.355  1.3790 -0.2858  1.9349
18230TIP3   OH276104   2.329   0.982  16.085  0.4831  0.8117 -0.3963
18230TIP3    H176105   2.397   0.961  16.021  0.9564  0.7609  0.1141
18230TIP3    H276106   2.265   0.911  16.077  1.1576  0.1333  0.0413
18231TIP3   OH276107   2.523   0.144   5.453  0.3099 -0.5998  0.3674
18231TIP3    H176108   2.447   0.203   5.448  1.8886  1.7183  1.9133
18231TIP3    H276109   2.598   0.200   5.434  1.7799 -2.5911 -0.0163
18232TIP3   OH276110   1.180   6.078  16.411 -0.0824 -0.9004  0.2784
18232TIP3    H176111   1.188   6.092  16.506  0.2841 -0.8061  0.2355
18232TIP3    H276112   1.265   6.105  16.376 -0.4630 -0.2422 -0.1560
18233TIP3   OH276113   2.122   6.003  15.154 -0.5371  0.6506 -0.3734
18233TIP3    H176114   2.194   5.973  15.209  0.3407  1.6273 -0.9542
18233TIP3    H276115   2.090   6.083  15.196 -1.4357  0.1128 -0.0070
18234TIP3   OH276116   5.881   6.158  13.561 -0.4918  0.9583  0.2087
18234TIP3    H176117   5.935   6.179  13.484 -0.0444  1.4178  0.6423
18234TIP3    H276118   5.873   6.241  13.608 -0.7007  0.6635  0.7029
18235TIP3   OH276119   2.978   0.231  16.564  0.0032 -0.1252 -0.0257
18235TIP3    H176120   3.021   0.206  16.482  0.4601  0.6621 -0.0428
18235TIP3    H276121   2.915   0.298  16.538 -0.6111 -0.6406  0.1264
18236TIP3   OH276122   6.275   2.088   1.070  0.4989  0.0856  0.2196
18236TIP3    H176123   6.204   2.046   1.022  0.0864  0.0343  0.8633
18236TIP3    H276124   6.237   2.111   1.154  1.2659 -0.0070  0.6030
18237TIP3   OH276125   3.364   3.804  13.458  0.0865 -0.3880  0.1072
18237TIP3    H176126   3.416   3.848  13.525 -1.1576 -0.3728  1.0881
18237TIP3    H276127   3.402   3.717  13.451  1.5779  0.2743 -0.7328
18238TIP3   OH276128   3.700   3.787  12.727 -0.0611 -0.3465  0.1493
18238TIP3    H176129   3.732   3.845  12.657  1.2273 -0.5810  0.5217
18238TIP3    H276130   3.677   3.706  12.681 -0.2070 -0.1434 -0.1407
18239TIP3   OH276131   2.672   4.338  15.362 -0.0720  0.0822 -0.3042
18239TIP3    H176132   2.683   4.244  15.347 -0.7598 -0.3778  1.7196
18239TIP3    H276133   2.598   4.363  15.306 -0.1706 -0.6923 -0.5296
18240TIP3   OH276134   4.852   0.654   2.534 -0.0884  0.6739 -0.0207
18240TIP3    H176135   4.806   0.618   2.610  1.1038 -0.1672  0.3226
18240TIP3    H276136   4.824   0.746   2.531 -2.1910  0.0923 -0.1496
18241TIP3   OH276137   4.926   2.253  14.471 -0.1347  0.0894 -0.1359
18241TIP3    H176138   4.838   2.217  14.473  0.7239 -2.2988 -1.0503
18241TIP3    H276139   4.946   2.273  14.562 -1.8397  1.3623 -0.0066
18242TIP3   OH276140   0.306   4.319  15.362  0.1708 -0.5074  0.0054
18242TIP3    H176141   0.305   4.242  15.419 -0.9418 -0.1586  0.4659
18242TIP3    H276142   0.322   4.393  15.420 -2.7014  0.0657  0.2093
18243TIP3   OH276143   5.066   4.500   3.272  0.3061 -0.0019  0.3644
18243TIP3    H176144   5.059   4.587   3.311 -1.4217 -0.0804  0.3235
18243TIP3    H276145   5.032   4.511   3.183 -1.0454 -0.9224  0.7363
18244TIP3   OH276146   1.033   3.180  14.875 -0.4888 -0.3191 -0.0522
18244TIP3    H176147   1.040   3.161  14.968 -2.4821 -1.4363 -0.0730
18244TIP3    H276148   1.078   3.107  14.832 -2.0820 -1.3744  0.0107
18245TIP3   OH276149   0.887   2.714   3.261  0.2397 -0.3848  1.0825
18245TIP3    H176150   0.937   2.791   3.234 -1.0204 -0.2129 -1.0090
18245TIP3    H276151   0.828   2.747   3.329  0.3143  0.2928  0.8283
18246TIP3   OH276152   1.370   0.361   4.079 -0.0473 -0.2987 -0.3447
18246TIP3    H176153   1.320   0.315   4.147  1.0275  0.2986  0.8988
18246TIP3    H276154   1.359   0.454   4.100  0.3992 -0.1078 -0.9268
18247TIP3   OH276155   5.275   4.782   1.951  0.1478 -0.7950  0.0067
18247TIP3    H176156   5.263   4.845   1.880  1.5827 -0.9098 -0.3660
18247TIP3    H276157   5.202   4.720   1.940 -0.0197 -0.4455 -0.9660
18248TIP3   OH276158   4.772   4.716   4.174 -0.0898  0.7662 -0.0952
18248TIP3    H176159   4.749   4.808   4.175 -0.4248  0.6861  1.0565
18248TIP3    H276160   4.770   4.689   4.266 -2.8838 -1.0845 -0.5428
18249TIP3   OH276161   2.918   3.514  17.092  0.1486 -0.8157  0.5149
18249TIP3    H176162   2.912   3.583  17.026 -0.1886 -1.2136  0.1223
18249TIP3    H276163   2.913   3.560  17.176  1.0010 -0.2621  0.2786
18250TIP3   OH276164   0.006   2.640  12.562  0.6910 -0.3411 -0.0793
18250TIP3    H176165   0.047   2.632  12.648  0.0107  1.0748  0.4103
18250TIP3    H276166   0.078   2.667  12.504  0.9223 -0.1491  0.2934
18251TIP3   OH276167   3.697   3.548  16.903  0.7867  0.0096  0.1136
18251TIP3    H176168   3.713   3.635  16.939 -1.9555  0.8588 -0.5429
18251TIP3    H276169   3.604   3.533  16.916  1.1629 -2.8631  0.1933
18252TIP3   OH276170   3.736   1.185   4.152  0.5189  0.2417  0.3588
18252TIP3    H176171   3.751   1.095   4.180 -0.5588  0.2595  1.0257
18252TIP3    H276172   3.740   1.236   4.233 -1.6039  0.4229  0.3844
18253TIP3   OH276173   6.199   3.431   2.478 -0.1036  0.0991 -0.5661
18253TIP3    H176174   6.243   3.422   2.393  2.2559  1.3210  0.4234
18253TIP3    H276175   6.267   3.409   2.542 -1.9150 -1.1078  1.0417
18254TIP3   OH276176   4.965   5.701  12.340 -0.0761  0.2104 -0.1122
18254TIP3    H176177   4.995   5.662  12.258  0.3564  0.6964 -0.1896
18254TIP3    H276178   4.896   5.762  12.315 -1.9089 -1.6548  0.1625
18255TIP3   OH276179   3.353   6.591  17.244  0.1669  0.3806 -0.0597
18255TIP3    H176180   3.384   6.590  17.153 -0.5412 -1.4907 -0.3228
18255TIP3    H276181   3.430   6.568  17.296  0.4683  1.0162 -0.2161
18256TIP3   OH276182   4.238   6.120  12.681 -0.0358 -0.2038 -0.1580
18256TIP3    H176183   4.190   6.078  12.609 -0.9360  3.3224 -1.8555
18256TIP3    H276184   4.330   6.103  12.661 -0.3545 -1.5859 -0.5622
18257TIP3   OH276185   3.917   6.366  17.219 -0.2256  0.5355 -0.4617
18257TIP3    H176186   3.930   6.441  17.277 -1.7379  0.9316 -0.5864
18257TIP3    H276187   3.848   6.315  17.261  0.8326 -0.8626 -0.3424
18258TIP3   OH276188   6.617   1.391  11.303 -0.5103 -0.2044  0.1521
18258TIP3    H176189   6.626   1.483  11.327 -2.9887 -0.3269  1.8790
18258TIP3    H276190   6.563   1.392  11.224  2.6666 -0.1175 -2.2360
18259TIP3   OH276191   0.284   4.172  14.304 -1.0487  0.5886  0.0558
18259TIP3    H176192   0.301   4.182  14.398 -0.4898 -0.3012  0.0588
18259TIP3    H276193   0.324   4.249  14.264  0.8715 -0.2315  0.3171
18260TIP3   OH276194   6.229   1.965   5.273 -0.0201  0.3184 -0.3094
18260TIP3    H176195   6.197   2.049   5.307 -0.9602 -0.2724  0.3027
18260TIP3    H276196   6.203   1.900   5.338  1.2707 -0.3834 -0.4614
18261TIP3   OH276197   2.643   1.331  15.258  0.6529 -0.9861  0.2126
18261TIP3    H176198   2.722   1.373  15.222  0.5869 -0.9678  0.0865
18261TIP3    H276199   2.570   1.378  15.216  0.5779 -1.3364 -0.0597
18262TIP3   OH276200   3.399   2.230   4.795  0.0941  0.3048  0.3584
18262TIP3    H176201   3.330   2.165   4.783  0.3331  0.0223  0.5206
18262TIP3    H276202   3.351   2.313   4.806 -0.2218  0.1043  0.5183
18263TIP3   OH276203   5.049   3.108  10.441  0.2574  0.3995 -0.3869
18263TIP3    H176204   4.982   3.136  10.504  0.6144  1.5839 -0.5132
18263TIP3    H276205   5.130   3.146  10.473  0.4451  1.0222 -1.5598
18264TIP3   OH276206   6.726   1.825  15.417  0.0669  0.1807  0.0722
18264TIP3    H176207   6.803   1.833  15.474  0.7633 -1.0559 -0.6450
18264TIP3    H276208   6.669   1.764  15.462 -0.1367  0.4696  0.2116
18265TIP3   OH276209   5.900   1.326  15.052  0.2841 -0.0428  0.1044
18265TIP3    H176210   5.880   1.418  15.073 -0.2409 -0.4537  1.4905
18265TIP3    H276211   5.838   1.276  15.105  0.0684 -1.1951 -1.1993
18266TIP3   OH276212   6.482   5.598  17.204  0.4809  0.1300 -0.3967
18266TIP3    H176213   6.562   5.563  17.165  0.6015 -0.6978  0.5479
18266TIP3    H276214   6.411   5.558  17.154  0.6499  0.2343 -0.7199
18267TIP3   OH276215   1.170   0.556  13.253 -0.2522 -0.2910  0.4367
18267TIP3    H176216   1.113   0.586  13.182 -0.3871 -0.7346  0.3578
18267TIP3    H276217   1.187   0.464  13.234  2.6737  0.4008 -1.0416
18268TIP3   OH276218   6.028   0.658   1.690 -0.0039 -0.2601 -0.3106
18268TIP3    H176219   5.991   0.570   1.697 -0.6649  0.1492  1.9900
18268TIP3    H276220   5.953   0.717   1.694  0.6183  0.4970  2.0580
18269TIP3   OH276221   3.098   1.933  13.585  0.5772  0.0956 -0.1652
18269TIP3    H176222   3.093   1.914  13.678  2.0009 -0.8143 -0.2517
18269TIP3    H276223   3.040   2.009  13.573  0.4827  0.3129  1.4681
18270TIP3   OH276224   1.543   2.253  14.587 -1.2737  0.2257  0.1283
18270TIP3    H176225   1.618   2.194  14.594 -0.9397  0.6057 -0.2526
18270TIP3    H276226   1.497   2.243  14.671 -1.3025 -0.6829  0.0130
18271TIP3   OH276227   3.766   5.467   0.412  0.0506 -0.1623 -0.6687
18271TIP3    H176228   3.703   5.516   0.466  0.5392  0.4031 -0.6041
18271TIP3    H276229   3.727   5.380   0.404 -0.1165 -0.2063  0.4551
18272TIP3   OH276230   3.208   4.891   0.263  0.0458  0.2347 -0.0402
18272TIP3    H176231   3.163   4.872   0.181 -0.8271  1.1469  0.2156
18272TIP3    H276232   3.140   4.884   0.330  0.7890 -0.7166  0.6547
18273TIP3   OH276233   2.831   6.713   0.308 -0.0502 -0.6935  0.0936
18273TIP3    H176234   2.758   6.664   0.344 -0.6202 -0.5666 -0.8433
18273TIP3    H276235   2.790   6.784   0.257  0.7183 -0.5321 -0.3181
18274TIP3   OH276236   5.630   6.260   4.087 -0.3481  0.4500 -0.5323
18274TIP3    H176237   5.541   6.259   4.054 -0.2303  0.2727 -0.8517
18274TIP3    H276238   5.684   6.244   4.009 -0.0168  1.0407 -0.4282
18275TIP3   OH276239   0.064   3.969  12.570  0.0277 -0.3170  0.0440
18275TIP3    H176240   0.145   4.006  12.606 -0.8118 -0.2671  2.0028
18275TIP3    H276241   0.094   3.901  12.509  1.5373  1.1461 -0.9268
18276TIP3   OH276242   3.245   6.744   1.353 -0.1111  0.6326  0.1129
18276TIP3    H176243   3.256   6.829   1.311  2.3811 -0.1101 -0.9312
18276TIP3    H276244   3.151   6.736   1.368 -0.6608  2.5693 -1.8617
18277TIP3   OH276245   1.061   2.112   2.194 -0.0916  0.1807  0.2147
18277TIP3    H176246   1.040   2.070   2.111  0.4960  1.5278 -0.6367
18277TIP3    H276247   1.040   2.046   2.260 -0.4847 -0.9386 -0.9975
18278TIP3   OH276248   0.105   1.436  15.388 -0.5538 -0.0520  0.0626
18278TIP3    H176249   0.079   1.381  15.315 -0.5533 -1.1611  0.8739
18278TIP3    H276250   0.200   1.428  15.393 -0.6385 -0.8238  0.8008
18279TIP3   OH276251   4.752   1.386   3.948  0.0297 -0.3930  0.4103
18279TIP3    H176252   4.754   1.301   3.991 -1.2937 -0.4281  0.4401
18279TIP3    H276253   4.717   1.446   4.014  1.0174  0.2042  0.4145
18280TIP3   OH276254   3.547   1.988   2.056 -0.1899 -0.0408  0.0527
18280TIP3    H176255   3.497   1.917   2.097  0.5427 -0.2550  0.5911
18280TIP3    H276256   3.599   2.025   2.127 -0.5757  1.0567 -0.2291
18281TIP3   OH276257   0.617   6.320   5.100  0.0599 -0.1401  0.2155
18281TIP3    H176258   0.563   6.355   5.171 -0.3125 -0.2753  0.0053
18281TIP3    H276259   0.701   6.300   5.140  2.0435  5.2077 -0.4399
18282TIP3   OH276260   2.718   0.177  11.623 -0.0140 -0.4127  0.0393
18282TIP3    H176261   2.745   0.211  11.709 -1.1947  1.8435 -0.3910
18282TIP3    H276262   2.787   0.206  11.564 -0.6534  0.6720 -0.2082
18283TIP3   OH276263   2.055   1.987  13.640 -0.1747 -0.3147  0.0693
18283TIP3    H176264   2.122   2.004  13.573  0.9556  0.2371  1.2927
18283TIP3    H276265   2.045   2.071  13.685 -1.8142 -0.3548 -0.1722
18284TIP3   OH276266   5.869   1.957   2.123  0.5639  0.0131  0.5888
18284TIP3    H176267   5.793   1.904   2.099  0.0837  1.5666 -1.6422
18284TIP3    H276268   5.836   2.020   2.187  0.9174 -1.6779  2.5122
18285TIP3   OH276269   0.342   4.802  12.818 -0.6502 -0.3609  0.1896
18285TIP3    H176270   0.277   4.733  12.834 -1.7949  0.9111  1.2113
18285TIP3    H276271   0.347   4.808  12.722 -3.3160  0.6339  0.0513
18286TIP3   OH276272   6.126   1.259  14.000 -0.0380 -0.0232 -0.2458
18286TIP3    H176273   6.194   1.194  14.018  0.4570  0.4929 -0.2498
18286TIP3    H276274   6.052   1.232  14.054  0.0824 -0.7207 -0.4172
18287TIP3   OH276275   3.351   5.252  13.788  0.5057  0.3371 -0.1259
18287TIP3    H176276   3.417   5.197  13.830 -0.8730 -1.2583  0.0983
18287TIP3    H276277   3.352   5.223  13.696 -1.6304 -1.6776  0.3836
18288TIP3   OH276278   1.485   1.229   3.300 -0.2190 -0.6410  0.0315
18288TIP3    H176279   1.521   1.157   3.351 -1.6156 -1.3208  0.1041
18288TIP3    H276280   1.540   1.232   3.221  0.7273 -0.8471  0.6657
18289TIP3   OH276281   3.375   3.108  12.440 -0.9642 -0.0083 -0.1965
18289TIP3    H176282   3.381   3.023  12.397  0.2067 -0.1773  0.2548
18289TIP3    H276283   3.379   3.088  12.534 -1.1473  0.5146 -0.0746
18290TIP3   OH276284   4.426   5.536  11.271  0.1378  0.2900  0.3673
18290TIP3    H176285   4.394   5.512  11.358  1.3118  0.2446  0.8152
18290TIP3    H276286   4.461   5.624  11.283  1.7277 -0.3025  0.3612
18291TIP3   OH276287   5.884   3.953   4.590  0.1578 -0.6067 -0.0546
18291TIP3    H176288   5.820   3.900   4.636  0.4583 -0.3879  0.6291
18291TIP3    H276289   5.946   3.890   4.553  1.1786 -0.7115  1.7419
18292TIP3   OH276290   5.992   5.813  16.928  0.8934 -0.1349  0.5237
18292TIP3    H176291   5.945   5.889  16.893 -1.2058 -1.0688  1.1693
18292TIP3    H276292   5.945   5.791  17.008  0.8765 -2.6303 -0.1138
18293TIP3   OH276293   0.705   1.430   3.346  0.1313 -0.4322  0.4221
18293TIP3    H176294   0.799   1.409   3.347  0.6767  1.7587  0.1180
18293TIP3    H276295   0.677   1.405   3.258  0.4974 -0.7870  0.3988
18294TIP3   OH276296   3.669   3.889   6.169  0.0599  0.6915  0.7329
18294TIP3    H176297   3.611   3.963   6.181  0.3795  0.9132  0.9236
18294TIP3    H276298   3.744   3.907   6.226 -0.3624 -0.3161  1.6511
18295TIP3   OH276299   2.462   6.425   0.629  0.3889  0.1293 -0.0750
18295TIP3    H176300   2.403   6.387   0.694 -0.3422  1.1917 -0.0762
18295TIP3    H276301   2.531   6.467   0.681  0.1655  0.4133 -0.0075
18296TIP3   OH276302   2.708   0.969  11.530 -0.2377  0.0326  0.4592
18296TIP3    H176303   2.717   1.061  11.555  0.4847  0.6494 -1.7965
18296TIP3    H276304   2.615   0.950  11.542 -0.6905  1.5215 -0.3400
18297TIP3   OH276305   3.719   0.614   1.561  0.2247  0.2180  0.2308
18297TIP3    H176306   3.714   0.617   1.465 -1.0703  0.7852  0.2971
18297TIP3    H276307   3.762   0.531   1.579 -0.6294 -0.4961 -0.8366
18298TIP3   OH276308   2.843   4.276   3.372 -0.7712 -0.0437  0.5687
18298TIP3    H176309   2.818   4.349   3.430 -1.1419 -0.5779  1.0994
18298TIP3    H276310   2.918   4.236   3.416  0.0801  0.6173 -0.2379
18299TIP3   OH276311   2.720   4.285   1.155  0.0302  0.2706 -0.2231
18299TIP3    H176312   2.715   4.305   1.249 -2.7933 -0.4433 -0.1344
18299TIP3    H276313   2.676   4.359   1.113  2.3222  1.1869 -1.1641
18300TIP3   OH276314   5.176   5.975  17.228  0.0127  0.5323  0.2308
18300TIP3    H176315   5.146   5.997  17.140 -0.1469  0.4509  0.2652
18300TIP3    H276316   5.134   6.040  17.285  2.2570  2.3421 -0.0271
18301TIP3   OH276317   1.806   3.183  16.019 -0.2026 -0.0271  0.2062
18301TIP3    H176318   1.744   3.203  16.089  0.2423  0.4984  0.4598
18301TIP3    H276319   1.777   3.099  15.983  0.2203 -0.8633  1.7581
18302TIP3   OH276320   2.174   4.855   2.608 -0.7042 -0.4924 -0.0099
18302TIP3    H176321   2.101   4.796   2.627 -0.1703 -0.8613  0.9627
18302TIP3    H276322   2.246   4.797   2.586 -0.5539 -0.1489 -0.4217
18303TIP3   OH276323   0.659   3.371  14.849 -0.3416 -0.0399 -0.4276
18303TIP3    H176324   0.577   3.391  14.804  0.8311 -0.5171 -2.9753
18303TIP3    H276325   0.713   3.450  14.835 -0.6631  0.7583  2.2190
18304TIP3   OH276326   3.091   5.260   0.626  0.6586  0.5288  0.6669
18304TIP3    H176327   3.045   5.261   0.710  0.0641  1.5634  0.3479
18304TIP3    H276328   3.022   5.254   0.561  1.1032  0.0100  0.2396
18305TIP3   OH276329   1.333   3.650   2.795 -0.0865  0.0960 -0.0684
18305TIP3    H176330   1.403   3.674   2.735 -0.3716 -1.1298 -0.9187
18305TIP3    H276331   1.260   3.706   2.770  0.6023  1.5307  0.9579
18306TIP3   OH276332   3.092   6.464  16.689  0.1797  0.0115 -0.3184
18306TIP3    H176333   3.181   6.436  16.711  0.3095  0.7170  0.0976
18306TIP3    H276334   3.101   6.503  16.602  0.2479 -0.0619 -0.3444
18307TIP3   OH276335   3.947   6.347   2.762 -0.1238  0.1763 -0.0135
18307TIP3    H176336   3.980   6.369   2.675  0.4769  1.9773  0.6238
18307TIP3    H276337   3.978   6.257   2.777  1.4730  0.5395 -0.8889
18308TIP3   OH276338   4.015   5.579   6.255 -0.3531 -0.2949  0.6385
18308TIP3    H176339   4.044   5.491   6.279  1.7662  0.2755  0.3195
18308TIP3    H276340   4.095   5.629   6.245 -1.4424  1.2535 -0.8794
18309TIP3   OH276341   5.360   1.368   1.323  0.0039 -0.0039  0.4842
18309TIP3    H176342   5.454   1.353   1.320 -0.0215 -0.2338  0.7793
18309TIP3    H276343   5.338   1.402   1.236  0.6608  1.8753  1.0004
18310TIP3   OH276344   3.572   0.018   4.885 -0.5008 -0.5170  0.1861
18310TIP3    H176345   3.648   0.035   4.941 -1.3391  0.2274  1.1343
18310TIP3    H276346   3.533  -0.062   4.922 -1.0370 -0.0421  0.6726
18311TIP3   OH276347   3.437   4.194  16.916  0.0576  0.6976 -0.6550
18311TIP3    H176348   3.482   4.269  16.877 -1.1880  0.6859 -2.2174
18311TIP3    H276349   3.352   4.192  16.873 -0.7111 -0.4260  0.8306
18312TIP3   OH276350   2.109   4.840  15.846 -0.3417 -0.1111 -0.3924
18312TIP3    H176351   2.023   4.854  15.806  0.5550  2.1154 -1.7659
18312TIP3    H276352   2.105   4.887  15.929 -0.2653  0.5607 -0.7620
18313TIP3   OH276353   3.242   1.524  13.177 -0.2359  0.0932  0.0020
18313TIP3    H176354   3.302   1.563  13.113 -2.3323  1.6439 -1.1325
18313TIP3    H276355   3.253   1.578  13.256 -1.7070  1.8924 -0.9398
18314TIP3   OH276356   1.982   5.393  10.840  0.3324 -0.6835  0.0996
18314TIP3    H176357   2.025   5.450  10.904 -3.0264  0.6919  1.3561
18314TIP3    H276358   1.987   5.441  10.757  0.9331 -0.4246  0.2812
18315TIP3   OH276359   3.261   3.957   5.832  0.1855 -0.5372 -0.1504
18315TIP3    H176360   3.351   3.990   5.837  0.6655 -1.7285 -0.6952
18315TIP3    H276361   3.259   3.883   5.892 -0.5150 -0.3601  0.0554
18316TIP3   OH276362   1.870   3.258  14.453  0.4126  0.0337  0.3981
18316TIP3    H176363   1.893   3.171  14.420 -0.6225 -0.1848  0.2291
18316TIP3    H276364   1.797   3.286  14.398  0.5763  0.9115  0.6172
18317TIP3   OH276365   0.543   2.985   2.757 -0.0395 -0.3304  0.0845
18317TIP3    H176366   0.546   2.890   2.747  1.1052 -0.3956  0.7980
18317TIP3    H276367   0.536   3.019   2.668  3.5140 -1.0223 -0.6167
18318TIP3   OH276368   0.599   4.079  14.409 -0.0223  0.5639 -0.2979
18318TIP3    H176369   0.552   4.053  14.329 -0.4722  1.3439 -0.2947
18318TIP3    H276370   0.660   4.147  14.380  0.2682  0.3914 -0.0902
18319TIP3   OH276371   3.917   1.093  11.182 -0.0727 -0.0116  0.1000
18319TIP3    H176372   3.852   1.130  11.242 -0.3560 -0.7906  0.2851
18319TIP3    H276373   3.982   1.162  11.172 -0.8517  0.7312  0.0235
18320TIP3   OH276374   0.930   5.360  14.852 -0.0937  0.2489 -0.0913
18320TIP3    H176375   0.853   5.389  14.803  1.0138  0.6744 -1.6609
18320TIP3    H276376   0.939   5.423  14.923 -0.9920  0.3917 -0.1037
18321TIP3   OH276377   2.087   3.370   3.064 -0.0402  0.0599  0.1712
18321TIP3    H176378   2.114   3.403   2.979  1.3109  0.2064  0.6265
18321TIP3    H276379   2.047   3.445   3.108 -2.1355 -0.3930 -0.8580
18322TIP3   OH276380   2.066   1.365   0.490  0.0837  0.1866  0.0208
18322TIP3    H176381   2.047   1.457   0.471  2.0021  0.5810 -0.2045
18322TIP3    H276382   2.045   1.319   0.409  2.2693  0.9575 -1.0652
18323TIP3   OH276383   4.220   4.953  11.648  0.1230  0.1636 -0.3961
18323TIP3    H176384   4.269   4.911  11.719 -0.1158  1.0481  0.3050
18323TIP3    H276385   4.128   4.940  11.671  0.0452  1.3005 -0.0161
18324TIP3   OH276386   2.095   0.806   5.046  0.4214 -0.1360  0.1170
18324TIP3    H176387   2.149   0.864   4.993  1.2833  0.3897  1.5142
18324TIP3    H276388   2.056   0.746   4.983  2.0301 -0.0448 -1.0421
18325TIP3   OH276389   4.098   1.905  11.684 -0.2292  0.2920 -0.1048
18325TIP3    H176390   4.127   1.971  11.747 -0.3310 -0.1541  0.4130
18325TIP3    H276391   4.065   1.956  11.610 -1.2005  0.8463  0.6865
18326TIP3   OH276392   2.328   3.682   1.654  0.2240  0.4181 -0.0832
18326TIP3    H176393   2.408   3.698   1.704 -0.2808 -0.8979  1.2416
18326TIP3    H276394   2.273   3.758   1.673 -0.2511 -0.3842  2.0901
18327TIP3   OH276395   2.365   5.241  14.382  0.4760 -0.2903 -0.4772
18327TIP3    H176396   2.317   5.168  14.342  0.4188  0.2823 -1.4882
18327TIP3    H276397   2.449   5.241  14.336 -0.5026  1.9402 -2.5080
18328TIP3   OH276398   1.119   0.560  13.725  0.7446  0.3801 -0.1244
18328TIP3    H176399   1.209   0.531  13.716  1.4357  2.7803 -1.7896
18328TIP3    H276400   1.070   0.509  13.662  2.0142  2.7924 -3.3349
18329TIP3   OH276401   2.621   2.420   5.805  0.4557  0.0928  0.5677
18329TIP3    H176402   2.709   2.441   5.775  0.4675 -1.1961 -0.3953
18329TIP3    H276403   2.621   2.325   5.815 -1.0707 -0.0436 -0.3173
18330TIP3   OH276404   0.174   6.319  17.023 -0.8159  0.4972  0.8955
18330TIP3    H176405   0.186   6.224  17.021  0.6053  0.6000 -2.0504
18330TIP3    H276406   0.079   6.332  17.021 -1.0162 -0.8972  0.4274
18331TIP3   OH276407   4.524   0.792   0.634  0.6140 -0.5613  0.0766
18331TIP3    H176408   4.569   0.758   0.712  0.5704 -1.3758 -0.2411
18331TIP3    H276409   4.523   0.718   0.573  1.0597  0.2074 -0.8828
18332TIP3   OH276410   1.467   4.313  17.451  0.5156  0.2354 -0.0197
18332TIP3    H176411   1.397   4.258  17.416  0.3814  0.5706 -0.2734
18332TIP3    H276412   1.423   4.370  17.514  0.9904 -1.4742  1.9703
18333TIP3   OH276413   6.387   2.924   6.266  0.0940  0.1909 -0.3906
18333TIP3    H176414   6.402   2.876   6.184  1.8442 -0.3948  0.2354
18333TIP3    H276415   6.470   2.918   6.313 -1.3123 -0.8478  2.1353
18334TIP3   OH276416   3.379   4.312   1.540  0.0597 -0.2235  0.0175
18334TIP3    H176417   3.348   4.382   1.481 -0.0375 -0.1853  0.1140
18334TIP3    H276418   3.377   4.352   1.627  0.7218 -0.1019 -0.0130
18335TIP3   OH276419   3.158   4.610  10.803  0.1639  0.1112  0.4988
18335TIP3    H176420   3.195   4.560  10.876  0.3330 -1.1903 -0.4401
18335TIP3    H276421   3.230   4.666  10.773  0.4441 -0.1975  0.5921
18336TIP3   OH276422   1.409   1.038   0.705  0.1785  0.6730  0.0317
18336TIP3    H176423   1.464   1.036   0.783 -2.0848  0.6433  1.7000
18336TIP3    H276424   1.469   1.018   0.633  1.9676 -1.4568  1.9820
18337TIP3   OH276425   1.587   6.334  13.581  0.5837  0.0666  0.2471
18337TIP3    H176426   1.629   6.270  13.640  0.5902  0.8565  1.1247
18337TIP3    H276427   1.493   6.320  13.594  0.5567 -0.9200 -0.8579
18338TIP3   OH276428   2.087   1.513  13.675 -0.0247  0.7702  0.7242
18338TIP3    H176429   2.046   1.430  13.699 -0.8293  1.2315  0.9551
18338TIP3    H276430   2.019   1.562  13.631  1.2419  0.1900 -2.0793
18339TIP3   OH276431   1.131   5.880  13.533 -0.2669 -0.7446  0.3125
18339TIP3    H176432   1.192   5.910  13.465  0.4373 -2.4992  0.0904
18339TIP3    H276433   1.100   5.795  13.500 -2.0416 -0.3594  0.9269
18340TIP3   OH276434   4.620   5.359   3.248 -0.0222  0.1658  0.2674
18340TIP3    H176435   4.708   5.334   3.220 -0.6802 -1.0034 -0.8301
18340TIP3    H276436   4.612   5.322   3.336  0.1303 -0.8204 -0.1262
18341TIP3   OH276437   5.048   4.367  14.264  0.2974  0.2082  0.1110
18341TIP3    H176438   4.962   4.343  14.231  0.5054 -1.6785  0.8391
18341TIP3    H276439   5.044   4.353  14.358  1.4499 -0.1215  0.1354
18342TIP3   OH276440   5.718   4.152   1.741  0.0508  0.3269  0.0486
18342TIP3    H176441   5.666   4.205   1.800  1.0293 -0.8271  2.0644
18342TIP3    H276442   5.809   4.170   1.766  0.4457 -1.2868 -0.0632
18343TIP3   OH276443   4.336   6.737  13.064 -0.0756  0.0491  0.1103
18343TIP3    H176444   4.294   6.734  13.150 -0.3471 -0.6490 -0.0403
18343TIP3    H276445   4.267   6.768  13.005  0.4237  1.6323  0.3125
18344TIP3   OH276446   1.415   5.929  15.753  0.2940  0.3659  0.2090
18344TIP3    H176447   1.467   5.996  15.708  0.3327  0.0469 -0.2309
18344TIP3    H276448   1.413   5.855  15.692  2.3290 -0.9947  1.6100
18345TIP3   OH276449   5.655   2.064   2.926 -0.1513  0.3091 -0.2092
18345TIP3    H176450   5.599   2.130   2.885 -0.9461 -1.3951 -1.9586
18345TIP3    H276451   5.743   2.086   2.897 -0.3672  0.7439 -0.5448
18346TIP3   OH276452   5.379   5.581   4.090 -0.3491 -0.5664  0.3038
18346TIP3    H176453   5.442   5.650   4.111 -0.2347 -0.2036 -1.1033
18346TIP3    H276454   5.345   5.605   4.003  0.6658 -2.9120 -0.8380
18347TIP3   OH276455   2.951   6.206   0.123  0.6662 -0.1959 -0.7054
18347TIP3    H176456   2.983   6.254   0.199  1.1344  0.6470 -1.4114
18347TIP3    H276457   2.862   6.240   0.110  0.7507 -0.0030 -0.7953
18348TIP3   OH276458   1.946   6.740   3.172  0.3975 -0.1678 -0.3207
18348TIP3    H176459   1.863   6.782   3.150  0.3335 -0.6026 -0.9524
18348TIP3    H276460   2.013   6.801   3.139  0.3024 -1.3487 -2.9401
18349TIP3   OH276461   3.623   4.018   5.730  0.4628 -0.3860  0.4743
18349TIP3    H176462   3.665   3.955   5.672 -1.1892  0.1526 -1.4198
18349TIP3    H276463   3.555   3.968   5.775 -0.1465 -0.2387 -0.2449
18350TIP3   OH276464   3.448   5.444  10.800 -0.6273  0.1153  0.2194
18350TIP3    H176465   3.372   5.436  10.743  0.4269  0.1818 -1.2286
18350TIP3    H276466   3.480   5.354  10.809 -0.9056  0.0763  0.8907
18351TIP3   OH276467   3.266   4.499   2.069  0.1947  0.0724  0.7394
18351TIP3    H176468   3.287   4.419   2.117  2.1119  0.2521  0.2531
18351TIP3    H276469   3.171   4.495   2.059  0.1008 -1.5406  1.7560
18352TIP3   OH276470   3.550   4.984  16.176 -0.4634 -0.0836 -0.2982
18352TIP3    H176471   3.519   4.990  16.266 -3.0768 -1.8434 -0.9564
18352TIP3    H276472   3.478   5.019  16.124 -0.0524 -1.3544 -1.8040
18353TIP3   OH276473   2.164   6.355   1.955 -1.0636 -0.2345 -0.2090
18353TIP3    H176474   2.243   6.306   1.932 -0.3745  1.8858 -2.9455
18353TIP3    H276475   2.193   6.446   1.961 -2.9991  0.3891  0.5835
18354TIP3   OH276476   0.135   5.348  13.411  0.0063  0.5518 -0.3015
18354TIP3    H176477   0.067   5.307  13.464  0.8982 -0.9371 -0.2347
18354TIP3    H276478   0.190   5.395  13.474  1.2747 -1.5157  0.2267
18355TIP3   OH276479   4.704   0.445   2.120 -0.5196  0.2024 -0.0891
18355TIP3    H176480   4.771   0.430   2.187  0.7495  3.4931 -0.4285
18355TIP3    H276481   4.754   0.469   2.042 -2.0740  0.7434 -0.9582
18356TIP3   OH276482   4.604   4.169  13.422  0.0578 -0.2212  0.3159
18356TIP3    H176483   4.538   4.230  13.456 -0.0276 -0.4265  0.5218
18356TIP3    H276484   4.557   4.120  13.355  0.5185  0.9163 -0.8721
18357TIP3   OH276485   0.757   1.473  14.094  0.7580  0.7751 -0.1110
18357TIP3    H176486   0.827   1.436  14.041  1.5082  1.1922  0.5506
18357TIP3    H276487   0.780   1.450  14.184 -2.0890 -2.5899 -0.0556
18358TIP3   OH276488   1.618   3.824   2.565  0.3337  0.4304 -0.5261
18358TIP3    H176489   1.646   3.840   2.475  1.6331 -1.0840 -0.4371
18358TIP3    H276490   1.570   3.741   2.561 -0.3434  0.7843  0.0427
18359TIP3   OH276491   0.941   6.593  13.331  0.5348  0.1267 -0.2503
18359TIP3    H176492   0.875   6.541  13.376  1.1340 -0.6883 -0.2970
18359TIP3    H276493   1.018   6.536  13.326  1.6946  1.4921  0.9861
18360TIP3   OH276494   1.495   3.733  14.376 -0.2182 -0.1303  0.0772
18360TIP3    H176495   1.471   3.647  14.342 -0.4178  0.3769 -1.0771
18360TIP3    H276496   1.443   3.742  14.456 -1.8799 -0.1543 -0.9659
18361TIP3   OH276497   0.622   2.523   3.395  0.2912 -0.0924 -0.2434
18361TIP3    H176498   0.676   2.545   3.472 -1.0914 -0.6983  0.9498
18361TIP3    H276499   0.537   2.562   3.414  0.6414  2.1413 -2.7911
18362TIP3   OH276500   3.053   1.438  12.069  0.2439  0.0239 -0.2366
18362TIP3    H176501   3.046   1.353  12.025  0.0674  1.4772 -3.3319
18362TIP3    H276502   3.115   1.423  12.140  2.1915 -2.1688 -2.1965
18363TIP3   OH276503   5.306   0.023   1.888  0.4261 -0.1574 -0.2403
18363TIP3    H176504   5.229  -0.013   1.844 -1.2455  1.7943  0.9465
18363TIP3    H276505   5.289   0.010   1.981  0.8269  1.5736  0.1105
18364TIP3   OH276506   1.667   1.204   0.698  0.2686  0.8006 -0.7102
18364TIP3    H176507   1.699   1.181   0.785 -1.2131  2.8854  0.4655
18364TIP3    H276508   1.715   1.146   0.639 -0.9865 -3.0262  1.6670
18365TIP3   OH276509   1.135   2.363   0.254 -0.2996 -0.0159  0.3145
18365TIP3    H176510   1.112   2.455   0.267 -0.6029  0.3636 -2.2828
18365TIP3    H276511   1.182   2.338   0.333 -1.9317  1.7759  1.9439
18366TIP3   OH276512   1.911   0.683   0.910 -0.0967 -0.0446 -0.2636
18366TIP3    H176513   1.956   0.608   0.950 -0.3076 -0.3852 -0.6544
18366TIP3    H276514   1.829   0.647   0.876 -0.5123  0.5025  0.1389
18367TIP3   OH276515   5.655   4.248   5.059 -0.2739  0.5206 -0.6584
18367TIP3    H176516   5.616   4.214   5.140 -0.3089 -1.3477 -1.4129
18367TIP3    H276517   5.673   4.340   5.078  0.8592 -0.1400  1.9084
18368TIP3   OH276518   4.064   2.730   5.687  0.2033 -0.1381  0.4147
18368TIP3    H176519   4.143   2.783   5.677 -0.1904  0.1919 -1.2625
18368TIP3    H276520   4.005   2.785   5.739  0.4750  0.2896  0.2729
18369TIP3   OH276521   4.420   5.537  14.373 -0.5002  0.2120 -0.4470
18369TIP3    H176522   4.370   5.465  14.409 -2.0530  1.5197  0.1249
18369TIP3    H276523   4.469   5.498  14.301 -1.9919 -1.2395 -0.7390
18370TIP3   OH276524   5.917   2.665   6.398 -0.5508 -0.2968 -0.1001
18370TIP3    H176525   5.982   2.719   6.353 -0.3769  0.3878  0.9306
18370TIP3    H276526   5.864   2.627   6.328  0.4007 -0.1534 -0.9187
18371TIP3   OH276527   5.812   1.696  12.753  0.1984 -0.0696 -0.3050
18371TIP3    H176528   5.818   1.787  12.782 -3.8648  0.9192 -1.9316
18371TIP3    H276529   5.806   1.646  12.834  0.7776  1.2819  0.6081
18372TIP3   OH276530   3.349   5.835   1.883 -0.7142 -0.4519 -0.4565
18372TIP3    H176531   3.333   5.743   1.900 -2.4122  0.0896  1.2897
18372TIP3    H276532   3.264   5.877   1.895 -0.5745  1.0874 -3.7085
18373TIP3   OH276533   5.870   3.076   0.106 -0.4495 -0.2858  0.3289
18373TIP3    H176534   5.835   3.127   0.180  1.7545  2.3804 -0.2828
18373TIP3    H276535   5.959   3.052   0.134  0.1637  0.1699 -1.1140
18374TIP3   OH276536   0.479   0.110  12.117  0.2383  0.3694  0.1779
18374TIP3    H176537   0.446   0.196  12.091  0.4280  0.2612 -0.4555
18374TIP3    H276538   0.560   0.128  12.164  1.0395  0.4960 -1.1853
18375TIP3   OH276539   5.933   2.932  12.378  0.5606 -0.5846  0.6473
18375TIP3    H176540   5.980   2.945  12.460 -0.8792  0.8425  1.2731
18375TIP3    H276541   5.881   3.011  12.366  0.6188 -0.8091 -1.5831
18376TIP3   OH276542   4.354   0.959   1.026  0.3100  0.3792  0.1752
18376TIP3    H176543   4.397   0.956   1.111 -1.0154 -0.6377  0.8374
18376TIP3    H276544   4.392   1.035   0.983  0.4340  1.3956  1.9840
18377TIP3   OH276545   1.165   3.592  15.461  0.0935 -0.2534 -0.7760
18377TIP3    H176546   1.127   3.539  15.531 -0.8497  1.0955 -0.2262
18377TIP3    H276547   1.259   3.584  15.472 -0.0047  1.0640  1.5747
18378TIP3   OH276548   3.245   2.000   0.888  0.2926  0.7991 -0.3241
18378TIP3    H176549   3.337   2.022   0.877  0.3830  0.9205  0.5863
18378TIP3    H276550   3.245   1.905   0.901  0.3060  0.8165 -0.1932
18379TIP3   OH276551   2.342   1.409  17.055  0.3019 -0.3569  0.3158
18379TIP3    H176552   2.437   1.398  17.056  0.5555  1.4067  1.8462
18379TIP3    H276553   2.318   1.415  17.147 -1.0941  0.6279 -0.0791
18380TIP3   OH276554   4.123   5.819   2.798 -0.7782  0.0535  0.3243
18380TIP3    H176555   4.197   5.769   2.832  0.0511  0.5832 -0.6498
18380TIP3    H276556   4.048   5.762   2.811  0.0359 -1.1630 -0.1274
18381TIP3   OH276557   3.133   6.223  13.814 -0.6250  0.3709 -0.4356
18381TIP3    H176558   3.159   6.193  13.902  1.1893  0.5998 -0.8655
18381TIP3    H276559   3.175   6.161  13.754 -0.3329  1.2890 -1.1970
18382TIP3   OH276560   2.269   0.600  14.714  0.4014 -0.9410  0.3056
18382TIP3    H176561   2.345   0.616  14.658  0.3894 -0.0674  0.5134
18382TIP3    H276562   2.304   0.548  14.787  0.4183 -2.0694 -0.4870
18383TIP3   OH276563   4.043   2.362  16.422 -0.2395 -0.0188  0.0972
18383TIP3    H176564   4.065   2.290  16.481  1.4586 -0.3023 -0.8152
18383TIP3    H276565   3.981   2.324  16.359 -0.7024 -0.1844  0.6413
18384TIP3   OH276566   1.689   5.474  11.674  0.7920  0.2442  0.6658
18384TIP3    H176567   1.686   5.562  11.711  0.6432  0.0156  1.2131
18384TIP3    H276568   1.750   5.426  11.730  1.0015  0.0403  0.2705
18385TIP3   OH276569   6.360   3.439   2.238  0.1052  0.3234  0.3487
18385TIP3    H176570   6.424   3.475   2.300  0.9368 -1.6656  0.7101
18385TIP3    H276571   6.328   3.516   2.190  3.0312  1.3598 -0.1364
18386TIP3   OH276572   0.739   0.938   2.611  0.2799  0.1321 -0.0330
18386TIP3    H176573   0.772   0.849   2.601 -0.7150 -0.8799  3.9067
18386TIP3    H276574   0.646   0.931   2.586 -0.5074 -0.7701  2.7013
18387TIP3   OH276575   2.254   4.806  17.323 -0.4687 -0.3564  0.0636
18387TIP3    H176576   2.243   4.730  17.381  1.3654 -1.0611 -0.4584
18387TIP3    H276577   2.348   4.820  17.319 -0.7522  1.6937 -0.2236
18388TIP3   OH276578   2.489   5.316   6.514  0.9652  0.2395  0.6599
18388TIP3    H176579   2.541   5.326   6.434  1.9561  1.5707  1.4311
18388TIP3    H276580   2.455   5.227   6.509  0.1011  0.6270 -1.7670
18389TIP3   OH276581   1.647   2.629   4.343 -0.1106  0.1678 -0.9400
18389TIP3    H176582   1.726   2.578   4.360  0.6634  1.7722  0.6316
18389TIP3    H276583   1.610   2.645   4.430 -1.7892  0.0456 -1.5976
18390TIP3   OH276584   6.398   3.937  14.819 -0.0771  0.1753 -0.2013
18390TIP3    H176585   6.396   4.026  14.856 -3.1041 -1.3122  4.0261
18390TIP3    H276586   6.319   3.933  14.764  0.2932  0.2072 -0.7387
18391TIP3   OH276587   0.019   1.435   0.795 -0.1600  0.0792  0.0700
18391TIP3    H176588   0.106   1.445   0.757 -0.7608 -0.0940 -1.4069
18391TIP3    H276589  -0.036   1.406   0.723 -1.5343  0.5443  0.8880
18392TIP3   OH276590   4.556   2.617  13.635  0.2335  0.2335 -0.0799
18392TIP3    H176591   4.481   2.590  13.687  0.9707  1.7547  1.9013
18392TIP3    H276592   4.522   2.685  13.577 -0.1957 -0.0755 -0.1941
18393TIP3   OH276593   3.774   1.691  13.641 -0.3791  0.6136 -0.2122
18393TIP3    H176594   3.740   1.747  13.711  0.2316 -0.4053  0.9314
18393TIP3    H276595   3.782   1.604  13.682 -0.9114 -0.2287 -1.8177
18394TIP3   OH276596   4.554   4.542   1.346  0.5964 -0.5257  0.7805
18394TIP3    H176597   4.566   4.509   1.435 -0.2017 -0.4416  0.9189
18394TIP3    H276598   4.580   4.634   1.351  1.8204 -0.8454  0.6244
18395TIP3   OH276599   5.917   6.053  15.162 -0.0345  0.4021 -0.8665
18395TIP3    H176600   5.963   6.091  15.237  0.0133 -0.2565 -0.5604
18395TIP3    H276601   5.967   6.084  15.086  0.6284  0.1025 -0.5646
18396TIP3   OH276602   5.086   2.291  13.698 -0.0949  0.0996 -0.1310
18396TIP3    H176603   5.171   2.262  13.664  0.6937 -0.2147  1.9361
18396TIP3    H276604   5.105   2.319  13.788 -1.6390  2.9224 -0.5607
18397TIP3   OH276605   0.775   2.644   5.635 -0.4222 -0.1212  0.3654
18397TIP3    H176606   0.766   2.664   5.541 -0.2937  0.3078  0.4437
18397TIP3    H276607   0.685   2.647   5.668 -0.6248 -1.4822  0.0242
18398TIP3   OH276608   6.699   0.753  13.450 -0.3675 -0.0949  0.6285
18398TIP3    H176609   6.656   0.818  13.505 -0.8669  1.9088 -1.9249
18398TIP3    H276610   6.779   0.796  13.420 -0.3341 -0.9140 -0.5268
18399TIP3   OH276611   1.824   5.351  16.647 -0.3106 -0.7747 -0.2783
18399TIP3    H176612   1.838   5.426  16.590 -0.6267 -0.6859 -0.2428
18399TIP3    H276613   1.799   5.280  16.589 -2.1793 -0.2971 -0.1508
18400TIP3   OH276614   1.880   2.086  12.952 -0.0547  0.1471 -0.0200
18400TIP3    H176615   1.958   2.109  13.002 -0.1325 -0.4208  0.3785
18400TIP3    H276616   1.863   2.162  12.897  0.0334  0.7865  0.8231
18401TIP3   OH276617   0.262   2.222   1.367  0.5199 -0.0293 -0.3517
18401TIP3    H176618   0.316   2.148   1.395 -1.1594 -1.1961 -0.0368
18401TIP3    H276619   0.295   2.296   1.417  2.2633 -0.5357 -0.6851
18402TIP3   OH276620   6.413   6.616   1.555  0.0408 -0.0608 -0.4588
18402TIP3    H176621   6.352   6.548   1.582  0.2407  0.3485  1.1022
18402TIP3    H276622   6.357   6.689   1.528 -0.1857  0.3173  0.9751
18403TIP3   OH276623   4.948   4.050   0.198 -0.3850 -0.2194  0.4219
18403TIP3    H176624   4.940   3.991   0.124  2.1070  0.1209 -0.2161
18403TIP3    H276625   4.922   4.136   0.164 -3.4287 -0.7306  1.1918
18404TIP3   OH276626   5.097   6.432  13.433 -0.0855  0.0463 -0.1242
18404TIP3    H176627   5.066   6.511  13.477  2.3619  2.1599 -1.8511
18404TIP3    H276628   5.109   6.368  13.503  0.1478  2.0244  1.7427
18405TIP3   OH276629   5.814   6.509  16.156  0.0869  0.5872 -0.2567
18405TIP3    H176630   5.833   6.432  16.103 -1.7004 -0.3394  0.3543
18405TIP3    H276631   5.720   6.503  16.174  0.3967  1.4826  2.0121
18406TIP3   OH276632   1.189   0.576   2.991  0.2644  0.2987  0.4694
18406TIP3    H176633   1.122   0.509   2.983 -1.2570  1.7924  0.2441
18406TIP3    H276634   1.149   0.645   3.044  1.9331  0.8643  1.0832
18407TIP3   OH276635   6.002   1.417  14.562 -0.0179 -0.1148 -0.0003
18407TIP3    H176636   6.080   1.459  14.599 -1.0153 -0.0294  2.2098
18407TIP3    H276637   5.993   1.455  14.475  1.1355  1.6070  0.5678
18408TIP3   OH276638   1.320   1.167   5.101 -0.3801 -0.2189  0.2655
18408TIP3    H176639   1.352   1.092   5.151 -1.2654  0.3752  1.8028
18408TIP3    H276640   1.331   1.142   5.009  0.2730 -1.8007  0.7477
18409TIP3   OH276641   2.412   0.934  11.897 -0.1876 -0.4824 -0.8616
18409TIP3    H176642   2.468   0.909  11.971 -0.7645 -0.1330 -0.3047
18409TIP3    H276643   2.359   1.006  11.929 -0.4206 -0.2965 -1.6343
18410TIP3   OH276644   4.198   2.961   0.275 -0.0777 -0.2750 -0.0414
18410TIP3    H176645   4.217   2.869   0.260  1.5293  0.1375 -0.7002
18410TIP3    H276646   4.276   3.008   0.245 -1.2405  1.3769 -0.6723
18411TIP3   OH276647   4.159   4.194  13.818  0.2145 -0.1576  0.2518
18411TIP3    H176648   4.126   4.124  13.762  1.5049 -0.6107  0.0417
18411TIP3    H276649   4.121   4.176  13.904 -1.6251  0.4268 -0.3779
18412TIP3   OH276650   4.207   5.358   3.986 -0.2684 -0.8717  0.1127
18412TIP3    H176651   4.175   5.401   4.066 -0.3938 -1.8986  0.6227
18412TIP3    H276652   4.220   5.430   3.924 -0.9351 -0.1469  0.7945
18413TIP3   OH276653   2.746   1.630   3.583  0.2632 -0.1321 -0.1516
18413TIP3    H176654   2.823   1.612   3.636  0.2767  0.8189  0.1599
18413TIP3    H276655   2.761   1.717   3.546 -0.8567  0.2612  0.2675
18414TIP3   OH276656   5.435   2.862  13.763 -0.2156 -0.1184  0.1185
18414TIP3    H176657   5.385   2.916  13.702  1.2043  1.3282  0.1580
18414TIP3    H276658   5.475   2.795  13.709 -0.9426 -0.3418 -0.1474
18415TIP3   OH276659   2.945   5.624  16.978 -0.0677  0.0214 -0.1284
18415TIP3    H176660   2.993   5.584  16.906 -0.0972  0.6367 -0.5002
18415TIP3    H276661   2.905   5.551  17.024 -0.3508 -0.3641 -0.9626
18416TIP3   OH276662   4.927   1.010   0.996  0.2428  0.4695 -0.0711
18416TIP3    H176663   4.916   0.990   0.903  2.6694  1.4911 -0.6431
18416TIP3    H276664   4.924   0.925   1.039  0.9643 -0.2243 -1.3307
18417TIP3   OH276665   1.950   0.498   2.195  0.3214  0.3070 -0.3517
18417TIP3    H176666   1.891   0.545   2.136  1.6213  1.3951 -0.8471
18417TIP3    H276667   2.026   0.478   2.140  0.0449 -1.9582 -0.0098
18418TIP3   OH276668   3.561   3.582   5.950  0.1255  0.0191  0.3493
18418TIP3    H176669   3.647   3.571   5.908  0.1900  0.9537  0.2315
18418TIP3    H276670   3.514   3.502   5.927  0.4558  0.1395 -0.8233
18419TIP3   OH276671   6.050   0.604   5.374  0.5011 -0.3846  0.2861
18419TIP3    H176672   6.017   0.556   5.298  0.6374 -0.3831  0.2249
18419TIP3    H276673   6.115   0.664   5.337 -0.8893  1.0881  0.1231
18420TIP3   OH276674   0.530   0.588  12.646 -0.7712  0.1906  0.1894
18420TIP3    H176675   0.575   0.649  12.704  1.9907 -1.9058  0.4414
18420TIP3    H276676   0.527   0.633  12.561  0.5767  0.9806  0.5300
18421TIP3   OH276677   4.348   0.327   5.664 -0.4349  0.0149 -0.4201
18421TIP3    H176678   4.295   0.252   5.691 -1.9556  1.5308  1.0379
18421TIP3    H276679   4.390   0.358   5.744  0.6476  0.3840 -1.1081
18422TIP3   OH276680   4.294   1.130  14.996 -0.2739  0.2570 -0.0370
18422TIP3    H176681   4.297   1.157  15.088 -0.4707  1.5823 -0.3919
18422TIP3    H276682   4.376   1.163  14.959  0.1787 -0.9732 -0.1707
18423TIP3   OH276683   1.326   0.551   1.990 -0.3994 -0.2165 -0.1922
18423TIP3    H176684   1.386   0.522   1.921 -0.2214  1.6173 -0.8761
18423TIP3    H276685   1.249   0.583   1.942 -0.0364  1.6251  0.3852
18424TIP3   OH276686   6.114   5.845   1.445  0.5641  0.2500  0.1087
18424TIP3    H176687   6.180   5.781   1.471  0.1221 -0.4178 -0.3759
18424TIP3    H276688   6.030   5.801   1.461  0.2624  0.0739 -1.7309
18425TIP3   OH276689   1.331   0.476   2.498 -0.2260  0.8756  0.7601
18425TIP3    H176690   1.360   0.401   2.447  0.3391  1.8708 -0.4136
18425TIP3    H276691   1.363   0.458   2.587  0.9936  0.3276  0.2293
18426TIP3   OH276692   3.365   0.368   0.333 -0.3602 -0.1060  0.3545
18426TIP3    H176693   3.424   0.435   0.298  0.7669 -0.8756  0.7206
18426TIP3    H276694   3.404   0.285   0.306 -2.6194 -0.6496 -1.5087
18427TIP3   OH276695   2.249   3.168  11.269 -1.0111  0.3764 -0.6121
18427TIP3    H176696   2.198   3.248  11.252 -2.1741 -0.6082 -1.9703
18427TIP3    H276697   2.308   3.161  11.193  0.2093  0.7599  0.2718
18428TIP3   OH276698   3.872   5.096  15.890 -0.0513 -0.4531 -0.2599
18428TIP3    H176699   3.873   5.097  15.986 -0.0062 -0.4918 -0.2600
18428TIP3    H276700   3.916   5.014  15.866  0.3144 -0.2443 -0.3194
18429TIP3   OH276701   0.019   2.960   4.239 -0.6597 -0.0248  0.4444
18429TIP3    H176702   0.002   2.870   4.210  0.6108 -0.2651  0.4172
18429TIP3    H276703   0.069   3.000   4.168 -1.0845  0.6640  0.5256
18430TIP3   OH276704   5.246   4.955  17.448 -0.0129  0.3257 -0.1843
18430TIP3    H176705   5.172   4.953  17.509 -0.1167 -0.4631 -0.3161
18430TIP3    H276706   5.270   4.863  17.437  2.2028  0.6289  1.3060
18431TIP3   OH276707   5.814   5.592   6.516 -0.2488 -0.3253 -0.1528
18431TIP3    H176708   5.750   5.662   6.502 -0.3233 -0.2762  0.3822
18431TIP3    H276709   5.779   5.517   6.468 -0.7518 -0.3205  0.1879
18432TIP3   OH276710   0.560   0.877  15.144 -0.0254  0.0042 -0.1442
18432TIP3    H176711   0.555   0.904  15.235 -1.2803 -0.1031 -0.1633
18432TIP3    H276712   0.570   0.958  15.095  1.5218  0.0049  0.1188
18433TIP3   OH276713   6.569   5.771  16.574  0.9577  0.1143  0.0667
18433TIP3    H176714   6.556   5.716  16.651  0.2963 -0.4416 -0.4291
18433TIP3    H276715   6.518   5.850  16.592 -1.8029 -1.2751 -1.0701
18434TIP3   OH276716   3.965   3.151  13.225  0.3749  0.3582  0.3704
18434TIP3    H176717   3.902   3.211  13.185 -0.2791  0.0564  0.9253
18434TIP3    H276718   3.913   3.075  13.250  0.9153  0.2164  1.0818
18435TIP3   OH276719   3.932   1.470  13.091  0.2229 -0.2020 -0.0057
18435TIP3    H176720   3.930   1.395  13.151  1.3652 -1.6862 -1.7389
18435TIP3    H276721   3.991   1.532  13.134  0.3411 -0.8613  0.8305
18436TIP3   OH276722   0.985   6.505  15.345 -0.5211  0.1918 -0.4236
18436TIP3    H176723   0.988   6.593  15.383 -0.0859 -0.5137  1.2873
18436TIP3    H276724   1.033   6.513  15.262 -0.5817  1.5825 -0.3429
18437TIP3   OH276725   3.638   1.739   4.838 -0.2928 -0.2492 -0.1688
18437TIP3    H176726   3.728   1.724   4.867 -0.1579 -0.0210 -0.4619
18437TIP3    H276727   3.585   1.681   4.892 -0.0723  0.3336  0.6840
18438TIP3   OH276728   4.442   0.444   2.010  0.0397 -0.7931  0.1819
18438TIP3    H176729   4.418   0.352   2.005 -0.8878 -0.6081  0.9450
18438TIP3    H276730   4.536   0.443   2.030  0.3563 -1.5402 -1.2214
18439TIP3   OH276731   5.620   1.726   5.295  0.6768 -0.2811 -0.0050
18439TIP3    H176732   5.601   1.686   5.380  0.9145 -1.1189 -0.3366
18439TIP3    H276733   5.577   1.811   5.299  0.1878 -0.5488  0.7322
18440TIP3   OH276734   2.334   4.082  12.622 -0.3055 -0.1255  0.2774
18440TIP3    H176735   2.288   4.140  12.683 -0.0661  0.5610 -0.1889
18440TIP3    H276736   2.423   4.075  12.657  0.4388  1.9230 -1.0669
18441TIP3   OH276737   3.392   6.266   5.108 -0.1080  0.1009  0.3350
18441TIP3    H176738   3.428   6.341   5.060 -2.0372  1.0423  0.2215
18441TIP3    H276739   3.467   6.212   5.129  0.9597  0.0433 -3.0534
18442TIP3   OH276740   4.408   3.313   4.192 -0.5631 -0.2222  0.0304
18442TIP3    H176741   4.342   3.274   4.249 -2.1651  2.4333  0.1582
18442TIP3    H276742   4.454   3.376   4.248  0.5232 -0.3919 -0.6458
18443TIP3   OH276743   4.563   0.434  15.590 -0.3966  0.5312 -0.2646
18443TIP3    H176744   4.511   0.470  15.519 -0.7979 -0.9346 -0.7367
18443TIP3    H276745   4.522   0.350  15.611 -0.9396  1.3743  2.4272
18444TIP3   OH276746   1.215   0.105   2.972 -0.1426 -0.5142 -0.2454
18444TIP3    H176747   1.218   0.049   3.049  1.1518  0.8466  0.7440
18444TIP3    H276748   1.259   0.055   2.904 -1.5095 -1.8242 -0.2230
18445TIP3   OH276749   6.625   3.130  15.931 -0.2360 -0.1602 -0.2530
18445TIP3    H176750   6.557   3.078  15.974 -1.7061  0.5275 -1.6637
18445TIP3    H276751   6.702   3.073  15.931  0.1311  0.0521  3.8762
18446TIP3   OH276752   6.416   4.400   2.982  0.3498 -0.0766 -0.0201
18446TIP3    H176753   6.477   4.418   2.910 -0.6059  0.3080 -0.7694
18446TIP3    H276754   6.337   4.449   2.958 -0.2314 -0.5198  0.9478
18447TIP3   OH276755   4.823   6.646  14.003 -0.3660 -0.7593  0.2569
18447TIP3    H176756   4.846   6.585  14.073 -0.1546 -1.2524 -0.2422
18447TIP3    H276757   4.882   6.721  14.015 -0.9864 -0.3924  1.2012
18448TIP3   OH276758   3.266   5.109   3.096  0.6866 -0.2579  0.2417
18448TIP3    H176759   3.333   5.111   3.165  1.0494 -3.6089  0.1307
18448TIP3    H276760   3.310   5.145   3.019  0.6750  2.3218  1.3383
18449TIP3   OH276761   1.008   4.348  15.626 -0.0356 -0.5354 -0.0516
18449TIP3    H176762   1.083   4.319  15.678  0.2569 -0.1850 -0.2693
18449TIP3    H276763   0.931   4.320  15.676  0.2401  0.4424  0.9523
18450TIP3   OH276764   5.392   0.069  17.358 -0.5064  0.3284 -0.2103
18450TIP3    H176765   5.402   0.106  17.445  0.5763 -1.7606  0.6398
18450TIP3    H276766   5.480   0.073  17.320 -0.5274 -0.5872 -0.3877
18451TIP3   OH276767   1.049   5.355   5.552 -0.3439 -0.2593  0.1022
18451TIP3    H176768   1.139   5.373   5.577 -0.8541 -0.0655  1.9502
18451TIP3    H276769   1.021   5.285   5.611 -1.1378 -0.9624 -1.0627
18452TIP3   OH276770   6.566   1.172   2.429  0.4672 -0.0672  0.1255
18452TIP3    H176771   6.568   1.204   2.519  0.1492  2.2714 -0.6349
18452TIP3    H276772   6.643   1.210   2.388  0.9026 -1.5462 -0.4969
18453TIP3   OH276773   0.893   1.942  13.201  0.0848 -0.3692 -0.1671
18453TIP3    H176774   0.855   2.003  13.264  1.0281 -0.4619  0.5072
18453TIP3    H276775   0.867   1.856  13.233 -0.6475 -0.3695 -0.7245
18454TIP3   OH276776   0.187   5.543  14.039  0.8735  0.2106 -0.0130
18454TIP3    H176777   0.203   5.627  14.082 -1.2492  0.8288 -0.2920
18454TIP3    H276778   0.255   5.536  13.972  0.5328  2.1964 -0.6254
18455TIP3   OH276779   4.382   2.731   1.532 -0.2976 -0.5591  0.4514
18455TIP3    H176780   4.421   2.795   1.591 -0.8159 -0.3067  0.5210
18455TIP3    H276781   4.360   2.781   1.454  0.4666 -0.9091 -0.0011
18456TIP3   OH276782   5.304   3.120  12.271  0.3706 -0.8389  0.0887
18456TIP3    H176783   5.384   3.109  12.220  0.1393 -1.5824 -0.1274
18456TIP3    H276784   5.335   3.126  12.362  0.7499  0.0773 -0.0863
18457TIP3   OH276785   5.948   4.490  16.154 -0.2822  0.3255 -0.4952
18457TIP3    H176786   6.024   4.434  16.168 -0.2039  0.5955  0.2403
18457TIP3    H276787   5.882   4.456  16.214  0.4885  2.3358  1.6618
18458TIP3   OH276788   4.381   0.285  11.683 -0.7314  0.2679 -0.3973
18458TIP3    H176789   4.400   0.207  11.630  0.5058  0.5596 -0.4052
18458TIP3    H276790   4.464   0.308  11.723 -0.8041  2.2452 -1.2614
18459TIP3   OH276791   6.662   2.560   4.648  0.0252 -0.6448 -0.2703
18459TIP3    H176792   6.597   2.531   4.712  0.1870 -0.1787  0.1096
18459TIP3    H276793   6.611   2.572   4.567 -0.3344 -0.4210 -0.0124
18460TIP3   OH276794   4.601   1.946  13.638  0.7091 -0.8641 -0.0918
18460TIP3    H176795   4.560   1.998  13.569  0.6120  0.4165  0.8894
18460TIP3    H276796   4.689   1.982  13.646  0.5727 -0.6913  0.7407
18461TIP3   OH276797   0.876   6.476   4.931  0.4642 -0.5453 -0.6955
18461TIP3    H176798   0.800   6.419   4.936  0.8263 -0.9832 -0.1207
18461TIP3    H276799   0.840   6.564   4.925 -0.0910 -0.6828  0.3956
18462TIP3   OH276800   6.500   5.497   0.737 -0.4074  0.1807 -0.4288
18462TIP3    H176801   6.479   5.589   0.724  0.3129  0.4117 -0.0231
18462TIP3    H276802   6.524   5.490   0.829 -1.7255 -0.6761 -0.1242
18463TIP3   OH276803   4.920   5.853   5.584  0.4457  0.6182 -0.0195
18463TIP3    H176804   4.950   5.837   5.673  0.7164 -0.7649 -0.3333
18463TIP3    H276805   4.933   5.947   5.570 -0.9406  1.1434  1.8599
18464TIP3   OH276806   5.895   3.475   0.207  0.5214 -0.3012  0.4751
18464TIP3    H176807   5.803   3.478   0.234  0.7028 -0.8092  1.1656
18464TIP3    H276808   5.894   3.427   0.124 -0.0568  1.4255 -0.5776
18465TIP3   OH276809   3.042   0.697  12.652 -0.2345  0.1825 -0.3309
18465TIP3    H176810   3.051   0.642  12.574  1.2270 -0.4735  0.2661
18465TIP3    H276811   2.948   0.711  12.661 -0.9364 -3.9534  0.6448
18466TIP3   OH276812   3.544   4.560   6.162 -0.3451  0.2740  0.9518
18466TIP3    H176813   3.533   4.595   6.251 -1.4940  1.4719  0.3702
18466TIP3    H276814   3.586   4.475   6.175 -2.5121 -0.6254  2.8343
18467TIP3   OH276815   0.679   2.169   0.518 -0.3605 -0.8264  0.0708
18467TIP3    H176816   0.622   2.171   0.595  0.4418  1.7852  0.6926
18467TIP3    H276817   0.649   2.093   0.468 -1.0745 -2.4909  2.8125
18468TIP3   OH276818   2.650   1.765  13.123 -0.0637 -0.1528  0.1448
18468TIP3    H176819   2.612   1.678  13.139  2.1817 -0.7416  3.2734
18468TIP3    H276820   2.731   1.747  13.076  0.5373  0.1575  1.0255
18469TIP3   OH276821   4.298   0.510   4.686 -0.0790  0.0064  0.0008
18469TIP3    H176822   4.384   0.531   4.650  0.5072  1.1717  1.9194
18469TIP3    H276823   4.304   0.418   4.711  0.3795 -0.0872 -0.4394
18470TIP3   OH276824   2.598   0.955   5.988 -0.0764 -0.3803  0.0056
18470TIP3    H176825   2.606   0.898   6.064  0.4167  1.1046  1.1093
18470TIP3    H276826   2.676   1.010   5.990 -1.7155  2.1394  0.5559
18471TIP3   OH276827   0.129   0.742   3.253  0.3558  0.0403 -0.3844
18471TIP3    H176828   0.096   0.792   3.328 -0.6645  0.3702 -1.0425
18471TIP3    H276829   0.220   0.724   3.275 -0.2313 -0.9155  1.5043
18472TIP3   OH276830   0.343   0.899  13.622  0.2454 -0.2257  0.1060
18472TIP3    H176831   0.272   0.955  13.590 -0.0176 -0.5607  0.0983
18472TIP3    H276832   0.306   0.854  13.698  1.4892  2.1072  2.2574
18473TIP3   OH276833   2.408   1.922   4.937  0.8108  0.0835  0.1257
18473TIP3    H176834   2.496   1.908   4.974  0.1581  0.2394  1.8591
18473TIP3    H276835   2.354   1.854   4.978 -0.6742  2.3837  2.2359
18474TIP3   OH276836   0.977   3.225   6.110  0.0458 -0.1142  0.4052
18474TIP3    H176837   0.886   3.251   6.102 -0.5168 -2.3231 -5.6543
18474TIP3    H276838   0.975   3.131   6.125  1.2218 -0.4005 -0.9928
18475TIP3   OH276839   2.452   0.611   4.328  0.0615 -0.2797  0.2828
18475TIP3    H176840   2.539   0.640   4.353  0.3017 -0.2981 -0.4909
18475TIP3    H276841   2.466   0.552   4.254 -0.5813 -0.5672  0.3767
18476TIP3   OH276842   3.698   1.719   2.919  0.7760 -0.3125  0.4569
18476TIP3    H176843   3.698   1.805   2.960  0.9852  0.9716 -2.0756
18476TIP3    H276844   3.785   1.683   2.938  0.0307 -0.9416  3.2338
18477TIP3   OH276845   5.488   3.720  14.950 -0.5083  0.0946 -0.1032
18477TIP3    H176846   5.471   3.774  14.872  1.0367  1.3510  0.3792
18477TIP3    H276847   5.501   3.783  15.020  1.2195 -0.8911  0.5177
18478TIP3   OH276848   5.901   5.231   1.228 -0.2047 -0.2221 -0.9598
18478TIP3    H176849   5.830   5.169   1.247  0.2062 -0.5364 -0.3986
18478TIP3    H276850   5.872   5.277   1.150  0.4193 -2.6093 -2.7152
18479TIP3   OH276851   1.815   3.346  13.483 -0.1605  0.3367 -0.0596
18479TIP3    H176852   1.906   3.364  13.460 -0.2693  1.4325  0.3150
18479TIP3    H276853   1.764   3.409  13.433 -0.7034 -0.1034 -0.0750
18480TIP3   OH276854   3.198   6.324  12.835  0.0989 -0.0718  0.5208
18480TIP3    H176855   3.249   6.315  12.916  2.7743  0.7059 -0.9439
18480TIP3    H276856   3.182   6.418  12.828 -0.2397 -0.1528  0.1929
18481TIP3   OH276857   5.214   0.921   2.265  0.3602  0.1772 -0.1364
18481TIP3    H176858   5.139   0.977   2.286 -2.2953 -2.8466 -0.7670
18481TIP3    H276859   5.228   0.934   2.171  1.0864  1.1881  0.0943
18482TIP3   OH276860   2.284   4.145   5.080  0.0449  0.0199  0.0387
18482TIP3    H176861   2.221   4.127   5.011  1.0463 -0.0879 -0.8621
18482TIP3    H276862   2.243   4.215   5.132 -2.2286 -2.0899  1.3750
18483TIP3   OH276863   1.580   5.162   0.689  0.3203  0.3167 -0.3079
18483TIP3    H176864   1.670   5.183   0.713  0.3485  0.9729 -0.9696
18483TIP3    H276865   1.588   5.090   0.627  0.2718 -1.0119  1.1476
18484TIP3   OH276866   5.251   0.778   5.553  0.1275  0.0525 -0.1303
18484TIP3    H176867   5.317   0.846   5.564 -0.6736  0.8970 -0.3857
18484TIP3    H276868   5.203   0.803   5.473  1.2517 -2.0482 -1.5593
18485TIP3   OH276869   5.237   0.308  16.184 -0.4935  0.4446 -0.5133
18485TIP3    H176870   5.152   0.266  16.199 -0.5639  1.0376  0.8499
18485TIP3    H276871   5.270   0.265  16.106 -0.1597 -2.8872  1.2710
18486TIP3   OH276872   1.198   1.997  13.206  0.1607 -0.5383 -0.0224
18486TIP3    H176873   1.218   1.999  13.112 -0.6776 -0.9356 -0.2144
18486TIP3    H276874   1.104   1.981  13.211  0.3158 -1.2838  0.8969
18487TIP3   OH276875   0.952   4.983  12.345  0.7836  0.1871  0.2693
18487TIP3    H176876   1.044   4.968  12.325  1.1234  0.3104  1.6322
18487TIP3    H276877   0.950   5.070  12.385  0.2919 -0.3853  1.5287
18488TIP3   OH276878   2.488   3.431   2.874 -0.2522  0.1619 -0.1453
18488TIP3    H176879   2.573   3.450   2.914 -0.9054  2.2357  0.3480
18488TIP3    H276880   2.445   3.372   2.935  1.2418 -1.9548 -0.9823
18489TIP3   OH276881   4.539   3.485   5.841  0.2888  0.3680 -0.1938
18489TIP3    H176882   4.455   3.477   5.797  0.8989  0.9747 -1.5189
18489TIP3    H276883   4.518   3.486   5.935 -1.0529 -0.7402 -0.4578
18490TIP3   OH276884   6.190   3.161  12.676 -0.3423 -0.4942 -0.4410
18490TIP3    H176885   6.213   3.238  12.624  2.0424  0.5812  1.9781
18490TIP3    H276886   6.208   3.086  12.618  1.2093  0.6486 -1.4885
18491TIP3   OH276887   6.359   5.096   4.872 -0.1379 -0.0473 -0.9079
18491TIP3    H176888   6.315   5.038   4.933 -1.5343  1.3110 -0.5435
18491TIP3    H276889   6.414   5.039   4.818 -1.5520 -1.6909 -0.6743
18492TIP3   OH276890   2.733   6.060  11.645 -0.5270  0.7613  0.3952
18492TIP3    H176891   2.644   6.084  11.673 -0.7377  1.3712 -0.7351
18492TIP3    H276892   2.790   6.117  11.695 -0.9682  2.9230 -1.3821
18493TIP3   OH276893   3.581   4.118   2.648 -0.1734  0.0860 -0.5494
18493TIP3    H176894   3.540   4.059   2.583 -0.0210 -1.2272  0.4959
18493TIP3    H276895   3.644   4.169   2.598 -0.1423 -0.8203 -1.4696
18494TIP3   OH276896   5.156   6.247   4.203 -0.0854 -0.6657 -0.0143
18494TIP3    H176897   5.111   6.318   4.158  0.2114 -1.0194 -0.8789
18494TIP3    H276898   5.116   6.245   4.290  0.6550  1.2613  0.4043
18495TIP3   OH276899   0.201   5.074   1.172 -0.5507 -0.3516  0.1185
18495TIP3    H176900   0.231   5.059   1.082 -2.6210 -1.1925 -0.4852
18495TIP3    H276901   0.182   5.168   1.176  0.4302 -0.1331  0.0011
18496TIP3   OH276902   4.393   4.258  13.693  0.3589 -0.8772 -0.1794
18496TIP3    H176903   4.314   4.220  13.733  0.6621 -1.1179  0.1971
18496TIP3    H276904   4.458   4.256  13.763  0.1039  1.2931  0.1889
18497TIP3   OH276905   1.229   1.595  14.517  0.2499  0.1021 -0.1472
18497TIP3    H176906   1.209   1.575  14.425  0.8559  0.5625 -0.3856
18497TIP3    H276907   1.231   1.509  14.560 -0.4132 -0.0878 -0.4817
18498TIP3   OH276908   4.447   1.672  13.642  0.4486 -0.2472 -0.2515
18498TIP3    H176909   4.404   1.752  13.675  0.8271  0.4726 -1.4403
18498TIP3    H276910   4.382   1.603  13.656  0.0310  0.2984  0.6174
18499TIP3   OH276911   4.837   2.414   4.319  0.0075 -0.3496 -0.9193
18499TIP3    H176912   4.771   2.360   4.361 -1.9314  2.0381 -0.6678
18499TIP3    H276913   4.887   2.353   4.264 -0.7437 -2.6463  0.7884
18500TIP3   OH276914   6.721   3.781  13.056 -0.1517 -0.0959  0.7813
18500TIP3    H176915   6.776   3.709  13.025 -0.2653 -0.2156  0.8562
18500TIP3    H276916   6.636   3.766  13.014 -0.3589 -0.3569  1.2828
18501TIP3   OH276917   1.971   1.649  16.231 -0.4152 -0.3392  0.1105
18501TIP3    H176918   2.000   1.703  16.158  0.5512 -0.1893  0.5987
18501TIP3    H276919   1.961   1.561  16.193 -1.9771  0.1334 -0.6769
18502TIP3   OH276920   4.494   1.364  12.491  0.2184  0.2988  0.6144
18502TIP3    H176921   4.488   1.269  12.495 -1.4188  0.3902  1.1700
18502TIP3    H276922   4.555   1.381  12.419  1.7875 -1.1543  1.5331
18503TIP3   OH276923   6.060   1.188  11.876 -0.0239 -0.1132 -0.1630
18503TIP3    H176924   6.137   1.131  11.878 -0.3646 -0.6767 -1.8073
18503TIP3    H276925   6.005   1.151  11.807 -0.3004  2.1622 -1.2403
18504TIP3   OH276926   1.939   2.402  13.578 -0.4175 -0.0304  0.5842
18504TIP3    H176927   1.887   2.372  13.503  2.7789 -1.0096 -1.4489
18504TIP3    H276928   1.910   2.347  13.651 -1.6671 -1.0262 -0.6105
18505TIP3   OH276929   3.151   5.463  12.057  0.1085 -0.0844  0.1425
18505TIP3    H176930   3.202   5.438  11.980 -0.3160  0.5450 -0.3544
18505TIP3    H276931   3.155   5.386  12.114  0.5868 -0.4933 -0.4255
18506TIP3   OH276932   0.133   0.002   6.804  0.0890 -0.4308  0.2959
18506TIP3    H176933   0.212  -0.041   6.771  1.8750  2.1099  1.0162
18506TIP3    H276934   0.062  -0.056   6.777  2.1428 -2.7231 -0.5723
18507TIP3   OH276935   4.195   3.084   1.526 -0.4043 -0.2526 -0.7828
18507TIP3    H176936   4.162   3.173   1.513 -1.5883 -0.8819 -2.4854
18507TIP3    H276937   4.120   3.028   1.507  0.3156 -1.6405  0.2710
18508TIP3   OH276938   1.574   3.164   6.162  0.0342  0.2803  0.4125
18508TIP3    H176939   1.591   3.127   6.249 -0.5772  1.0468  0.8661
18508TIP3    H276940   1.521   3.241   6.179 -3.0119 -1.3700 -0.8338
18509TIP3   OH276941   4.625   3.412   2.106 -0.0488  0.7685  0.6736
18509TIP3    H176942   4.606   3.366   2.024 -1.0850  2.8745 -0.3239
18509TIP3    H276943   4.695   3.360   2.146  0.9804  0.0260 -1.8598
18510TIP3   OH276944   1.425   2.851   2.941  0.0157 -0.3880  0.2930
18510TIP3    H176945   1.487   2.852   3.015  1.5808  1.0100 -0.9681
18510TIP3    H276946   1.451   2.774   2.890  0.8731  0.2923 -0.3255
18511TIP3   OH276947   3.925   0.677  12.791 -0.4366  0.1908 -0.4650
18511TIP3    H176948   3.830   0.662  12.793 -0.4937  0.5527 -0.4337
18511TIP3    H276949   3.959   0.607  12.736 -0.8698  0.8172 -1.5558
18512TIP3   OH276950   3.137   4.352   2.283  0.3962  0.2469  0.3577
18512TIP3    H176951   3.064   4.329   2.225 -1.0152  2.1558  1.2328
18512TIP3    H276952   3.134   4.287   2.353 -2.1300  1.6297  1.6807
18513TIP3   OH276953   3.682   4.192   1.260  0.0391 -0.2619 -0.2580
18513TIP3    H176954   3.755   4.133   1.238 -0.5894 -1.1263 -0.0728
18513TIP3    H276955   3.641   4.212   1.176  1.5334  1.6814 -0.6015
18514TIP3   OH276956   1.994   3.817  16.159  0.2328  0.2189  0.0019
18514TIP3    H176957   2.036   3.826  16.245  0.5160 -1.0378  0.0111
18514TIP3    H276958   2.063   3.785  16.102  0.7103  3.2959 -1.3261
18515TIP3   OH276959   6.553   5.276  16.986 -0.1875 -0.0901  0.1455
18515TIP3    H176960   6.529   5.281  17.079  0.3977 -3.5463  0.6300
18515TIP3    H276961   6.611   5.200  16.981  1.0088  0.8780 -2.8724
18516TIP3   OH276962   6.455   6.308   6.214  0.3395  0.1520  0.2454
18516TIP3    H176963   6.479   6.254   6.139  0.1863  0.0596  0.2635
18516TIP3    H276964   6.529   6.298   6.275 -0.0426 -0.6616  0.5840
18517TIP3   OH276965   2.994   3.817  13.186  0.3162  0.3242 -0.2585
18517TIP3    H176966   3.027   3.812  13.096 -1.0630  0.2081 -0.7747
18517TIP3    H276967   3.063   3.778  13.239  1.3481  0.8061 -1.2119
18518TIP3   OH276968   1.055   2.126  16.771  0.4163 -0.7602 -0.2002
18518TIP3    H176969   1.129   2.149  16.827 -0.0264 -0.9066  0.4499
18518TIP3    H276970   0.998   2.202  16.774  0.8829 -0.3461 -1.3023
18519TIP3   OH276971   4.147   5.329   3.522  0.0563 -0.0276  0.9090
18519TIP3    H176972   4.123   5.349   3.432 -0.0312 -0.1221  0.9107
18519TIP3    H276973   4.066   5.341   3.572 -0.1147 -0.8244  0.8407
18520TIP3   OH276974   1.230   2.530  14.834 -0.2217  0.7341  0.2923
18520TIP3    H176975   1.224   2.454  14.892 -0.3359  1.5882  1.4465
18520TIP3    H276976   1.179   2.506  14.757  1.2620 -1.0719 -0.2107
18521TIP3   OH276977   4.514   2.464  13.375  0.0393 -0.0125 -0.0942
18521TIP3    H176978   4.437   2.490  13.427 -0.5319 -0.2768 -0.7903
18521TIP3    H276979   4.477   2.421  13.298  0.8384  1.3418 -1.2802
18522TIP3   OH276980   1.287   4.164  14.501  0.5239  0.1387 -0.0130
18522TIP3    H176981   1.215   4.226  14.511  1.1302  0.5445  2.6690
18522TIP3    H276982   1.285   4.139  14.409 -1.7652  1.6596 -0.4547
18523TIP3   OH276983   3.660   3.292   2.754 -0.5858 -0.0088  0.7464
18523TIP3    H176984   3.634   3.266   2.665 -2.6704 -0.2474  1.3851
18523TIP3    H276985   3.716   3.220   2.784  1.2520  0.6780 -0.7940
18524TIP3   OH276986   5.379   0.420  13.441  0.0598  0.0946  0.1995
18524TIP3    H176987   5.465   0.445  13.476 -0.0074  2.2273 -1.0015
18524TIP3    H276988   5.389   0.426  13.346 -1.1756 -0.5801  0.0071
18525TIP3   OH276989   5.808   4.623  13.140  0.5051  0.1557 -0.1511
18525TIP3    H176990   5.762   4.547  13.175 -0.3041 -0.0987 -1.6636
18525TIP3    H276991   5.749   4.697  13.155 -0.2261 -0.0904 -1.6529
18526TIP3   OH276992   3.328   1.333   6.130 -0.7486  0.1790  0.1737
18526TIP3    H176993   3.305   1.412   6.177 -2.5927  0.6560 -1.4286
18526TIP3    H276994   3.294   1.262   6.183  2.4520  0.1874  2.5467
18527TIP3   OH276995   2.619   6.035   0.354  0.3436  0.1938 -0.3996
18527TIP3    H176996   2.649   5.973   0.421 -2.1833 -0.3413  0.3749
18527TIP3    H276997   2.632   5.989   0.271 -1.3341 -1.4291  0.1468
18528TIP3   OH276998   5.785   3.319   0.873  0.0384  0.0710 -0.6157
18528TIP3    H176999   5.718   3.387   0.884  0.4565  0.1445  2.3749
18528TIP3    H277000   5.735   3.239   0.860 -0.6974  0.2386  0.8723
18529TIP3   OH277001   2.416   4.392  13.699  0.2524  0.0123  0.2338
18529TIP3    H177002   2.360   4.392  13.776 -0.6477  0.7526 -0.3954
18529TIP3    H277003   2.445   4.483  13.690  0.4941 -0.1022 -0.1985
18530TIP3   OH277004   0.109   4.573   0.098 -0.3454  0.1229 -0.4348
18530TIP3    H177005   0.035   4.593   0.041 -0.4188  0.3988 -0.2470
18530TIP3    H277006   0.186   4.593   0.046 -0.4159  0.7711 -0.3008
18531TIP3   OH277007   4.300   6.522  11.779 -0.0869 -0.2270 -0.1213
18531TIP3    H177008   4.379   6.481  11.815  0.2332 -0.0558 -0.6150
18531TIP3    H277009   4.279   6.592  11.840 -1.1253 -1.6181  1.1922
18532TIP3   OH277010   5.837   4.416  17.384 -0.2907  0.4313 -0.1534
18532TIP3    H177011   5.877   4.465  17.456  1.2120  0.6831 -1.1289
18532TIP3    H277012   5.784   4.480  17.337  2.1652  1.3840 -1.8025
18533TIP3   OH277013   0.500   3.104   4.991  0.1734 -0.1229  0.0805
18533TIP3    H177014   0.484   3.179   5.049 -1.1327 -0.0754 -0.3103
18533TIP3    H277015   0.553   3.140   4.920  0.8813  0.0618  0.6939
18534TIP3   OH277016   6.250   3.802  14.181  0.1023 -0.1773  0.3640
18534TIP3    H177017   6.203   3.879  14.148  0.0155 -1.6437 -3.3386
18534TIP3    H277018   6.181   3.737  14.195  0.4946 -0.6750  0.0131
18535TIP3   OH277019   4.026   5.674  17.471 -0.2171  0.5452  0.4145
18535TIP3    H177020   3.995   5.629  17.549  0.2173  0.0907  0.3263
18535TIP3    H277021   4.068   5.754  17.504  2.3175 -0.8900  0.8757
18536TIP3   OH277022   4.120   2.113   0.628  0.2986 -0.7478  0.5953
18536TIP3    H177023   4.156   2.164   0.700  1.6351 -0.9701  0.1056
18536TIP3    H277024   4.065   2.175   0.580 -1.4910 -0.8567  2.3755
18537TIP3   OH277025   1.803   6.354   6.068 -0.2147 -0.0913 -0.0928
18537TIP3    H177026   1.815   6.449   6.057 -0.6917 -0.2549 -2.5149
18537TIP3    H277027   1.881   6.326   6.115  0.9388  1.2382 -1.1093
18538TIP3   OH277028   3.309   0.646   5.012  0.3589  0.6164  0.0504
18538TIP3    H177029   3.253   0.596   5.072  1.9956 -0.4019  0.7919
18538TIP3    H277030   3.286   0.613   4.925  1.4943 -1.6121  0.5256
18539TIP3   OH277031   0.156   0.228   4.860 -0.0762 -0.3345 -0.0712
18539TIP3    H177032   0.251   0.244   4.857  0.0182 -1.0019 -1.7695
18539TIP3    H277033   0.127   0.242   4.770 -1.7550  0.7062  0.6024
18540TIP3   OH277034   5.001   2.442   3.125 -0.0399 -0.3736  0.1661
18540TIP3    H177035   5.060   2.477   3.059  1.1391 -0.2347  1.2640
18540TIP3    H277036   4.935   2.394   3.075  0.1921  0.6391 -1.1647
18541TIP3   OH277037   4.031   3.498   5.894 -0.0745 -0.0418  0.7998
18541TIP3    H177038   4.076   3.415   5.882  0.5255  0.2642  0.8608
18541TIP3    H277039   4.069   3.555   5.826  0.0423  0.3867  1.2198
18542TIP3   OH277040   3.787   6.506   4.922  0.5856  0.0786 -0.7544
18542TIP3    H177041   3.852   6.576   4.932  0.5098  0.2590 -1.4971
18542TIP3    H277042   3.838   6.426   4.911  0.6888  0.2312 -1.4134
18543TIP3   OH277043   2.923   1.612  12.680 -0.5691  0.5510  0.2706
18543TIP3    H177044   2.830   1.614  12.703 -0.4078  0.6576  0.9297
18543TIP3    H277045   2.954   1.702  12.694 -0.7467  0.9584 -1.6245
18544TIP3   OH277046   1.847   3.671   3.818 -0.3920  0.5288  0.0787
18544TIP3    H177047   1.865   3.587   3.859 -1.2496 -0.6366 -1.7728
18544TIP3    H277048   1.751   3.678   3.819 -0.4325  0.5258 -1.4861
18545TIP3   OH277049   6.204   0.218   4.212  0.3955 -0.3912 -0.4593
18545TIP3    H177050   6.126   0.186   4.168  0.6688 -1.2011 -0.3843
18545TIP3    H277051   6.235   0.291   4.159 -0.2480 -0.2545 -0.6440
18546TIP3   OH277052   4.539   4.955   4.375 -0.1102 -0.4127 -0.3118
18546TIP3    H177053   4.460   4.975   4.425  0.3674 -1.6298  0.9862
18546TIP3    H277054   4.509   4.947   4.285 -1.0157  1.6925 -0.2484
18547TIP3   OH277055   2.954   3.245   5.634  0.0290 -0.7160 -0.3534
18547TIP3    H177056   2.996   3.302   5.570  1.0305 -0.0407  0.8627
18547TIP3    H277057   2.988   3.157   5.614  0.4597 -0.4842 -0.6509
18548TIP3   OH277058   2.106   3.913   4.581 -0.4199  0.0873 -0.8094
18548TIP3    H177059   2.094   3.840   4.641  1.3396 -0.3652 -0.9565
18548TIP3    H277060   2.056   3.889   4.503  0.4792 -1.1574 -1.0171
18549TIP3   OH277061   6.410   6.028   1.758 -0.1822 -0.2138  0.1633
18549TIP3    H177062   6.323   6.062   1.738 -0.2538 -0.5360 -0.0791
18549TIP3    H277063   6.399   5.933   1.759 -0.1464 -0.2331  1.5521
18550TIP3   OH277064   3.122   0.157   4.252  0.0317  0.1063  0.0295
18550TIP3    H177065   3.145   0.136   4.342  1.1241  0.4274 -0.1667
18550TIP3    H277066   3.203   0.148   4.203 -0.6714 -0.6516 -1.0396
18551TIP3   OH277067   4.170   0.683  12.371  0.0817 -0.1581 -0.0098
18551TIP3    H177068   4.192   0.623  12.300 -1.1077 -1.6300  0.7888
18551TIP3    H277069   4.074   0.678  12.378 -0.2151  2.8390 -0.7119
18552TIP3   OH277070   4.539   4.279  16.535 -0.3261  0.0421 -0.1044
18552TIP3    H177071   4.539   4.347  16.467  0.6808  0.5979  0.4245
18552TIP3    H277072   4.524   4.198  16.487 -1.4576  0.6226 -0.7642
18553TIP3   OH277073   1.330   3.639   3.714 -0.1429 -0.0949  0.1997
18553TIP3    H177074   1.308   3.546   3.720  0.1877 -0.2232 -0.5058
18553TIP3    H277075   1.391   3.645   3.640 -0.1446  0.6806  0.2501
18554TIP3   OH277076   1.734   5.576   1.546  0.5664 -0.0558 -0.5830
18554TIP3    H177077   1.663   5.598   1.605  0.7709 -0.6297 -0.1154
18554TIP3    H277078   1.807   5.552   1.603  1.0588  0.2864 -1.0566
18555TIP3   OH277079   0.793   5.914   2.106  0.0851  0.1557 -0.3692
18555TIP3    H177080   0.736   5.845   2.071  0.8241  0.0411 -1.3738
18555TIP3    H277081   0.877   5.900   2.063  1.1515 -0.1928  1.7292
18556TIP3   OH277082   6.475   6.597  15.297 -0.4811 -0.2005  0.0429
18556TIP3    H177083   6.484   6.569  15.206 -0.5587 -2.3276  0.6235
18556TIP3    H277084   6.432   6.682  15.292 -1.6378 -0.8351 -1.8758
18557TIP3   OH277085   1.356   2.529  14.119 -0.6539 -0.6501  0.0692
18557TIP3    H177086   1.408   2.588  14.065  0.4489 -1.8530 -0.2344
18557TIP3    H277087   1.391   2.539  14.207 -1.1766 -0.0913  0.2196
18558TIP3   OH277088   0.325   6.085   5.291  0.5358 -0.0305  0.0628
18558TIP3    H177089   0.366   6.131   5.364 -0.5208  0.7173  0.2165
18558TIP3    H277090   0.278   6.011   5.332  2.7318 -1.6889 -0.2439
18559TIP3   OH277091   3.749   0.427   5.376 -0.2861 -0.0773  0.3707
18559TIP3    H177092   3.656   0.450   5.383 -0.5766 -1.4749  1.7425
18559TIP3    H277093   3.793   0.487   5.436 -0.3491  0.3468 -0.0055
18560TIP3   OH277094   6.370   3.755  15.362 -0.0778  0.5000 -0.4819
18560TIP3    H177095   6.407   3.840  15.384 -0.8029  1.1635 -1.7058
18560TIP3    H277096   6.335   3.766  15.273  0.1034 -1.1700 -0.7985
18561TIP3   OH277097   5.536   3.921  13.067 -0.7536 -0.1028  0.4935
18561TIP3    H177098   5.520   3.952  12.978 -0.5876 -2.7811 -0.5847
18561TIP3    H277099   5.487   3.839  13.073  0.9220 -1.0879  2.1134
18562TIP3   OH277100   2.859   3.272   3.398 -0.4503 -0.1602  0.2514
18562TIP3    H177101   2.918   3.292   3.325 -0.3022  1.5158  0.8054
18562TIP3    H277102   2.775   3.254   3.356 -0.3511  0.7129 -0.3485
18563TIP3   OH277103   5.751   6.424  13.152 -0.2348  0.4506  0.6492
18563TIP3    H177104   5.728   6.427  13.059  0.3442 -0.0251  0.4835
18563TIP3    H277105   5.667   6.431  13.198 -0.6308 -0.3395  0.0744
18564TIP3   OH277106   2.546   6.009   3.326 -0.1014 -0.3738 -0.0566
18564TIP3    H177107   2.561   6.103   3.320  0.3968 -0.2910  1.8705
18564TIP3    H277108   2.607   5.971   3.263 -0.2306  0.5772 -0.7750
18565TIP3   OH277109   6.476   6.499   6.013 -0.2619  0.5906 -0.3006
18565TIP3    H177110   6.523   6.568   6.061  0.5275 -0.4754  0.5132
18565TIP3    H277111   6.457   6.433   6.079  0.9027 -0.9645 -1.4546
18566TIP3   OH277112   2.587   1.861   3.223  0.0095  0.1566 -0.1020
18566TIP3    H177113   2.660   1.810   3.188 -0.1919  1.5562 -2.8254
18566TIP3    H277114   2.546   1.803   3.287  2.3441 -1.3793  0.1355
18567TIP3   OH277115   6.647   2.285   6.279 -0.1905 -0.3086 -0.1089
18567TIP3    H177116   6.592   2.213   6.310 -1.1080  1.0728  1.6558
18567TIP3    H277117   6.593   2.363   6.292  0.6015  0.6975 -2.3531
18568TIP3   OH277118   2.628   4.216   3.968  0.0734  0.2789  0.1424
18568TIP3    H177119   2.684   4.276   3.916 -0.6644 -0.7739 -1.9949
18568TIP3    H277120   2.558   4.192   3.908 -0.7744 -1.1516  1.6484
18569TIP3   OH277121   6.664   0.103  17.281  0.1242  0.2732  0.1596
18569TIP3    H177122   6.664   0.155  17.361  1.7430  1.2328 -0.4046
18569TIP3    H277123   6.595   0.141  17.227  0.1486  0.7209  0.4433
18570TIP3   OH277124   1.521   4.306  16.776 -0.6193  0.3589 -0.2882
18570TIP3    H177125   1.472   4.372  16.826 -1.4009 -1.0750  0.9079
18570TIP3    H277126   1.572   4.357  16.713 -2.6094  2.0102 -0.6663
18571TIP3   OH277127   5.265   3.832   5.896  0.2188  0.1369 -0.6442
18571TIP3    H177128   5.330   3.859   5.831 -0.4300 -2.1520 -2.3776
18571TIP3    H277129   5.190   3.804   5.844 -0.8280 -0.5714  1.1742
18572TIP3   OH277130   5.254   0.261  16.872  0.5067  0.1507 -0.3549
18572TIP3    H177131   5.271   0.171  16.843 -0.9939 -0.0903 -0.6122
18572TIP3    H277132   5.164   0.278  16.843  0.3559  1.3179  0.7254
18573TIP3   OH277133   2.243   5.015  12.163  0.1453 -0.1442 -0.3807
18573TIP3    H177134   2.333   5.048  12.161  0.1424 -0.0767  0.2913
18573TIP3    H277135   2.220   5.003  12.071 -0.1169  2.4606 -0.7254
18574TIP3   OH277136   3.934   1.027  13.073 -0.0347  0.0650  0.3764
18574TIP3    H177137   3.995   0.968  13.029 -0.3926  0.5112 -0.7591
18574TIP3    H277138   3.940   1.003  13.165  0.5915 -1.0412  0.0696
18575TIP3   OH277139   2.515   5.406   3.245 -0.1359  0.6001 -0.6876
18575TIP3    H177140   2.608   5.397   3.266 -0.2493 -1.2964 -0.8279
18575TIP3    H277141   2.513   5.460   3.167  0.8667  0.5401 -0.7644
18576TIP3   OH277142   0.392   5.872   0.541  0.3007  0.1023 -0.0807
18576TIP3    H177143   0.407   5.839   0.629  0.1315  1.6914  0.5822
18576TIP3    H277144   0.420   5.964   0.544  1.0189 -0.0093 -1.8921
18577TIP3   OH277145   2.005   3.939   2.027 -0.0580  0.0779  0.7791
18577TIP3    H177146   2.070   3.937   1.956 -1.0511 -1.5048 -0.1468
18577TIP3    H277147   2.052   3.975   2.102  1.7528 -0.6117  0.0208
18578TIP3   OH277148   0.472   0.050  16.706 -0.4377  0.5159  0.2558
18578TIP3    H177149   0.495   0.109  16.778  0.2671  0.1054  0.3791
18578TIP3    H277150   0.509   0.092  16.629  0.9729 -0.2412  0.4799
18579TIP3   OH277151   5.693   2.317  14.113  0.3650 -0.5360 -0.0143
18579TIP3    H177152   5.604   2.344  14.134  0.5435  1.2507 -1.2700
18579TIP3    H277153   5.689   2.290  14.021  1.1912  0.0389 -0.2315
18580TIP3   OH277154   2.431   6.381   1.837 -0.4930 -0.0226 -0.2511
18580TIP3    H177155   2.436   6.464   1.788  0.0227 -0.4192 -0.8896
18580TIP3    H277156   2.393   6.319   1.774 -1.8431 -0.0432  0.5457
18581TIP3   OH277157   5.545   4.543   1.713  0.6147  0.5024  0.4786
18581TIP3    H177158   5.521   4.461   1.756  0.5083 -0.2451 -0.9537
18581TIP3    H277159   5.569   4.518   1.624  2.0702  1.8358  0.4389
18582TIP3   OH277160   4.809   1.677  14.224 -0.2184 -0.2550  0.1346
18582TIP3    H177161   4.835   1.717  14.307 -3.9745  0.1300  1.3096
18582TIP3    H277162   4.814   1.748  14.160 -0.1163  0.2345  0.6826
18583TIP3   OH277163   1.862   0.248   3.320  0.3993  0.1127 -0.6616
18583TIP3    H177164   1.802   0.174   3.325 -0.7005  0.9769 -0.7603
18583TIP3    H277165   1.822   0.307   3.257  1.0768  0.9714 -0.3056
18584TIP3   OH277166   0.713   6.384   2.271 -0.0919 -0.7010 -0.0688
18584TIP3    H177167   0.628   6.392   2.315  1.4421 -1.4312  3.3449
18584TIP3    H277168   0.724   6.290   2.257  1.6214 -1.0585  2.9778
18585TIP3   OH277169   5.240   5.681  13.115  0.0204 -0.3490  0.3130
18585TIP3    H177170   5.151   5.686  13.080  0.3053 -1.3338 -0.6054
18585TIP3    H277171   5.285   5.755  13.075 -0.1550 -0.3709  0.0661
18586TIP3   OH277172   3.176   5.748   3.435  0.0222 -0.5952 -0.2022
18586TIP3    H177173   3.138   5.666   3.402 -1.5674  1.0615 -2.8755
18586TIP3    H277174   3.105   5.788   3.485  0.2032 -0.0804 -0.3553
18587TIP3   OH277175   2.841   4.450   3.151 -0.2957 -0.0821  0.3436
18587TIP3    H177176   2.815   4.538   3.180  0.5434  1.1237 -2.2351
18587TIP3    H277177   2.839   4.397   3.231 -2.5889  1.8103  1.6844
18588TIP3   OH277178   2.311   6.347   5.146  0.6265 -0.2021 -0.2446
18588TIP3    H177179   2.249   6.380   5.210 -0.9334 -1.8016 -0.8345
18588TIP3    H277180   2.386   6.405   5.152 -1.1148  2.1336  0.1737
18589TIP3   OH277181   0.882   5.556   4.752 -0.3664  0.0261  0.0532
18589TIP3    H177182   0.905   5.642   4.716  1.2540  0.2233  1.4725
18589TIP3    H277183   0.807   5.528   4.699  0.1867  1.5044 -1.6093
18590TIP3   OH277184   3.504   1.985  13.296  0.2243  0.3731  0.4609
18590TIP3    H177185   3.419   1.983  13.252 -0.3131  1.0269  1.4197
18590TIP3    H277186   3.504   1.907  13.352  0.0144  0.6496  0.8584
18591TIP3   OH277187   5.458   2.883  10.807 -0.3735 -0.1364  0.3386
18591TIP3    H177188   5.528   2.945  10.826 -0.6334 -0.0416  0.9774
18591TIP3    H277189   5.464   2.870  10.712  0.0329  0.4376  0.2790
18592TIP3   OH277190   1.159   2.203  14.694  0.4362 -0.3341  0.1405
18592TIP3    H177191   1.239   2.197  14.746  0.3501 -1.6602  0.1418
18592TIP3    H277192   1.094   2.154  14.743 -0.7243  1.6682  0.7101
18593TIP3   OH277193   4.133   4.855   4.334  0.4347 -0.0986  0.0676
18593TIP3    H177194   4.100   4.891   4.252 -1.4281 -1.7461  0.0214
18593TIP3    H277195   4.079   4.896   4.401  2.5427  1.9433  0.6588
18594TIP3   OH277196   6.338   1.928   4.866 -0.5611 -0.8044 -0.0477
18594TIP3    H177197   6.251   1.896   4.891 -0.2656 -1.7045 -0.1383
18594TIP3    H277198   6.321   1.992   4.797 -1.2765  0.4175  1.2151
18595TIP3   OH277199   6.427   1.754  13.624 -0.0356 -0.8589  0.0084
18595TIP3    H177200   6.412   1.666  13.590  0.0557 -0.6139 -0.6892
18595TIP3    H277201   6.372   1.759  13.703 -1.2914 -1.0097 -0.8212
18596TIP3   OH277202   2.186   4.106  13.951 -0.3311  0.0343  0.3999
18596TIP3    H177203   2.268   4.090  13.998 -0.9646  0.4389  1.6771
18596TIP3    H277204   2.129   4.147  14.016 -1.3008  0.4294 -0.6814
18597TIP3   OH277205   2.842   1.223  13.281 -0.1235 -0.5644  0.8151
18597TIP3    H177206   2.832   1.270  13.198  1.4401  2.7865  2.3462
18597TIP3    H277207   2.914   1.162  13.265 -1.4154 -1.7460 -0.8990
18598TIP3   OH277208   4.600   0.492  13.422 -0.1975 -0.6319 -0.3518
18598TIP3    H177209   4.658   0.538  13.361 -0.3985  0.4724  0.2580
18598TIP3    H277210   4.610   0.400  13.400  1.3963 -0.4238 -0.5869
18599TIP3   OH277211   0.925   0.181   3.440 -0.0451  0.3020 -0.6469
18599TIP3    H177212   0.892   0.093   3.461  1.7668 -0.8132 -2.2033
18599TIP3    H277213   0.848   0.238   3.448 -1.0331 -1.1905  1.5141
18600TIP3   OH277214   1.513   2.076  15.610  0.1642 -0.2414  0.6848
18600TIP3    H177215   1.600   2.045  15.585 -0.3161 -0.9090 -0.2125
18600TIP3    H277216   1.529   2.137  15.682  1.5239  0.9022 -0.5139
18601TIP3   OH277217   1.265   6.459  12.165  0.4558 -0.2808 -0.1594
18601TIP3    H177218   1.311   6.460  12.249 -0.3443 -0.5269  0.2964
18601TIP3    H277219   1.280   6.372  12.130 -0.1547 -0.5676  0.2769
18602TIP3   OH277220   5.642   3.455   3.088 -0.0553  0.8133 -0.0556
18602TIP3    H177221   5.694   3.379   3.063  0.6438  1.5050 -0.7603
18602TIP3    H277222   5.555   3.436   3.054  0.6096  1.2366 -2.1362
18603TIP3   OH277223   0.943   1.607   0.789  0.1746 -0.1474 -0.1223
18603TIP3    H177224   0.982   1.559   0.716  0.3228  0.6816 -0.6143
18603TIP3    H277225   0.983   1.694   0.784  0.7705 -0.3135  1.4472
18604TIP3   OH277226   3.110   3.764  12.772 -0.2713 -0.3220  0.0871
18604TIP3    H177227   3.042   3.765  12.840 -0.7264  0.2615 -0.3697
18604TIP3    H277228   3.111   3.853  12.737 -0.8356 -0.8886 -1.4450
18605TIP3   OH277229   0.435   1.474   2.250 -0.1675 -0.3722  0.2610
18605TIP3    H177230   0.402   1.386   2.266  0.0492 -0.1796  2.0315
18605TIP3    H277231   0.401   1.498   2.164 -0.3043 -2.1334 -0.2024
18606TIP3   OH277232   0.706   2.048  16.542 -0.7009  0.0366 -0.2040
18606TIP3    H177233   0.707   1.990  16.466 -0.4168 -1.4222  0.8842
18606TIP3    H277234   0.741   1.995  16.614  0.8349  1.9566  0.5596
18607TIP3   OH277235   4.769   3.088  14.898  0.9807 -0.6523 -0.3536
18607TIP3    H177236   4.858   3.090  14.933 -0.0713  1.4331  2.6057
18607TIP3    H277237   4.735   3.176  14.914 -2.0586 -1.7647 -0.0734
18608TIP3   OH277238   5.258   3.432   3.727  0.2701 -0.4109  0.1958
18608TIP3    H177239   5.246   3.520   3.693  1.0011  0.0522  1.1150
18608TIP3    H277240   5.188   3.421   3.792  0.5857 -0.2654  0.5594
18609TIP3   OH277241   2.009   0.641   2.408 -0.1797 -0.4267  0.2070
18609TIP3    H177242   1.925   0.648   2.455 -0.3831  0.7399 -0.2853
18609TIP3    H277243   1.986   0.600   2.325 -0.7492  2.0091 -0.9434
18610TIP3   OH277244   0.217   2.780  12.072  0.0153  0.0893  0.4172
18610TIP3    H177245   0.174   2.786  12.158 -0.1688 -1.4005  0.4484
18610TIP3    H277246   0.151   2.813  12.011 -0.2468  0.1492  0.7246
18611TIP3   OH277247   4.291   5.971  11.783  0.2736 -0.4977  0.2794
18611TIP3    H177248   4.294   5.887  11.827 -0.6526 -0.6022  0.1568
18611TIP3    H277249   4.297   5.950  11.690 -2.5942 -0.6762  0.0508
18612TIP3   OH277250   6.688   4.223  14.508  0.1003 -0.5422 -0.0691
18612TIP3    H177251   6.597   4.244  14.486  0.2339  0.6166  0.4442
18612TIP3    H277252   6.740   4.278  14.448  0.4752 -1.3288 -0.4829
18613TIP3   OH277253   4.648   1.944  14.939 -0.5402 -0.2037 -0.3951
18613TIP3    H177254   4.648   2.036  14.912  0.5720 -0.4936 -1.4694
18613TIP3    H277255   4.732   1.910  14.909 -0.6673 -1.4258  0.5478
18614TIP3   OH277256   2.070   2.815  17.412 -0.1883 -0.5161  0.0794
18614TIP3    H177257   2.127   2.854  17.478 -0.6950 -0.9714  0.8049
18614TIP3    H277258   2.126   2.755  17.363  0.1661 -0.2656  0.1773
18615TIP3   OH277259   4.120   6.432  12.912  0.2744  0.1417  0.4028
18615TIP3    H177260   4.080   6.501  12.965  1.0339  0.0825  1.0782
18615TIP3    H277261   4.172   6.478  12.847  0.5455  0.2068  0.6661
18616TIP3   OH277262   3.360   1.108  16.924 -0.5753 -0.0438  0.6962
18616TIP3    H177263   3.444   1.062  16.918 -0.3560  0.3101  0.9968
18616TIP3    H277264   3.297   1.048  16.884 -0.3264 -0.6815  1.2317
18617TIP3   OH277265   2.929   6.437   6.234  0.7859 -1.0145  0.3103
18617TIP3    H177266   2.844   6.395   6.224  0.3871 -0.1192 -0.2996
18617TIP3    H277267   2.961   6.408   6.319 -0.7649 -0.2899  1.1869
18618TIP3   OH277268   1.381   5.324   0.564 -0.1080 -0.0805 -0.1136
18618TIP3    H177269   1.450   5.308   0.629 -0.2823 -2.2288 -0.4040
18618TIP3    H277270   1.368   5.240   0.521 -1.7146  0.7119 -1.2745
18619TIP3   OH277271   6.063   1.114   0.986  0.7044 -0.4250  0.1340
18619TIP3    H177272   6.027   1.091   1.071  0.3576 -0.0990  0.0776
18619TIP3    H277273   6.071   1.209   0.988  0.7630 -0.4213 -0.1712
18620TIP3   OH277274   0.609   6.242   0.050  0.4074 -0.1859  0.4189
18620TIP3    H177275   0.644   6.155   0.033 -2.1898 -1.3334  0.3809
18620TIP3    H277276   0.548   6.258  -0.022 -0.6764  0.7216  1.4848
18621TIP3   OH277277   1.648   6.185   2.224  0.2241  0.4820 -0.2272
18621TIP3    H177278   1.737   6.169   2.193  0.0679 -0.4016 -0.2338
18621TIP3    H277279   1.659   6.228   2.308  0.7681 -3.1545  1.7683
18622TIP3   OH277280   4.551   4.761  14.257 -0.3529  0.4889 -0.3590
18622TIP3    H177281   4.632   4.726  14.220  0.1626  0.6640  0.5925
18622TIP3    H277282   4.533   4.839  14.205  0.2253  0.5903 -0.4103
18623TIP3   OH277283   5.089   2.318  13.980  0.3830 -0.3974  0.8229
18623TIP3    H177284   5.127   2.232  13.970 -1.1393 -1.2438  1.8238
18623TIP3    H277285   5.129   2.353  14.060  2.1665  0.5303 -0.4138
18624TIP3   OH277286   1.108   5.953  14.311  0.4731  0.1891 -0.1390
18624TIP3    H177287   1.078   5.929  14.223  0.5541 -0.4853  0.0083
18624TIP3    H277288   1.036   5.925  14.368 -0.0506  1.5936 -0.0762
18625TIP3   OH277289   2.130   6.037  12.904  0.0595  0.1578 -0.4444
18625TIP3    H177290   2.147   6.035  12.810  5.4501 -0.0915  0.2617
18625TIP3    H277291   2.105   6.128  12.922 -4.1859 -0.3975 -2.2295
18626TIP3   OH277292   0.684   2.812  12.249  0.2535 -0.0521  0.0363
18626TIP3    H177293   0.621   2.769  12.192 -0.6202  1.7871 -0.4606
18626TIP3    H277294   0.652   2.902  12.256  2.9019  1.0129 -0.3986
18627TIP3   OH277295   3.956   2.040  11.479 -0.5289 -0.0158 -0.3837
18627TIP3    H177296   3.902   2.117  11.461 -1.0560 -0.3832 -0.4014
18627TIP3    H277297   3.968   1.999  11.393 -1.4826 -0.7491 -0.1850
18628TIP3   OH277298   2.013   4.944   2.279 -0.6059  0.5044  0.1240
18628TIP3    H177299   1.935   4.944   2.333 -1.0464 -0.8893 -0.4701
18628TIP3    H277300   2.048   4.855   2.285  0.6867  0.9685  0.0118
18629TIP3   OH277301   3.267   4.569   2.387  0.2960  0.2154 -0.0437
18629TIP3    H177302   3.216   4.493   2.357  2.2224 -1.4549  0.7134
18629TIP3    H277303   3.212   4.610   2.454  0.0894 -1.8303  1.1202
18630TIP3   OH277304   3.241   2.274  16.842 -0.0158 -0.3427  0.2136
18630TIP3    H177305   3.209   2.360  16.813 -0.3671 -0.6377 -0.2855
18630TIP3    H277306   3.229   2.217  16.766 -0.9206 -1.1277  0.9340
18631TIP3   OH277307   4.724   6.561  11.886  0.1719  0.6311  0.1604
18631TIP3    H177308   4.715   6.495  11.817 -0.7792  1.3416 -0.4190
18631TIP3    H277309   4.782   6.521  11.951 -0.3156 -0.7288 -0.2244
18632TIP3   OH277310   2.509   5.296   5.548  0.5784  0.1942  0.2042
18632TIP3    H177311   2.484   5.386   5.526  0.0978  0.2620  0.9968
18632TIP3    H277312   2.539   5.301   5.638 -1.2177 -0.7659  0.8956
18633TIP3   OH277313   0.824   2.227   3.405 -0.2515 -0.0864 -0.6746
18633TIP3    H177314   0.817   2.311   3.360  1.5851 -0.1348 -1.1376
18633TIP3    H277315   0.911   2.195   3.382 -0.8492 -2.0521 -0.3700
18634TIP3   OH277316   1.617   3.710  12.137  0.0690 -0.6213  0.3612
18634TIP3    H177317   1.641   3.687  12.227  0.9551  0.3432  0.3920
18634TIP3    H277318   1.530   3.749  12.144 -0.8120 -2.5043  0.4954
18635TIP3   OH277319   3.663   5.273  15.833 -0.5004  0.7642 -0.1643
18635TIP3    H177320   3.730   5.338  15.814  0.3097 -0.5190 -1.9887
18635TIP3    H277321   3.711   5.197  15.866 -0.9884 -0.2200 -1.6158
18636TIP3   OH277322   4.906   2.389  15.483  0.2277 -0.4039 -0.4480
18636TIP3    H177323   4.978   2.377  15.544  0.9269 -3.2247 -1.6386
18636TIP3    H277324   4.947   2.418  15.402 -0.0547 -1.1400 -0.8699
18637TIP3   OH277325   4.244   2.354  16.769 -0.1122  0.3415 -0.4680
18637TIP3    H177326   4.199   2.428  16.810 -1.3311 -0.9964  0.7340
18637TIP3    H277327   4.234   2.283  16.832  0.1204 -1.1299 -2.0313
18638TIP3   OH277328   3.268   5.499   3.139 -0.1845 -0.5669 -0.6761
18638TIP3    H177329   3.267   5.529   3.049 -1.4008  2.2415  0.1492
18638TIP3    H277330   3.360   5.485   3.159  0.1227 -0.8844 -2.2135
18639TIP3   OH277331   4.330   6.416   0.240  0.1499 -0.7562 -0.3065
18639TIP3    H177332   4.242   6.402   0.203  0.3792  0.1054 -1.2120
18639TIP3    H277333   4.362   6.495   0.197  0.5418  0.1606  1.5768
18640TIP3   OH277334   5.572   2.200  13.516  0.1453 -0.2053  0.1150
18640TIP3    H177335   5.601   2.187  13.425 -1.1045  1.9614 -0.6684
18640TIP3    H277336   5.646   2.245  13.558  0.2133 -0.0332 -0.1892
18641TIP3   OH277337   4.459   3.544  16.402  0.1537 -0.8004  1.4924
18641TIP3    H177338   4.389   3.562  16.465  0.1726  0.3952  1.1964
18641TIP3    H277339   4.531   3.600  16.429 -0.6533  1.6557 -0.9354
18642TIP3   OH277340   5.279   5.455   0.816 -0.1332 -0.0380  0.2087
18642TIP3    H177341   5.274   5.388   0.748 -0.7883 -1.0285  1.2170
18642TIP3    H277342   5.218   5.523   0.788  0.6206  0.2192 -0.8764
18643TIP3   OH277343   0.048   2.205   1.744 -0.0772  0.1000 -0.0040
18643TIP3    H177344   0.004   2.132   1.700  0.2487  0.3895 -0.8384
18643TIP3    H277345   0.029   2.281   1.689  1.0750  0.3164 -0.1407
18644TIP3   OH277346   2.699   1.880  16.099 -0.0637  0.4054  0.0968
18644TIP3    H177347   2.658   1.965  16.117  2.5147  1.3940  1.7782
18644TIP3    H277348   2.695   1.833  16.182 -1.2715 -1.1312 -0.7595
18645TIP3   OH277349   5.733   1.742   4.428  0.1022  0.1677  0.1737
18645TIP3    H177350   5.660   1.804   4.431 -0.6098 -0.5894 -0.6757
18645TIP3    H277351   5.703   1.667   4.480  0.4235  0.0083  0.1323
18646TIP3   OH277352   1.070   1.499   2.246 -0.2512 -0.5908  0.4038
18646TIP3    H177353   1.142   1.436   2.237  0.7133  0.6753 -1.3468
18646TIP3    H277354   1.081   1.558   2.172 -1.3717  1.4189  1.7627
18647TIP3   OH277355   0.941   4.452  13.659 -0.3345 -0.3349 -0.0167
18647TIP3    H177356   0.924   4.358  13.668 -1.2710 -0.0062  2.4888
18647TIP3    H277357   0.860   4.487  13.622 -0.5662 -0.3322  0.4862
18648TIP3   OH277358   6.580   2.785   0.072 -0.0905 -0.0782  0.1705
18648TIP3    H177359   6.523   2.707   0.074 -1.8555  1.1666  0.9292
18648TIP3    H277360   6.664   2.753   0.103  0.0163 -2.2397 -2.0147
18649TIP3   OH277361   2.906   0.707   0.107 -0.2492 -0.2439  0.3290
18649TIP3    H177362   2.867   0.648   0.042 -0.3986 -1.2152  1.2795
18649TIP3    H277363   2.975   0.753   0.060  0.5458 -1.9074 -0.1965
18650TIP3   OH277364   3.360   4.554   3.590 -0.0722  0.5058  0.1097
18650TIP3    H177365   3.413   4.508   3.655 -0.0784 -0.4644 -0.5625
18650TIP3    H277366   3.272   4.555   3.628 -0.1862 -0.5264 -0.1103
18651TIP3   OH277367   1.667   1.192  14.476 -0.5760  0.2653  0.8628
18651TIP3    H177368   1.614   1.268  14.453 -0.3418  0.9474  2.3928
18651TIP3    H277369   1.739   1.229  14.529  1.3376 -0.6440 -0.9695
18652TIP3   OH277370   4.705   1.382   2.300 -0.1651 -0.1876  0.1126
18652TIP3    H177371   4.746   1.369   2.385 -1.5732 -0.3527  0.8068
18652TIP3    H277372   4.620   1.337   2.307 -0.8695  0.8996 -0.9134
18653TIP3   OH277373   2.446   6.136   1.202 -0.0404 -0.1213 -0.2110
18653TIP3    H177374   2.491   6.208   1.246 -0.4511  1.1786 -1.8031
18653TIP3    H277375   2.445   6.065   1.266  4.1916 -0.2418 -0.0047
18654TIP3   OH277376   6.596   4.288  12.155 -1.1325  0.1950  0.3812
18654TIP3    H177377   6.599   4.221  12.087 -1.3069  0.3442  0.2232
18654TIP3    H277378   6.606   4.240  12.237  0.3708  0.1536  0.1882
18655TIP3   OH277379   5.077   2.991  14.257  0.0756 -0.3421  0.3526
18655TIP3    H177380   5.007   2.935  14.225 -1.0374  1.1006  0.1336
18655TIP3    H277381   5.141   2.931  14.294 -0.5953 -1.7966 -0.7349
18656TIP3   OH277382   2.705   6.591   2.433 -0.3617 -0.0175 -0.0800
18656TIP3    H177383   2.768   6.631   2.493 -1.5832  1.6476  0.1852
18656TIP3    H277384   2.748   6.512   2.401  1.0210 -0.0200  1.6459
18657TIP3   OH277385   5.516   5.849  15.411  0.5237 -0.1351 -0.8361
18657TIP3    H177386   5.548   5.760  15.423  2.6537  0.9074  2.4932
18657TIP3    H277387   5.574   5.887  15.345  1.7307 -0.3512  0.0568
18658TIP3   OH277388   1.530   3.424   4.999  0.1829 -0.7670  0.4494
18658TIP3    H177389   1.440   3.397   5.016  0.1383  0.5199  2.7607
18658TIP3    H277390   1.522   3.505   4.949  0.1451 -1.6609 -1.0320
18659TIP3   OH277391   2.835   3.485  12.451 -0.7156 -0.8121  0.1443
18659TIP3    H177392   2.836   3.502  12.357 -0.8926  0.7418  0.4034
18659TIP3    H277393   2.743   3.470  12.472 -0.7011 -0.9610  0.1006
18660TIP3   OH277394   2.504   1.620   4.993 -0.0362 -0.5695 -0.1192
18660TIP3    H177395   2.557   1.600   5.070  0.3109 -0.6893 -0.3885
18660TIP3    H277396   2.564   1.665   4.933 -0.7995  1.4013  0.4939
18661TIP3   OH277397   2.150   6.178   5.904 -0.0390 -0.4153 -0.1577
18661TIP3    H177398   2.065   6.221   5.916 -0.4447 -1.2850  0.1811
18661TIP3    H277399   2.211   6.232   5.954 -0.3202  0.4107 -0.6770
18662TIP3   OH277400   1.418   0.273   0.029 -0.3573  0.4373  0.6643
18662TIP3    H177401   1.464   0.216  -0.033  0.7718 -1.3981  3.0253
18662TIP3    H277402   1.329   0.279  -0.006  0.1789 -0.6498 -1.0302
18663TIP3   OH277403   2.292   1.618  14.656  0.4388 -0.2813  0.5293
18663TIP3    H177404   2.356   1.661  14.714  0.3070  1.5495 -0.6176
18663TIP3    H277405   2.279   1.532  14.696  1.6508  0.2631  2.2519
18664TIP3   OH277406   3.349   4.789   6.335 -0.4638  0.3993  0.2857
18664TIP3    H177407   3.378   4.724   6.399  0.2987  2.2301  1.8858
18664TIP3    H277408   3.374   4.873   6.372 -1.7734  1.6809 -1.5234
18665TIP3   OH277409   3.433   0.022   0.976 -0.3093  0.1199  0.0717
18665TIP3    H177410   3.482   0.088   1.025  1.5213 -1.0547 -0.0857
18665TIP3    H277411   3.423   0.060   0.889  2.6360 -0.5675 -0.6920
18666TIP3   OH277412   2.851   6.190   0.778  0.7462  0.4720  0.0731
18666TIP3    H177413   2.780   6.209   0.717 -0.5592 -0.3562  1.2727
18666TIP3    H277414   2.811   6.137   0.846  2.3464  0.6482  1.2223
18667TIP3   OH277415   4.277   4.948  15.461  0.4043 -0.9857  0.1665
18667TIP3    H177416   4.272   4.910  15.373 -0.3450 -2.2797  0.7360
18667TIP3    H277417   4.219   4.893  15.514 -0.2466  0.6124  1.1904
18668TIP3   OH277418   3.033   4.598   2.560 -0.1629 -0.0634 -0.2583
18668TIP3    H177419   2.983   4.653   2.620  0.5488 -0.6228  0.8595
18668TIP3    H277420   2.967   4.548   2.512 -0.7243  0.2120  0.2285
18669TIP3   OH277421   5.124   2.770  15.165 -0.0894 -0.1469  0.0276
18669TIP3    H177422   5.130   2.762  15.070 -2.3461 -1.7940 -0.0592
18669TIP3    H277423   5.134   2.681  15.197  0.0904  0.3106  1.3011
18670TIP3   OH277424   1.216   3.180   0.207 -0.5909  0.1988  0.4758
18670TIP3    H177425   1.128   3.182   0.246 -0.9838  1.3473 -0.3995
18670TIP3    H277426   1.202   3.208   0.116  0.5247 -0.7972 -0.0284
18671TIP3   OH277427   6.537   5.384   0.479 -0.0671 -0.1378 -0.5667
18671TIP3    H177428   6.457   5.434   0.466 -2.3173 -2.8709  1.6019
18671TIP3    H277429   6.572   5.416   0.562  0.4153  0.1051 -0.8506
18672TIP3   OH277430   5.714   3.226  15.196  0.0110  0.0922  0.3335
18672TIP3    H177431   5.674   3.305  15.159 -0.3443  0.0486  0.6117
18672TIP3    H277432   5.640   3.165  15.206  0.4912 -0.8055 -1.2071
18673TIP3   OH277433   3.227   6.126   3.670 -0.5265 -0.3782  0.6667
18673TIP3    H177434   3.184   6.183   3.734  0.0884  1.5725 -0.5754
18673TIP3    H277435   3.157   6.068   3.639 -0.9534 -1.0347  2.6504
18674TIP3   OH277436   0.550   0.656   2.513  0.3549 -0.4676  0.5200
18674TIP3    H177437   0.527   0.743   2.545 -0.3618 -1.0482  1.6056
18674TIP3    H277438   0.646   0.653   2.520  0.4533  0.4409 -0.1263
18675TIP3   OH277439   5.675   3.949  14.763  0.3637 -0.5093 -0.3960
18675TIP3    H177440   5.716   4.017  14.815  3.0530 -2.5955  0.3952
18675TIP3    H277441   5.581   3.970  14.767  0.9593  2.5512  0.5336
18676TIP3   OH277442   1.061   3.722  17.126 -1.0284  0.1923 -0.5191
18676TIP3    H177443   0.989   3.774  17.090 -0.6472  0.3890 -1.0058
18676TIP3    H277444   1.139   3.775  17.112 -1.0334  1.0552  2.1340
18677TIP3   OH277445   1.316   2.597   0.026 -0.3016 -0.1461 -0.1313
18677TIP3    H177446   1.348   2.579   0.114  0.7461  2.2926  0.0582
18677TIP3    H277447   1.224   2.621   0.039  0.1956  1.5757  0.5545
18678TIP3   OH277448   3.579   4.580   5.377  0.4704 -0.6457  0.7174
18678TIP3    H177449   3.548   4.628   5.301  0.1865 -1.1267  0.5259
18678TIP3    H277450   3.568   4.488   5.354  1.4849 -0.8156  0.8817
18679TIP3   OH277451   4.511   6.380   1.349 -0.4894 -0.1905 -0.4663
18679TIP3    H177452   4.586   6.322   1.357 -1.1741 -1.1035 -0.5519
18679TIP3    H277453   4.536   6.442   1.281  1.0411  0.8865  1.0104
18680TIP3   OH277454   1.650   4.983   4.720  0.0289 -0.3928  0.7062
18680TIP3    H177455   1.680   4.892   4.720  1.0772 -0.0533  0.4588
18680TIP3    H277456   1.678   5.018   4.635 -2.0043 -0.3455 -0.0069
18681TIP3   OH277457   6.268   3.269   0.134 -0.3789 -0.7560 -0.4606
18681TIP3    H177458   6.342   3.263   0.073  0.7375  0.0255  0.7534
18681TIP3    H277459   6.308   3.294   0.217 -1.9756 -0.7738  0.3475
18682TIP3   OH277460   5.333   6.683  13.665 -0.0033 -0.3854 -0.1794
18682TIP3    H177461   5.347   6.729  13.748  0.6597  0.2678 -0.6359
18682TIP3    H277462   5.420   6.678  13.625 -0.0003 -2.3512 -0.0137
18683TIP3   OH277463   0.070   1.895   0.450 -0.0525  0.1024 -0.4273
18683TIP3    H177464   0.112   1.809   0.451  0.3754  0.2461 -2.1120
18683TIP3    H277465   0.134   1.954   0.490  1.3367  0.2676 -2.7036
18684TIP3   OH277466   4.367   1.315   4.669 -0.3772  0.8317 -0.2942
18684TIP3    H177467   4.286   1.276   4.704 -0.7341  0.9118 -1.0176
18684TIP3    H277468   4.341   1.353   4.585  0.2681  1.4560 -0.2202
18685TIP3   OH277469   0.229   2.814   5.419 -0.5487 -0.1016 -0.5142
18685TIP3    H177470   0.284   2.764   5.478 -0.0689 -0.2916 -1.1062
18685TIP3    H277471   0.290   2.859   5.361 -0.9900  0.6837 -0.3837
18686TIP3   OH277472   6.413   6.021   6.352 -0.1770  0.4566 -0.3955
18686TIP3    H177473   6.341   6.051   6.296 -0.1907  0.0145 -0.6161
18686TIP3    H277474   6.492   6.052   6.309 -0.2032  0.3830 -0.4970
18687TIP3   OH277475   5.610   0.747   1.347  0.4771 -0.0716 -0.3008
18687TIP3    H177476   5.579   0.834   1.322 -0.4698  0.0785  1.2140
18687TIP3    H277477   5.557   0.687   1.294 -0.7225  0.2463  0.4817
18688TIP3   OH277478   0.465   1.842   2.892 -0.2435 -0.3221 -0.3639
18688TIP3    H177479   0.468   1.938   2.898  0.8813 -0.4266  1.4618
18688TIP3    H277480   0.474   1.824   2.799 -0.7765  1.3441 -0.7871
18689TIP3   OH277481   2.312   2.408   3.900  0.1721  0.1527  0.0436
18689TIP3    H177482   2.316   2.377   3.990 -1.4156  0.7313  0.3337
18689TIP3    H277483   2.219   2.417   3.881  0.4268 -1.0685 -2.0570
18690TIP3   OH277484   1.163   2.933   0.996 -0.0858 -0.0297  0.0076
18690TIP3    H177485   1.246   2.942   0.950 -0.4805 -0.2544 -0.7610
18690TIP3    H277486   1.186   2.945   1.088  0.6538  0.8470 -0.2722
18691TIP3   OH277487   6.121   3.643  17.339  0.2728  0.3502 -0.0501
18691TIP3    H177488   6.137   3.563  17.289  1.0432  0.7365 -0.4299
18691TIP3    H277489   6.159   3.625  17.425 -0.1865  0.0519  0.0991
18692TIP3   OH277490   1.773   2.343   3.870 -0.1904  0.7263  0.9120
18692TIP3    H177491   1.711   2.293   3.923 -0.9197 -1.1394 -1.5134
18692TIP3    H277492   1.722   2.373   3.795  1.0890  2.1290  0.5509
18693TIP3   OH277493   3.636   0.274   2.638 -0.1902 -0.6929 -0.0925
18693TIP3    H177494   3.629   0.325   2.719  0.7493 -0.6465 -0.0316
18693TIP3    H277495   3.548   0.237   2.626 -0.9904  1.1634 -0.2962
18694TIP3   OH277496   5.388   3.229   1.664  0.0263 -0.1356 -0.1050
18694TIP3    H177497   5.362   3.140   1.644  0.4599 -0.3124  0.1012
18694TIP3    H277498   5.466   3.244   1.610 -1.0073  0.7126 -1.4367
18695TIP3   OH277499   3.962   1.259  14.381  0.6725 -0.0612  0.4065
18695TIP3    H177500   3.926   1.172  14.396 -0.1775 -0.0245 -1.2008
18695TIP3    H277501   3.886   1.317  14.381  1.1180  0.5317  0.4638
18696TIP3   OH277502   5.923   6.710   5.070 -0.1354 -0.1052  0.0704
18696TIP3    H177503   5.865   6.703   5.145 -0.6004 -1.1787 -0.3538
18696TIP3    H277504   6.006   6.741   5.106 -0.1326 -1.2697  1.1527
18697TIP3   OH277505   0.674   6.099   6.534 -0.8077  0.4758 -0.0166
18697TIP3    H177506   0.728   6.131   6.462 -0.5321 -0.2624 -0.1461
18697TIP3    H277507   0.599   6.057   6.490  0.9979 -3.0926 -0.1138
18698TIP3   OH277508   3.936   4.537   3.229  0.1336  0.3017  0.0826
18698TIP3    H177509   3.877   4.609   3.207 -0.4775 -0.1012  0.3782
18698TIP3    H277510   3.984   4.568   3.306  1.8011  1.4453 -1.3394
18699TIP3   OH277511   1.957   4.014   1.316 -0.4569  0.2193  0.3163
18699TIP3    H177512   1.899   3.939   1.312 -0.7992  0.4760  0.3859
18699TIP3    H277513   2.014   4.005   1.240 -1.7535  0.8934 -0.7716
18700TIP3   OH277514   5.480   1.373   0.622 -0.0618  0.3368 -0.4650
18700TIP3    H177515   5.445   1.285   0.638 -1.9639  0.8229 -1.6235
18700TIP3    H277516   5.406   1.431   0.638  0.8703  1.6439 -0.7495
18701TIP3   OH277517   2.292   2.284   0.538  0.3564 -0.4508 -0.5282
18701TIP3    H177518   2.347   2.205   0.542  2.1454  0.6952 -1.1250
18701TIP3    H277519   2.292   2.307   0.445  0.2005  0.4701 -0.3055
18702TIP3   OH277520   0.524   4.493   2.193 -0.0535  0.5753  1.0209
18702TIP3    H177521   0.504   4.432   2.264 -1.1162  1.0793  1.1800
18702TIP3    H277522   0.481   4.574   2.219 -1.5720  0.4239 -0.7666
18703TIP3   OH277523   0.060   4.568  13.517 -0.3154 -0.3797 -0.1067
18703TIP3    H177524   0.139   4.569  13.571  1.4207 -2.3163 -2.3975
18703TIP3    H277525   0.020   4.484  13.535  0.1820 -0.9705 -1.5829
18704TIP3   OH277526   1.403   5.934  10.279 -0.0659  0.4459  0.1043
18704TIP3    H177527   1.397   5.880  10.358 -0.8044  0.5912  0.1533
18704TIP3    H277528   1.465   6.003  10.302  0.5842 -0.1416  0.1736
18705TIP3   OH277529   0.066   1.792   1.976  0.0055  0.9021 -0.4112
18705TIP3    H177530  -0.029   1.780   1.972  0.2052 -0.9089 -0.5204
18705TIP3    H277531   0.078   1.887   1.975 -1.8104  1.1788 -0.1151
18706TIP3   OH277532   3.039   4.537  14.374  0.3761 -0.2807  0.1890
18706TIP3    H177533   2.956   4.521  14.419  0.2965 -0.5783 -0.0578
18706TIP3    H277534   3.102   4.479  14.418  0.2173 -0.8500 -0.3167
18707TIP3   OH277535   3.787   5.290  16.865  0.0567 -0.2457  0.0859
18707TIP3    H177536   3.718   5.235  16.904  0.2187  0.5598  1.5801
18707TIP3    H277537   3.841   5.229  16.815  0.3019 -1.4958  1.7972
18708TIP3   OH277538   1.397   6.283   2.037 -0.5248  0.1642  0.2466
18708TIP3    H177539   1.471   6.242   2.082  0.9141  3.1955  0.8568
18708TIP3    H277540   1.325   6.220   2.047  2.1522 -3.5529 -1.4926
18709TIP3   OH277541   3.748   2.158  15.847  0.3974 -0.3825 -0.0998
18709TIP3    H177542   3.830   2.172  15.894  0.4246 -2.2823  0.5123
18709TIP3    H277543   3.776   2.135  15.758  0.4171  1.2258 -0.5340
18710TIP3   OH277544   4.552   3.301  12.415 -0.0990  0.7935  0.2565
18710TIP3    H177545   4.599   3.245  12.476 -2.0084 -0.4272  0.6978
18710TIP3    H277546   4.526   3.377  12.468  2.8364  2.4484 -0.4390
18711TIP3   OH277547   5.577   4.745  16.662 -0.3736 -0.2169  0.1496
18711TIP3    H177548   5.513   4.673  16.664 -0.9708  0.2785 -0.4842
18711TIP3    H277549   5.531   4.819  16.702 -0.2953  0.2154 -0.5418
18712TIP3   OH277550   3.658   2.982  14.082  0.5921  0.1471  0.0341
18712TIP3    H177551   3.596   3.052  14.065 -2.0366 -2.0564 -0.1744
18712TIP3    H277552   3.690   2.956  13.995  0.9436  0.5224  0.0469
18713TIP3   OH277553   0.383   0.025  16.152 -0.0865 -0.4954 -0.1421
18713TIP3    H177554   0.454   0.081  16.120 -1.5647  1.8834  0.5249
18713TIP3    H277555   0.405   0.008  16.243 -0.5963  0.6990  0.2219
18714TIP3   OH277556   4.739   4.314   5.294 -0.8051 -0.2014 -0.1003
18714TIP3    H177557   4.661   4.296   5.241 -0.0152 -0.1303 -1.3190
18714TIP3    H277558   4.777   4.392   5.253  0.6114 -0.9924 -0.3222
18715TIP3   OH277559   3.919   0.520   0.006 -0.4874 -0.0711 -0.2213
18715TIP3    H177560   3.884   0.435   0.033  0.1360  0.0825  1.1414
18715TIP3    H277561   3.846   0.562  -0.040 -0.8017 -1.3262 -0.9061
18716TIP3   OH277562   0.723   5.845   0.968 -0.1098  0.2056  0.2074
18716TIP3    H177563   0.751   5.822   0.880 -1.6787 -2.0077  0.2136
18716TIP3    H277564   0.797   5.823   1.024  1.5922  3.2491 -0.6019
18717TIP3   OH277565   4.748   0.473   3.165 -0.9311  0.3613 -0.2250
18717TIP3    H177566   4.679   0.467   3.099 -1.3783  1.4837  0.0966
18717TIP3    H277567   4.783   0.562   3.155  0.3820 -0.1398 -0.2765
18718TIP3   OH277568   5.271   1.568  15.460  0.3715 -0.1615 -0.5234
18718TIP3    H177569   5.248   1.499  15.522 -1.0041 -0.1135 -0.9430
18718TIP3    H277570   5.262   1.526  15.374  0.7371  0.2029 -0.7393
18719TIP3   OH277571   3.623   4.213   0.551  0.2784  0.1601 -0.2059
18719TIP3    H177572   3.533   4.243   0.560 -0.1519 -1.1197  0.0266
18719TIP3    H277573   3.618   4.139   0.490  1.2029  0.2342 -0.3874
18720TIP3   OH277574   5.947   0.101   1.181 -0.0394  0.4735 -0.2022
18720TIP3    H177575   5.855   0.118   1.162 -0.0305  0.8297  0.0684
18720TIP3    H277576   5.970   0.163   1.250  0.4114  0.4123 -0.2892
18721TIP3   OH277577   6.172   2.963  13.632  0.6936 -0.7662  0.0099
18721TIP3    H177578   6.257   3.005  13.642  0.9939 -1.4014  0.1728
18721TIP3    H277579   6.139   2.952  13.722  0.5336 -0.7150 -0.0413
18722TIP3   OH277580   3.645   4.280   6.285 -0.5564 -0.4260 -0.5800
18722TIP3    H177581   3.571   4.222   6.304  1.8932 -3.7302 -0.3389
18722TIP3    H277582   3.717   4.247   6.338  1.2760  2.4694 -0.9883
18723TIP3   OH277583   4.235   4.320  14.465  0.2279  0.4103  0.1429
18723TIP3    H177584   4.298   4.304  14.535 -1.4193  1.3561  1.9442
18723TIP3    H277585   4.267   4.399  14.422  1.1340 -0.0446 -0.0410
18724TIP3   OH277586   0.062   0.566  13.665  0.1307 -0.1389  0.1189
18724TIP3    H177587   0.049   0.481  13.622 -0.4621 -0.0869  0.1747
18724TIP3    H277588   0.074   0.628  13.593 -2.7707  0.2731 -0.1413
18725TIP3   OH277589   2.345   1.293  15.754  0.9118 -0.1788 -0.0280
18725TIP3    H177590   2.357   1.214  15.807 -2.3857 -1.3151 -0.6982
18725TIP3    H277591   2.308   1.357  15.815  1.1552 -0.0418 -0.0265
18726TIP3   OH277592   5.287   2.509   0.701 -0.1539  0.0933  0.3031
18726TIP3    H177593   5.224   2.438   0.716 -0.2622 -0.0657 -0.8107
18726TIP3    H277594   5.370   2.464   0.686 -0.6274 -0.0196 -2.7012
18727TIP3   OH277595   1.174   1.997   6.348  0.4200  0.1624 -0.5807
18727TIP3    H177596   1.157   1.968   6.437  0.9484 -0.2429 -0.6078
18727TIP3    H277597   1.130   1.933   6.292  2.0656 -0.9584 -0.6530
18728TIP3   OH277598   6.602   3.602  15.320 -0.0003  0.2165 -0.4147
18728TIP3    H177599   6.650   3.521  15.338  0.5207 -0.4165 -3.8338
18728TIP3    H277600   6.510   3.577  15.326  0.1052  0.1113  1.1707
18729TIP3   OH277601   2.911   4.812  12.409 -0.1617  0.1439 -0.6165
18729TIP3    H177602   2.965   4.735  12.397  0.2688  0.6500 -2.2877
18729TIP3    H277603   2.870   4.826  12.323  0.6687  2.3950 -0.7252
18730TIP3   OH277604   0.661   5.108   3.490  0.3525 -0.3501 -0.1553
18730TIP3    H177605   0.645   5.199   3.462  0.1179 -0.8392 -1.7250
18730TIP3    H277606   0.630   5.104   3.580  0.3431  1.1207 -0.0698
18731TIP3   OH277607   1.108   5.364  12.633  0.0425  0.1202  0.1226
18731TIP3    H177608   1.091   5.296  12.698 -1.8114 -0.0268 -0.4685
18731TIP3    H277609   1.198   5.391  12.650 -0.1793 -0.3711  2.3183
18732TIP3   OH277610   5.395   4.851   3.725  0.0473 -0.2389  0.1686
18732TIP3    H177611   5.421   4.819   3.639 -0.6076  0.6334 -0.3741
18732TIP3    H277612   5.456   4.922   3.744 -0.1751 -0.0396  0.1483
18733TIP3   OH277613   1.245   3.253   6.110 -0.2209  0.2146  0.2659
18733TIP3    H177614   1.149   3.245   6.111 -0.3160 -0.5484 -2.9465
18733TIP3    H277615   1.276   3.173   6.150 -0.8917  0.5600  1.5333
18734TIP3   OH277616   3.928   4.779  16.103  0.1545  0.7157 -0.2383
18734TIP3    H177617   3.960   4.793  16.014 -1.1988  3.2687 -0.4373
18734TIP3    H277618   3.853   4.721  16.092  1.0243 -0.3931 -0.5043
18735TIP3   OH277619   1.029   6.476   2.355 -0.6383  0.2953 -0.0995
18735TIP3    H177620   1.019   6.383   2.373 -2.8928  0.7889  1.6151
18735TIP3    H277621   0.940   6.508   2.340 -0.2493  2.5500  1.6683
18736TIP3   OH277622   0.253   2.264   5.844  0.3219  0.0111 -0.4729
18736TIP3    H177623   0.241   2.346   5.893  2.0843 -0.3799  0.7194
18736TIP3    H277624   0.213   2.197   5.899  1.2801 -0.2725 -0.0988
18737TIP3   OH277625   0.823   0.190  17.035 -0.7041 -0.2384  0.3399
18737TIP3    H177626   0.734   0.226  17.033 -1.1207 -1.2476 -1.3480
18737TIP3    H277627   0.816   0.113  17.092 -0.8155 -0.0815  0.5395
18738TIP3   OH277628   3.220   0.749   5.717  0.0901 -0.3063  0.1596
18738TIP3    H177629   3.151   0.685   5.700  1.3882 -1.4205 -1.2383
18738TIP3    H277630   3.252   0.726   5.805  0.3451 -1.4274 -0.2018
18739TIP3   OH277631   5.657   3.688   3.467  0.3785  0.4536  0.1704
18739TIP3    H177632   5.574   3.664   3.427  0.8734  1.5863 -1.6852
18739TIP3    H277633   5.658   3.783   3.466  1.7463  0.4631  0.0228
18740TIP3   OH277634   0.424   5.898  14.948  0.0020  0.4441  0.1584
18740TIP3    H177635   0.335   5.933  14.941 -0.2390 -0.3587 -1.1768
18740TIP3    H277636   0.464   5.918  14.863 -0.1259 -2.3549 -0.6686
18741TIP3   OH277637   1.860   1.712  13.672  0.2606  0.1867 -0.5097
18741TIP3    H177638   1.801   1.776  13.712 -0.3402 -0.3923 -0.4673
18741TIP3    H277639   1.869   1.741  13.581  0.7702  0.8820 -0.2560
18742TIP3   OH277640   3.406   0.976   1.794 -0.1678 -0.3013  0.2681
18742TIP3    H177641   3.381   1.068   1.790 -1.5797 -0.7207 -1.4468
18742TIP3    H277642   3.359   0.942   1.870  0.0372  0.2856  0.6644
18743TIP3   OH277643   0.883   4.261   4.752 -0.1283  0.5814 -0.2605
18743TIP3    H177644   0.959   4.300   4.796 -0.9437  1.5248  0.3622
18743TIP3    H277645   0.905   4.168   4.743  0.7980  0.7091  0.5620
18744TIP3   OH277646   6.001   4.778  13.332 -0.4019 -0.7072 -0.5039
18744TIP3    H177647   6.087   4.815  13.313 -0.8390  0.8988  0.4293
18744TIP3    H277648   5.942   4.825  13.273 -0.7455 -1.2457 -0.5964
18745TIP3   OH277649   5.693   2.811   2.731 -0.0718  0.4078  0.3392
18745TIP3    H177650   5.671   2.719   2.745 -2.4210  0.8826  0.1668
18745TIP3    H277651   5.703   2.820   2.636  1.0661  0.1897  0.4179
18746TIP3   OH277652   3.313   1.475  10.912 -0.3160 -0.0658  0.0488
18746TIP3    H177653   3.401   1.441  10.899 -0.4974 -0.5194 -0.0235
18746TIP3    H277654   3.325   1.555  10.964  0.1931  0.2662 -0.5587
18747TIP3   OH277655   4.834   4.084   1.182 -0.1098 -0.2778 -0.4148
18747TIP3    H177656   4.814   4.177   1.192 -1.7324 -0.4492 -1.7789
18747TIP3    H277657   4.788   4.058   1.102  2.5404 -1.6316 -1.6220
18748TIP3   OH277658   3.724   6.591  15.898  0.0495  0.1822 -0.3915
18748TIP3    H177659   3.687   6.523  15.842 -0.4034  0.7616 -0.7995
18748TIP3    H277660   3.649   6.629  15.944  0.2681  0.5866 -0.3611
18749TIP3   OH277661   4.274   5.238   0.198 -0.0205 -1.0595 -0.2421
18749TIP3    H177662   4.261   5.330   0.219  2.5830 -0.9505  1.4370
18749TIP3    H277663   4.196   5.194   0.232 -0.8005  0.3944 -0.0828
18750TIP3   OH277664   3.924   2.208   1.545  0.3661  0.0313 -0.9977
18750TIP3    H177665   3.934   2.132   1.601 -0.1286  0.4672 -0.2956
18750TIP3    H277666   3.870   2.178   1.472  2.3396 -0.9661 -2.1330
18751TIP3   OH277667   0.415   0.936   3.782  0.2121 -0.1452  0.1301
18751TIP3    H177668   0.429   1.014   3.835  0.5562  0.7227 -1.1906
18751TIP3    H277669   0.320   0.933   3.768 -0.0769 -1.2758  2.0683
18752TIP3   OH277670   1.885   2.459   3.041  0.6121 -0.4032 -0.3079
18752TIP3    H177671   1.865   2.509   3.120 -0.8775 -1.0577 -0.2393
18752TIP3    H277672   1.971   2.491   3.013  0.2459  1.3039  0.4156
18753TIP3   OH277673   1.857   6.177  11.420 -0.4629 -0.0245 -0.4276
18753TIP3    H177674   1.878   6.214  11.334  1.3135 -1.0670 -0.5098
18753TIP3    H277675   1.937   6.189  11.471 -1.5556  0.7404  1.1752
18754TIP3   OH277676   0.710   0.995  14.907  0.5747  0.4383  0.3502
18754TIP3    H177677   0.771   1.046  14.854  2.1239 -1.8540 -0.2053
18754TIP3    H277678   0.765   0.937  14.959 -1.0952 -0.8745  0.7588
18755TIP3   OH277679   3.775   2.280  12.400 -0.1101 -0.1825  0.6429
18755TIP3    H177680   3.709   2.319  12.456 -0.6848 -0.6000  0.2616
18755TIP3    H277681   3.751   2.307  12.311  0.0638 -0.5720  0.4735
18756TIP3   OH277682   0.967   2.800  16.563  0.1176  0.1017  0.3745
18756TIP3    H177683   0.876   2.823  16.584 -0.2426 -1.7208  1.0545
18756TIP3    H277684   1.008   2.783  16.648  0.8793  0.1783  0.0289
18757TIP3   OH277685   2.254   1.308  10.631 -0.0476 -0.7687  0.4693
18757TIP3    H177686   2.164   1.304  10.663 -0.7002  3.7374 -0.0823
18757TIP3    H277687   2.262   1.234  10.572 -2.8729 -2.1556  1.6354
18758TIP3   OH277688   0.598   1.286  12.473  0.2806 -1.1645  0.2732
18758TIP3    H177689   0.557   1.371  12.490 -0.0418 -1.3087  0.2102
18758TIP3    H277690   0.692   1.306  12.467  0.1986 -0.8017  0.1816
18759TIP3   OH277691   4.402   3.443   2.370 -0.9985  0.4102 -0.0193
18759TIP3    H177692   4.414   3.466   2.278 -1.2158 -0.0356 -0.1652
18759TIP3    H277693   4.307   3.436   2.381 -0.9992  1.0060  0.3792
18760TIP3   OH277694   6.680   1.363   1.917  0.4873  0.4987  0.0896
18760TIP3    H177695   6.656   1.275   1.946  0.1491 -0.1792 -2.0504
18760TIP3    H277696   6.757   1.385   1.969  0.0494 -0.6726  1.3062
18761TIP3   OH277697   1.964   0.023   6.272 -0.2232  0.1114  0.2873
18761TIP3    H177698   1.958   0.087   6.343 -1.2537  0.7379 -0.3336
18761TIP3    H277699   2.056  -0.002   6.270  0.2858  1.8138  0.3576
18762TIP3   OH277700   2.424   3.665   4.472 -0.1165  0.2856  0.6138
18762TIP3    H177701   2.490   3.734   4.476 -0.8787  1.1099 -0.4313
18762TIP3    H277702   2.457   3.605   4.405 -0.2360  0.5076  0.3518
18763TIP3   OH277703   1.543   2.378   1.127 -0.1543 -0.1236  0.3869
18763TIP3    H177704   1.601   2.440   1.172  0.8858  0.1024 -1.1831
18763TIP3    H277705   1.472   2.432   1.094  0.6429  0.2366 -0.7990
18764TIP3   OH277706   0.419   0.584   6.190 -0.2587 -0.0214 -0.3807
18764TIP3    H177707   0.476   0.567   6.266  1.0393  1.9595 -0.8395
18764TIP3    H277708   0.333   0.555   6.218  0.7031 -1.9675  0.8120
18765TIP3   OH277709   2.978   3.661   0.072 -0.0436 -0.1608 -0.2712
18765TIP3    H177710   2.986   3.566   0.064  0.7437 -0.0651 -0.7734
18765TIP3    H277711   3.045   3.686   0.135 -1.5464 -0.1298  1.3779
18766TIP3   OH277712   1.988   5.305   1.164  0.4024 -0.6440  0.1263
18766TIP3    H177713   2.057   5.362   1.131  1.5804 -1.5826  0.8515
18766TIP3    H277714   1.932   5.287   1.088 -0.3135  1.8129 -0.0200
18767TIP3   OH277715   3.403   0.154  15.415  0.1347 -0.3979 -0.3087
18767TIP3    H177716   3.378   0.101  15.490 -0.9420  1.2188  0.5193
18767TIP3    H277717   3.497   0.169  15.427  0.0918 -0.6325  0.3828
18768TIP3   OH277718   0.483   4.202   2.943 -0.4452  0.5967  0.2161
18768TIP3    H177719   0.552   4.251   2.987  0.2327 -0.4601  0.3690
18768TIP3    H277720   0.529   4.153   2.874 -1.1222  0.2829 -0.0214
18769TIP3   OH277721   2.165   4.438  16.119  0.3739 -0.0673  0.0821
18769TIP3    H177722   2.102   4.366  16.121  2.0280 -1.7670 -2.5310
18769TIP3    H277723   2.138   4.491  16.044  1.4135 -0.2607 -0.4480
18770TIP3   OH277724   4.846   4.893   1.483  0.9072  0.2530  0.1345
18770TIP3    H177725   4.827   4.881   1.576 -1.0889  0.0580 -0.2633
18770TIP3    H277726   4.920   4.834   1.466  0.5036 -0.6243  1.3350
18771TIP3   OH277727   0.463   1.050  12.210  0.0231 -0.0411 -0.3640
18771TIP3    H177728   0.491   1.141  12.218 -2.0190  0.7305 -1.2311
18771TIP3    H277729   0.389   1.042  12.271  0.2723 -1.1660 -0.1801
18772TIP3   OH277730   5.651   2.320   1.436 -0.5928 -0.7443 -0.1767
18772TIP3    H177731   5.669   2.361   1.351 -0.6396 -0.6330 -0.1328
18772TIP3    H277732   5.730   2.336   1.487  0.2325 -2.4580 -0.8232
18773TIP3   OH277733   4.858   0.788  14.371 -0.0561  0.0658 -1.0402
18773TIP3    H177734   4.802   0.716  14.399  0.5772  0.1194  0.4284
18773TIP3    H277735   4.816   0.821  14.291 -0.8225 -1.3655 -1.2645
18774TIP3   OH277736   2.053   6.678  15.389  0.3519 -0.3452  0.1628
18774TIP3    H177737   1.998   6.642  15.319  2.8992 -2.0237 -1.1411
18774TIP3    H277738   2.055   6.609  15.456  1.4174 -0.6588 -0.1657
18775TIP3   OH277739   1.200   1.567  14.896 -0.3401  0.4126  0.2583
18775TIP3    H177740   1.152   1.638  14.852 -0.4444  1.1306  1.4931
18775TIP3    H277741   1.136   1.529  14.955  0.1987  0.4104  0.8439
18776TIP3   OH277742   5.294   2.327   1.889 -0.0539  0.2954 -0.2934
18776TIP3    H177743   5.346   2.262   1.843 -0.3643 -2.2153  2.6152
18776TIP3    H277744   5.205   2.291   1.890 -0.3530  0.9927  0.9290
18777TIP3   OH277745   0.562   0.613  11.589  0.4333  0.3257 -0.2503
18777TIP3    H177746   0.654   0.605  11.567  0.7888  1.0669  0.8576
18777TIP3    H277747   0.515   0.587  11.510  1.6143  3.4759 -2.1662
18778TIP3   OH277748   6.636   1.951   1.086  0.0576 -0.3326 -0.5048
18778TIP3    H177749   6.647   1.936   1.180  1.6202  0.2449 -0.5632
18778TIP3    H277750   6.629   1.863   1.050  1.8036 -0.7081 -0.0593
18779TIP3   OH277751   4.320   6.642   1.054  0.2661 -0.8671  0.2698
18779TIP3    H177752   4.360   6.660   0.969  1.5737 -0.0134  1.0231
18779TIP3    H277753   4.252   6.577   1.036 -0.1733  0.0559 -1.5672
18780TIP3   OH277754   4.791   1.294  14.572 -0.0400  0.5454  0.3585
18780TIP3    H177755   4.797   1.243  14.654 -1.3777 -1.5401 -0.7600
18780TIP3    H277756   4.698   1.293  14.550  0.4159  0.1895 -1.6976
18781TIP3   OH277757   5.738   3.841  11.899  0.0565  0.0946  0.1455
18781TIP3    H177758   5.643   3.848  11.889  0.2354  1.5990 -0.7152
18781TIP3    H277759   5.751   3.837  11.994 -1.0678 -4.7575  0.3783
18782TIP3   OH277760   6.711   2.925  15.097 -0.2977 -0.9657 -0.4047
18782TIP3    H177761   6.678   2.840  15.065  1.1895 -0.6165 -3.1967
18782TIP3    H277762   6.806   2.914  15.101 -0.0141  0.7407 -1.5271
18783TIP3   OH277763   2.934   2.568  14.241 -0.2072 -0.1173  0.8945
18783TIP3    H177764   2.874   2.622  14.292  0.1724  0.1000  1.1205
18783TIP3    H277765   3.008   2.553  14.300  0.1601 -0.0012  0.4710
18784TIP3   OH277766   3.175   1.692   5.079 -0.4834 -0.1021  0.2338
18784TIP3    H177767   3.242   1.661   5.139 -0.3245 -0.4238 -0.1052
18784TIP3    H277768   3.200   1.656   4.994 -1.7488 -1.2822  0.3114
18785TIP3   OH277769   5.777   0.749  15.043 -0.1531 -0.4900 -1.3291
18785TIP3    H177770   5.775   0.838  15.077 -0.6956 -1.9555  3.2204
18785TIP3    H277771   5.688   0.734  15.010 -0.5669  0.1844 -0.5664
18786TIP3   OH277772   6.669   2.423   2.540  0.4621  0.9457 -0.6338
18786TIP3    H177773   6.596   2.415   2.478 -0.2185  2.0518 -0.0138
18786TIP3    H277774   6.738   2.368   2.503 -1.1481 -1.3239 -0.5113
18787TIP3   OH277775   6.126   5.139   3.355  0.4585 -0.0648 -0.6381
18787TIP3    H177776   6.123   5.233   3.373  1.1004 -0.0105 -0.8204
18787TIP3    H277777   6.219   5.118   3.348  0.3354 -0.7810 -0.2553
18788TIP3   OH277778   4.673   1.723  12.911  0.4654 -0.0540  0.0920
18788TIP3    H177779   4.646   1.680  12.830  0.5528  1.6060 -0.8584
18788TIP3    H277780   4.641   1.666  12.980 -0.9319 -0.7530 -1.0845
18789TIP3   OH277781   2.987   4.478   1.337  0.9766  0.1726  0.4219
18789TIP3    H177782   2.902   4.519   1.354  1.2560  1.2132 -0.5339
18789TIP3    H277783   2.968   4.385   1.329  0.1106  0.2564  1.3836
18790TIP3   OH277784   5.517   2.300   6.442 -0.5160  1.0237  0.8238
18790TIP3    H177785   5.456   2.332   6.508 -0.7619 -1.0495  1.6502
18790TIP3    H277786   5.603   2.304   6.484 -0.5679  0.4402  0.9810
18791TIP3   OH277787   2.945   5.480   5.582  0.3667  0.2363 -0.0751
18791TIP3    H177788   2.905   5.550   5.633  1.1725 -0.1329  1.1020
18791TIP3    H277789   2.882   5.461   5.512 -1.0906  0.2687  1.2006
18792TIP3   OH277790   6.671   5.317  15.138  0.2145  0.3850  0.1118
18792TIP3    H177791   6.754   5.270  15.150  0.8623  0.8752 -2.0378
18792TIP3    H277792   6.604   5.252  15.160  1.0855 -1.4902 -2.2907
18793TIP3   OH277793   1.885   5.589  14.509 -1.2855 -0.0670  0.3559
18793TIP3    H177794   1.858   5.498  14.496 -2.3116  0.2999 -0.2297
18793TIP3    H277795   1.938   5.587  14.588 -0.1368 -1.3981 -0.3897
18794TIP3   OH277796   5.022   1.248  13.445 -0.2011  0.1790 -0.5171
18794TIP3    H177797   4.931   1.265  13.419  0.6187  2.2298 -2.3363
18794TIP3    H277798   5.021   1.158  13.476 -2.9912  0.3708  0.2100
18795TIP3   OH277799   5.179   5.018   5.505 -0.3659  0.3198 -0.1501
18795TIP3    H177800   5.112   4.950   5.513 -0.1577  0.3243  2.2231
18795TIP3    H277801   5.259   4.971   5.482 -0.7557  0.1015 -1.1227
18796TIP3   OH277802   3.634   1.454   4.657 -0.0206 -0.0366 -0.0448
18796TIP3    H177803   3.706   1.390   4.661  0.5832  0.6682  0.8771
18796TIP3    H277804   3.675   1.537   4.683 -1.2631  0.3041  0.8855
18797TIP3   OH277805   1.315   2.952   0.329 -0.2635  0.0600 -0.7456
18797TIP3    H177806   1.261   2.969   0.406 -2.8969 -0.9701 -2.2350
18797TIP3    H277807   1.291   3.020   0.266  1.0937  0.2893 -1.0686
18798TIP3   OH277808   6.283   6.724  12.782 -0.5560 -0.2612  0.1876
18798TIP3    H177809   6.364   6.743  12.735  0.5107 -3.1591  0.6332
18798TIP3    H277810   6.214   6.766  12.731  1.1818  2.1556 -0.2939
18799TIP3   OH277811   3.732   0.845  16.149 -0.0455 -0.3624  0.2177
18799TIP3    H177812   3.702   0.784  16.081  0.7155 -1.3643  0.7502
18799TIP3    H277813   3.696   0.810  16.230 -0.0920  0.2424  0.4597
18800TIP3   OH277814   5.992   3.235  13.853  0.1973 -0.0900  0.0522
18800TIP3    H177815   6.002   3.250  13.759  2.5177 -2.3135 -0.1876
18800TIP3    H277816   5.947   3.151  13.858 -0.5063  0.3330  0.9689
18801TIP3   OH277817   0.766   5.429  13.395  0.1511 -0.0069 -0.0095
18801TIP3    H177818   0.683   5.438  13.349  0.8007 -2.5528 -1.9495
18801TIP3    H277819   0.741   5.406  13.485 -1.1348  3.4172  0.6674
18802TIP3   OH277820   4.486   5.516   0.024 -0.7185  0.4267 -0.2691
18802TIP3    H177821   4.393   5.527   0.005 -1.2585  0.3674  2.0755
18802TIP3    H277822   4.528   5.591  -0.018 -1.6393 -0.1025 -2.2603
18803TIP3   OH277823   3.518   2.421  16.432 -0.1949  0.8248 -0.0424
18803TIP3    H177824   3.541   2.495  16.489  1.1643  1.9108 -1.9080
18803TIP3    H277825   3.526   2.455  16.343 -0.1532 -1.4147 -0.9593
18804TIP3   OH277826   5.931   4.347   5.681 -0.4773  0.7928  0.4486
18804TIP3    H177827   5.876   4.380   5.753 -0.7356  0.8184  0.2416
18804TIP3    H277828   5.898   4.392   5.603 -0.6381  0.2721  0.2107
18805TIP3   OH277829   4.779   1.722  15.147  0.1670  0.0309 -0.1538
18805TIP3    H177830   4.731   1.744  15.067  2.1981 -0.0292 -1.4557
18805TIP3    H277831   4.808   1.806  15.183 -0.8288  0.0665  0.6265
18806TIP3   OH277832   6.024   0.439  12.240  0.0929 -0.0649  0.5884
18806TIP3    H177833   6.077   0.518  12.228 -0.1306 -0.0441 -0.3033
18806TIP3    H277834   6.005   0.409  12.152  0.0027 -1.0128  0.9208
18807TIP3   OH277835   3.433   2.972   1.680 -0.0166  0.0893  0.1315
18807TIP3    H177836   3.509   3.011   1.723  0.0963 -2.4846  2.5133
18807TIP3    H277837   3.444   2.878   1.691 -3.3812 -0.4147  0.3036
18808TIP3   OH277838   0.532   0.635  15.029 -0.0279 -0.3615  0.3780
18808TIP3    H177839   0.611   0.636  14.975  0.2548 -0.6939  0.7778
18808TIP3    H277840   0.534   0.719  15.076 -1.4546  0.9752 -1.7762
18809TIP3   OH277841   2.892   3.709  12.607  0.6264  0.0333 -0.3907
18809TIP3    H177842   2.865   3.628  12.564  1.4688 -0.3627 -0.2057
18809TIP3    H277843   2.986   3.697  12.623  0.5511  0.6001  0.5886
18810TIP3   OH277844   0.848   1.565   2.382 -0.2739  0.2118 -0.6465
18810TIP3    H177845   0.798   1.624   2.326 -0.8651  1.1778  0.8470
18810TIP3    H277846   0.926   1.544   2.330 -0.6574  1.2838 -1.7157
18811TIP3   OH277847   4.938   0.667   0.911  0.6796  0.4099  0.1492
18811TIP3    H177848   4.977   0.715   0.838  1.4838  0.3431  0.5200
18811TIP3    H277849   4.978   0.580   0.905 -1.7617 -0.7036 -1.3295
18812TIP3   OH277850   6.277   1.115   3.614  0.4180  0.6228 -0.0707
18812TIP3    H177851   6.270   1.092   3.521  0.1460 -1.0932  0.3362
18812TIP3    H277852   6.363   1.083   3.640  0.2476  0.5336  0.3962
18813TIP3   OH277853   6.407   4.755   1.820 -0.4363  0.6796 -0.5845
18813TIP3    H177854   6.424   4.665   1.849 -1.7456  0.0297 -1.6999
18813TIP3    H277855   6.489   4.782   1.779 -0.0013  0.0175 -0.1762
18814TIP3   OH277856   2.837   4.677  14.089  0.7037 -0.0581 -0.7804
18814TIP3    H177857   2.872   4.663  14.001 -0.8056 -1.1385 -1.2615
18814TIP3    H277858   2.826   4.589  14.124 -1.0050  0.2317 -0.4872
18815TIP3   OH277859   5.212   1.521   5.912  0.0936  0.3257  0.4079
18815TIP3    H177860   5.284   1.578   5.939  0.8040 -0.1976 -0.3629
18815TIP3    H277861   5.154   1.579   5.862  1.0392  0.2950 -0.7602
18816TIP3   OH277862   2.567   0.250  15.098 -0.4301  0.2601 -0.0164
18816TIP3    H177863   2.581   0.343  15.116  1.1135 -0.2230  1.5090
18816TIP3    H277864   2.546   0.212  15.183  1.7176 -1.2316 -0.1004
18817TIP3   OH277865   2.422   6.395  11.932  0.5392  0.0592 -0.1378
18817TIP3    H177866   2.343   6.385  11.878 -0.0793 -0.5242  0.8445
18817TIP3    H277867   2.389   6.407  12.021  1.5361  1.5333  0.0579
18818TIP3   OH277868   1.574   5.898   1.499 -0.1005 -0.5481  0.3398
18818TIP3    H177869   1.602   5.943   1.420 -0.4248 -0.7712  0.0940
18818TIP3    H277870   1.548   5.811   1.469 -1.7246 -0.1340  0.4429
18819TIP3   OH277871   6.153   2.422  14.354  0.3880 -0.0808 -0.5012
18819TIP3    H177872   6.075   2.473  14.333  1.4247  1.5171 -0.5862
18819TIP3    H277873   6.118   2.340  14.389 -1.3229  0.5021 -0.7164
18820TIP3   OH277874   0.380   5.211   0.829 -0.1389 -0.6598 -0.0607
18820TIP3    H177875   0.296   5.165   0.836 -0.1694 -0.8817 -1.5762
18820TIP3    H277876   0.422   5.196   0.913 -2.2945  0.8299  1.4075
18821TIP3   OH277877   3.594   2.456   4.022  0.0078  0.0384 -0.0806
18821TIP3    H177878   3.531   2.384   4.027 -0.0360  0.1352  0.9675
18821TIP3    H277879   3.677   2.416   4.050 -0.2508  0.6325  1.6848
18822TIP3   OH277880   3.770   5.766   3.183 -0.0166 -0.6128 -0.7033
18822TIP3    H177881   3.741   5.740   3.096 -0.1288 -2.1002 -0.2364
18822TIP3    H277882   3.844   5.825   3.167 -1.0003  0.3555 -1.8144
18823TIP3   OH277883   0.339   2.076  12.964 -0.0409  0.0068  0.1288
18823TIP3    H177884   0.303   2.051  12.879  1.9369  1.2577 -1.1782
18823TIP3    H277885   0.314   2.168  12.973  0.0213 -0.0383  0.7498
18824TIP3   OH277886   4.981   4.138   3.228 -0.0926 -0.2241  0.3223
18824TIP3    H177887   4.903   4.174   3.185  0.4126  2.0005  1.1147
18824TIP3    H277888   4.983   4.182   3.313  1.9821 -0.2524  0.3313
18825TIP3   OH277889   6.606   0.379   0.590 -0.7537 -0.1182  0.0876
18825TIP3    H177890   6.686   0.427   0.571  0.0658 -0.1754  2.9402
18825TIP3    H277891   6.601   0.313   0.521  1.4911  0.0884 -0.3482
18826TIP3   OH277892   5.142   6.102  14.911  0.4362 -0.5522  0.3389
18826TIP3    H177893   5.065   6.088  14.857 -0.2668  0.2000  1.1186
18826TIP3    H277894   5.201   6.031  14.887 -0.1998 -0.7296 -0.7810
18827TIP3   OH277895   3.029   6.165  15.227 -0.1656  0.0116  0.2598
18827TIP3    H177896   3.112   6.121  15.211 -0.6162 -0.3017 -1.4034
18827TIP3    H277897   3.054   6.255  15.250  0.6553  0.5489 -2.3439
18828TIP3   OH277898   5.060   2.889   6.029  0.3051 -0.3570  0.0456
18828TIP3    H177899   4.994   2.820   6.036 -0.4919  0.3243 -0.4031
18828TIP3    H277900   5.102   2.874   5.945  0.2217 -0.3706  0.0063
18829TIP3   OH277901   4.112   4.963  16.182 -0.2505 -0.2869  0.4838
18829TIP3    H177902   4.042   4.907  16.147  0.5190 -1.4438  0.7242
18829TIP3    H277903   4.077   4.995  16.265  0.0519 -2.0953  1.3553
18830TIP3   OH277904   2.106   0.193   0.708 -0.5343  0.4170  0.0898
18830TIP3    H177905   2.164   0.153   0.643  0.4153  0.0955  1.0770
18830TIP3    H277906   2.089   0.122   0.770  2.6864  1.7762  2.9293
18831TIP3   OH277907   5.113   1.249   0.536 -0.1369 -0.1525  0.0718
18831TIP3    H177908   5.198   1.214   0.509  0.7022 -0.3736  2.7259
18831TIP3    H277909   5.050   1.208   0.477  1.5120 -0.4726 -1.5579
18832TIP3   OH277910   5.418   2.887  16.954  0.6737 -0.1921  0.2350
18832TIP3    H177911   5.422   2.971  16.909 -1.7210  0.4268  1.0562
18832TIP3    H277912   5.451   2.824  16.890 -1.5226  0.7931 -2.0138
18833TIP3   OH277913   0.554   4.845  15.003 -1.0302 -0.8780 -0.6515
18833TIP3    H177914   0.619   4.779  14.981 -0.8242 -0.8524 -0.1487
18833TIP3    H277915   0.601   4.928  14.999 -0.2632 -1.0462  2.3268
18834TIP3   OH277916   5.584   3.394  12.257  0.5776  0.0677 -0.2345
18834TIP3    H177917   5.661   3.355  12.299  0.1366  0.3259  0.8236
18834TIP3    H277918   5.513   3.381  12.319 -0.1111  0.3840 -0.9398
18835TIP3   OH277919   6.473   1.212   5.154  0.3078 -0.0411  0.5586
18835TIP3    H177920   6.535   1.228   5.083 -0.7493 -0.0385 -0.3981
18835TIP3    H277921   6.457   1.298   5.193 -0.6843  0.3176 -0.5798
18836TIP3   OH277922   1.182   3.048  10.702 -0.5365 -0.1446 -0.1335
18836TIP3    H177923   1.094   3.021  10.727 -0.7881 -0.4063 -1.2390
18836TIP3    H277924   1.173   3.140  10.677  0.1683  0.8391  2.8754
18837TIP3   OH277925   1.123   6.473   5.682  0.1641  0.1129  0.8438
18837TIP3    H177926   1.185   6.430   5.741 -1.0271  0.2107  2.2213
18837TIP3    H277927   1.076   6.535   5.738 -1.9178 -0.7336  0.1213
18838TIP3   OH277928   5.705   3.125   2.804 -0.3825  0.5708 -0.0390
18838TIP3    H177929   5.656   3.108   2.884  1.9724  1.0639  1.6252
18838TIP3    H277930   5.701   3.042   2.756 -2.6178  0.5600  0.0914
18839TIP3   OH277931   5.241   5.463   3.269 -0.7879  0.4333  0.5869
18839TIP3    H177932   5.248   5.368   3.277  1.1053  0.5413  0.7055
18839TIP3    H277933   5.228   5.479   3.176  1.4777  0.1183  0.1623
18840TIP3   OH277934   1.716   5.183   2.442  0.2232  0.4366  0.0911
18840TIP3    H177935   1.684   5.093   2.430  3.0311 -0.6106 -0.2014
18840TIP3    H277936   1.722   5.194   2.537  0.6049  0.0064  0.1220
18841TIP3   OH277937   3.821   3.202  12.472 -0.5792  0.5139  0.3256
18841TIP3    H177938   3.848   3.266  12.406 -1.6953  1.3758  0.6722
18841TIP3    H277939   3.840   3.245  12.556 -2.0603  0.7448  0.5664
18842TIP3   OH277940   2.554   4.131   5.229  0.0830  0.4032 -0.1306
18842TIP3    H177941   2.484   4.096   5.175 -1.2229  0.9516  1.1210
18842TIP3    H277942   2.538   4.095   5.316 -0.5400  2.9385  0.9114
18843TIP3   OH277943   0.796   3.637   5.627 -0.0312 -0.0151  0.2976
18843TIP3    H177944   0.797   3.682   5.711 -1.9074  1.4972 -0.4132
18843TIP3    H277945   0.717   3.669   5.583  0.0290 -1.9606 -1.4045
18844TIP3   OH277946   1.892   3.665   2.295 -0.2194  0.3279 -0.5430
18844TIP3    H177947   1.915   3.600   2.361  1.6672  0.0434 -1.4037
18844TIP3    H277948   1.799   3.651   2.279  0.2636 -2.8922 -1.3703
18845TIP3   OH277949   2.821   0.761  14.643  0.2305 -0.3203 -0.5500
18845TIP3    H177950   2.889   0.697  14.665 -1.6005 -2.9373 -1.9644
18845TIP3    H277951   2.854   0.806  14.565  1.7536  0.9221  0.7393
18846TIP3   OH277952   4.128   2.715  13.595 -0.5664  0.5977 -0.3551
18846TIP3    H177953   4.119   2.800  13.553  0.3732  0.2167 -1.3786
18846TIP3    H277954   4.140   2.735  13.688 -2.3447  1.4732 -0.2630
18847TIP3   OH277955   4.425   4.691   2.686  0.4363  0.1658 -0.0225
18847TIP3    H177956   4.477   4.647   2.619  3.0002  2.1665  0.5049
18847TIP3    H277957   4.353   4.732   2.638  1.4985  0.4904 -1.3978
18848TIP3   OH277958   5.334   4.992   4.551  0.2099 -0.0619  0.7292
18848TIP3    H177959   5.327   5.087   4.561 -1.7075 -0.2880  2.0934
18848TIP3    H277960   5.389   4.964   4.624 -2.0160 -0.2598  2.4572
18849TIP3   OH277961   1.001   0.872  12.308 -0.4177 -0.3748 -0.1099
18849TIP3    H177962   0.925   0.849  12.361 -0.5138  0.2689  0.0402
18849TIP3    H277963   1.065   0.904  12.371 -1.1218  1.9579 -0.4930
18850TIP3   OH277964   3.785   4.168  14.982  0.3677 -0.2784  0.0443
18850TIP3    H177965   3.694   4.157  14.955  0.0199  2.4321 -0.2161
18850TIP3    H277966   3.791   4.123  15.066  0.1818 -4.6878 -2.0203
18851TIP3   OH277967   1.559   5.127   3.578  0.4480 -0.2258 -0.4778
18851TIP3    H177968   1.629   5.158   3.520  1.2880 -1.7912 -0.3517
18851TIP3    H277969   1.508   5.067   3.524 -0.0718 -0.0423 -0.2008
18852TIP3   OH277970   4.133   0.154   2.159 -0.1464 -0.6880 -0.0596
18852TIP3    H177971   4.119   0.210   2.235 -0.7515 -0.9356  0.0172
18852TIP3    H277972   4.079   0.077   2.176 -0.7108 -0.5129 -0.9769
18853TIP3   OH277973   0.137   1.434   5.571  0.0147 -0.6411  0.5868
18853TIP3    H177974   0.058   1.439   5.517  0.2579 -0.4335  0.2462
18853TIP3    H277975   0.208   1.425   5.508  0.4378  0.9290  0.7966
18854TIP3   OH277976   5.055   0.116  15.937  0.0588  0.1090  0.3431
18854TIP3    H177977   5.144   0.151  15.934 -0.0336  0.3107 -1.4838
18854TIP3    H277978   5.059   0.042  15.997  0.8443  1.6894  2.3279
18855TIP3   OH277979   6.572   6.149   0.447  0.5727  0.7527  0.0450
18855TIP3    H177980   6.558   6.204   0.370 -0.1419 -2.0496 -1.9996
18855TIP3    H277981   6.628   6.078   0.416 -1.0127 -1.3351  1.6435
18856TIP3   OH277982   4.606   2.896  17.004 -0.5971  0.1261  0.1816
18856TIP3    H177983   4.680   2.899  17.065  1.1714 -0.1237 -1.8257
18856TIP3    H277984   4.604   2.806  16.973 -0.1210  0.6850 -1.6121
18857TIP3   OH277985   3.627   2.087   4.794 -0.2224 -0.2562 -0.1996
18857TIP3    H177986   3.549   2.137   4.770  0.7755  1.7366  0.4893
18857TIP3    H277987   3.635   2.100   4.889  2.4040  1.9425 -0.5952
18858TIP3   OH277988   2.607   5.001  16.486 -0.0212 -0.2017 -0.2816
18858TIP3    H177989   2.584   4.932  16.423 -0.5110 -0.3845  0.0918
18858TIP3    H277990   2.663   4.957  16.550 -0.3718 -0.2726 -0.0168
18859TIP3   OH277991   1.478   5.189  14.631 -0.0719  0.2482  0.2715
18859TIP3    H177992   1.396   5.209  14.677  0.5743 -0.4444  1.8158
18859TIP3    H277993   1.494   5.265  14.576 -2.6485 -0.3313 -1.4774
18860TIP3   OH277994   5.799   3.165  14.641 -0.2200 -0.6238 -0.4008
18860TIP3    H177995   5.862   3.202  14.578  0.0391  0.8342  0.6633
18860TIP3    H277996   5.713   3.189  14.605 -0.0598  1.2089  0.3146
18861TIP3   OH277997   6.532   6.349   2.208  0.3633  0.1831 -0.2933
18861TIP3    H177998   6.613   6.308   2.178 -0.0520 -0.4539 -0.5573
18861TIP3    H277999   6.499   6.396   2.131  0.0164 -0.3063 -0.4460
18862TIP3   OH278000   5.612   0.414  14.398 -0.0554  0.0695 -0.3257
18862TIP3    H178001   5.527   0.385  14.364 -0.7273  0.7583  0.7101
18862TIP3    H278002   5.616   0.377  14.486  1.5838 -1.5369 -1.0090
18863TIP3   OH278003   4.685   1.524  12.728 -0.9943  0.0290 -0.2986
18863TIP3    H178004   4.662   1.433  12.749 -0.3517  0.4482  2.7455
18863TIP3    H278005   4.742   1.517  12.652 -1.7783 -1.9977 -0.7881
18864TIP3   OH278006   4.811   4.385   3.958 -0.1659  0.1799 -0.1438
18864TIP3    H178007   4.797   4.479   3.973  0.2893 -0.0966  2.4009
18864TIP3    H278008   4.724   4.351   3.937 -0.5988  0.9417  0.3783
18865TIP3   OH278009   4.455   5.235   4.844 -0.2560 -0.0386 -0.5001
18865TIP3    H178010   4.502   5.318   4.834 -0.9808  0.5203  0.5536
18865TIP3    H278011   4.504   5.173   4.790  2.0304  0.3572  0.9936
18866TIP3   OH278012   1.093   5.312  16.585 -0.0062 -0.4279 -0.0770
18866TIP3    H178013   1.128   5.299  16.673  1.5816 -0.6705 -0.7135
18866TIP3    H278014   1.159   5.276  16.527 -1.2031 -0.6275 -1.3766
18867TIP3   OH278015   0.037   0.281   4.352 -0.1305  0.0832  0.5091
18867TIP3    H178016  -0.054   0.310   4.366 -0.7106 -1.6534  0.5338
18867TIP3    H278017   0.043   0.265   4.258  0.4492  1.0622  0.3628
18868TIP3   OH278018   4.523   2.254   0.743 -0.9793  0.4386  0.2991
18868TIP3    H178019   4.500   2.189   0.810 -2.1548 -0.1919 -0.6869
18868TIP3    H278020   4.587   2.210   0.687  0.2668  1.0828  1.1478
18869TIP3   OH278021   5.641   2.144   6.663  0.9543 -0.6253 -0.0130
18869TIP3    H178022   5.630   2.221   6.720  2.5348 -0.3983  0.0433
18869TIP3    H278023   5.628   2.069   6.721 -1.9153 -0.4878 -0.3302
18870TIP3   OH278024   4.036   1.506   5.066  0.2176  0.3176 -0.2338
18870TIP3    H178025   4.124   1.537   5.088  0.5956  0.5943 -2.0236
18870TIP3    H278026   3.999   1.478   5.150  2.2922 -0.5588  0.4601
18871TIP3   OH278027   3.026   0.521   5.378 -0.4245  0.2202 -0.5102
18871TIP3    H178028   3.055   0.526   5.469 -1.1256  0.9922 -0.3234
18871TIP3    H278029   2.972   0.441   5.375  0.7219 -0.5796 -0.5918
18872TIP3   OH278030   2.558   1.916  11.228 -0.0463 -0.3915  0.2385
18872TIP3    H178031   2.593   1.837  11.269 -0.4902 -0.3015  0.8103
18872TIP3    H278032   2.480   1.936  11.279 -0.3456  0.0001 -0.3647
18873TIP3   OH278033   2.551   4.784   1.261 -0.0782  0.5277 -0.4947
18873TIP3    H178034   2.559   4.877   1.284  0.6462  0.7396 -1.5189
18873TIP3    H278035   2.522   4.784   1.170 -2.5381 -0.2842  0.2238
18874TIP3   OH278036   5.385   4.487   5.028 -0.2013 -0.2010 -0.0918
18874TIP3    H178037   5.443   4.540   4.973 -0.2521 -1.0422 -1.0125
18874TIP3    H278038   5.345   4.548   5.089 -1.2642  1.0650 -1.9563
18875TIP3   OH278039   0.402   1.816  17.249 -0.2577  0.2779 -0.3497
18875TIP3    H178040   0.322   1.783  17.209 -0.4538 -1.4776  1.3549
18875TIP3    H278041   0.469   1.751  17.230  0.4194  0.9861 -0.4764
18876TIP3   OH278042   4.152   0.260  12.030 -0.4010 -0.5472  0.1230
18876TIP3    H178043   4.147   0.217  11.945  0.2883  1.3969 -0.9732
18876TIP3    H278044   4.084   0.219  12.083 -0.7607 -1.8751 -1.3193
18877TIP3   OH278045   2.593   0.686   1.422  0.3919  0.3530 -0.5189
18877TIP3    H178046   2.578   0.767   1.471  2.7322  1.0767 -0.8741
18877TIP3    H278047   2.564   0.705   1.333 -0.7733  0.1427 -0.2038
18878TIP3   OH278048   4.479   0.491  10.884 -0.3273  0.2111  0.4963
18878TIP3    H178049   4.481   0.402  10.850  0.4988 -0.4932  2.2847
18878TIP3    H278050   4.477   0.547  10.806 -2.1122 -1.3541 -0.6681
18879TIP3   OH278051   2.860   1.300   5.503  0.1436  0.7006  0.1210
18879TIP3    H178052   2.867   1.278   5.596 -0.9898 -1.1607 -0.1866
18879TIP3    H278053   2.928   1.246   5.462  0.1925  1.0148 -0.2091
18880TIP3   OH278054   6.097   2.187   5.399  0.4305  0.1014  0.7934
18880TIP3    H178055   6.037   2.222   5.333  0.9180 -0.5208  0.0105
18880TIP3    H278056   6.154   2.261   5.421  1.9442 -0.3370 -1.4091
18881TIP3   OH278057   4.398   6.655  15.294 -0.2979 -0.1011 -0.2315
18881TIP3    H178058   4.306   6.629  15.294 -0.1973 -0.4685 -0.6448
18881TIP3    H278059   4.432   6.625  15.378 -0.0602 -1.7818 -0.8815
18882TIP3   OH278060   6.671   4.161   4.932  0.0576 -0.0981 -0.0457
18882TIP3    H178061   6.685   4.199   5.019  1.4642  0.3075 -0.4186
18882TIP3    H278062   6.758   4.134   4.904 -0.3993 -0.3120 -1.2945
18883TIP3   OH278063   2.353   0.171  13.653 -0.0640 -0.4446 -0.0812
18883TIP3    H178064   2.349   0.185  13.558  0.1855  2.2043  0.2203
18883TIP3    H278065   2.288   0.232  13.688  0.2158 -1.0152  1.4868
18884TIP3   OH278066   3.651   3.291  16.481 -0.6540 -0.6768  0.3171
18884TIP3    H178067   3.737   3.254  16.463 -0.9692 -1.6184  0.7126
18884TIP3    H278068   3.670   3.371  16.530 -0.0242 -1.6219  1.6842
18885TIP3   OH278069   6.054   5.643  13.604 -0.5734 -0.0219  0.7682
18885TIP3    H178070   6.102   5.707  13.551  1.5002 -0.4098  2.0710
18885TIP3    H278071   5.975   5.689  13.631  1.0392  2.2043  2.0102
18886TIP3   OH278072   3.301   5.101  13.564 -0.2932  0.3383  0.2099
18886TIP3    H178073   3.279   5.156  13.489 -0.5330  0.9270  0.7066
18886TIP3    H278074   3.347   5.026  13.525 -2.1317 -0.3772 -0.7504
18887TIP3   OH278075   5.597   6.450  14.562 -0.0164  0.7377  0.2628
18887TIP3    H178076   5.616   6.471  14.470  1.6871  1.5613  0.7605
18887TIP3    H278077   5.597   6.535  14.606  1.4651  0.2140  1.3827
18888TIP3   OH278078   3.235   1.768  15.611  0.6385 -0.2734 -0.3752
18888TIP3    H178079   3.161   1.817  15.646  2.0816  0.9750  1.0484
18888TIP3    H278080   3.229   1.780  15.517 -0.2600  0.8607 -0.1984
18889TIP3   OH278081   0.659   3.026   0.571 -0.1491  0.0618  0.3965
18889TIP3    H178082   0.743   3.053   0.608 -1.0767  4.7483 -0.1932
18889TIP3    H278083   0.607   2.999   0.647  0.6888  1.0878  1.3802
18890TIP3   OH278084   2.145   0.457  11.031  0.1309 -0.7113 -0.4681
18890TIP3    H178085   2.197   0.535  11.051 -2.5151  1.7191 -2.2485
18890TIP3    H278086   2.144   0.452  10.936 -0.6987 -2.2760 -0.4197
18891TIP3   OH278087   4.470   1.335   4.253  0.6004 -0.3922  0.7975
18891TIP3    H178088   4.521   1.401   4.206  0.5580 -0.3298  0.8379
18891TIP3    H278089   4.519   1.254   4.242 -0.9178 -1.0658 -1.9938
18892TIP3   OH278090   4.788   6.735   6.038  0.4951  0.1798  0.0898
18892TIP3    H178091   4.693   6.738   6.041  0.4138 -1.3604  0.0064
18892TIP3    H278092   4.817   6.774   6.120 -0.1327  2.0876 -0.5529
18893TIP3   OH278093   1.071   6.559   5.121 -0.0962  0.2344 -0.2250
18893TIP3    H178094   1.002   6.513   5.073 -0.3632 -1.3785  1.5831
18893TIP3    H278095   1.043   6.651   5.122 -1.4569 -0.1524 -0.7663
18894TIP3   OH278096   1.518   0.369  12.992  0.2651 -0.1525  0.2430
18894TIP3    H178097   1.552   0.453  13.022  0.0622  0.4058 -1.0652
18894TIP3    H278098   1.597   0.318  12.971  0.4426 -0.7836  2.2311
18895TIP3   OH278099   0.310   6.597  14.848  0.1585 -0.1408  0.4096
18895TIP3    H178100   0.353   6.511  14.852  0.1664 -0.1607  0.0037
18895TIP3    H278101   0.374   6.652  14.803  0.8496  0.5137  2.1163
18896TIP3   OH278102   4.900   3.581  11.572 -0.1997 -0.8886 -0.1057
18896TIP3    H178103   4.814   3.540  11.572 -0.4674 -0.3317 -0.4389
18896TIP3    H278104   4.957   3.516  11.531 -0.6456 -0.8756 -0.7591
18897TIP3   OH278105   3.956   6.421  12.693 -0.4835 -0.1508  0.0291
18897TIP3    H178106   3.984   6.348  12.749  0.2099  0.6718  0.7815
18897TIP3    H278107   3.867   6.440  12.723 -0.6367 -0.6354 -0.1134
18898TIP3   OH278108   1.325   5.685   3.458 -0.0707 -0.2073 -0.4774
18898TIP3    H178109   1.310   5.664   3.550 -0.7308 -0.3668 -0.6185
18898TIP3    H278110   1.321   5.781   3.454 -0.1117 -0.2038 -0.3531
18899TIP3   OH278111   1.001   2.738   3.920 -0.2188  0.4245  0.0019
18899TIP3    H178112   0.932   2.775   3.975 -0.9922 -0.3376 -0.4258
18899TIP3    H278113   0.995   2.643   3.935  0.2608  0.2936 -0.5991
18900TIP3   OH278114   5.694   2.421  12.625  0.5955  0.5106  0.3686
18900TIP3    H178115   5.649   2.483  12.567 -0.5490  1.1555  1.8858
18900TIP3    H278116   5.737   2.360  12.565  0.3234  1.7499 -1.1658
18901TIP3   OH278117   4.816   4.109  13.604 -0.2027  0.4411 -0.1352
18901TIP3    H178118   4.776   4.140  13.523 -1.3896 -0.8010 -0.0601
18901TIP3    H278119   4.758   4.141  13.673 -2.0277 -2.5522 -0.1005
18902TIP3   OH278120   2.084   5.209  14.053 -0.2993  0.0113 -0.1624
18902TIP3    H178121   2.061   5.232  14.143 -0.8048 -0.7855 -0.0709
18902TIP3    H278122   2.137   5.282  14.021 -1.7517  1.2299  0.1210
18903TIP3   OH278123   2.552   5.150  12.927 -0.2587  0.8603  0.0837
18903TIP3    H178124   2.511   5.066  12.906  2.5783 -0.6812  0.1871
18903TIP3    H278125   2.540   5.204  12.849  0.0898 -0.5980 -1.0090
18904TIP3   OH278126   0.720   0.830   3.247 -0.2788 -0.1599 -0.2686
18904TIP3    H178127   0.795   0.794   3.294  0.2807  1.5247  0.2006
18904TIP3    H278128   0.644   0.793   3.292  0.2604 -0.4428  0.4348
18905TIP3   OH278129   1.913   2.474  14.258 -0.2421 -0.2035 -0.6625
18905TIP3    H178130   1.822   2.481  14.287  0.1689 -2.2352  1.4958
18905TIP3    H278131   1.916   2.521  14.175 -2.5191  2.6495  0.6726
18906TIP3   OH278132   4.510   5.719   5.531  0.3476  0.5637 -0.1835
18906TIP3    H178133   4.478   5.630   5.518  1.7646 -0.3495  1.9676
18906TIP3    H278134   4.603   5.715   5.507  0.2349  1.7254 -0.9168
18907TIP3   OH278135   3.943   5.694   3.746 -0.6829  0.6980  0.0211
18907TIP3    H178136   3.945   5.667   3.654  0.4739  0.0502  0.2169
18907TIP3    H278137   4.034   5.713   3.767 -1.0580  1.7981  0.7816
18908TIP3   OH278138   2.274   1.053   5.638 -0.5720 -0.0596 -0.1550
18908TIP3    H178139   2.225   1.063   5.556  0.4687 -2.1639 -1.1296
18908TIP3    H278140   2.271   0.959   5.656  0.7147  0.1332  1.2512
18909TIP3   OH278141   0.319   2.359  12.389 -0.3668 -0.1274  0.2666
18909TIP3    H178142   0.227   2.373  12.414 -1.0057  1.6782 -2.5769
18909TIP3    H278143   0.314   2.326  12.299  1.7695  1.3417 -0.4642
18910TIP3   OH278144   3.043   1.294   2.260  1.0907 -0.6607 -0.2380
18910TIP3    H178145   3.072   1.374   2.218  0.0792  0.5195  1.2228
18910TIP3    H278146   3.120   1.237   2.259  1.5243 -0.1452 -2.2860
18911TIP3   OH278147   1.616   2.205  13.555 -0.1080  0.8228 -0.4366
18911TIP3    H178148   1.668   2.271  13.509 -0.7751  0.7506 -1.3348
18911TIP3    H278149   1.573   2.157  13.484 -0.7001  0.3167  0.2638
18912TIP3   OH278150   5.120   6.292  16.807  0.7602  0.0016 -0.0080
18912TIP3    H178151   5.184   6.270  16.874  1.2350 -1.0725 -0.7665
18912TIP3    H278152   5.044   6.238  16.827  0.2567  0.9219  0.6165
18913TIP3   OH278153   1.289   2.444   3.383  0.0932 -0.3476 -0.0793
18913TIP3    H178154   1.277   2.393   3.303 -1.5884 -0.4136  0.1801
18913TIP3    H278155   1.204   2.483   3.400  0.8502  1.0325  0.7808
18914TIP3   OH278156   5.264   5.905  14.507  0.3711 -0.1217  0.0033
18914TIP3    H178157   5.210   5.834  14.543  1.1823 -0.2643  0.9737
18914TIP3    H278158   5.354   5.880  14.527  0.6775  1.1742  0.3676
18915TIP3   OH278159   3.806   0.338   1.811  0.2169  0.3344 -0.1687
18915TIP3    H178160   3.833   0.251   1.781  0.7839  1.1528 -2.1670
18915TIP3    H278161   3.878   0.367   1.868  0.9670  0.2550 -1.0478
18916TIP3   OH278162   4.160   1.752  12.500 -1.3060  0.4018 -0.3234
18916TIP3    H178163   4.140   1.796  12.582 -0.7252 -0.1260  0.1138
18916TIP3    H278164   4.207   1.817  12.448  0.0961  0.1387  0.5621
18917TIP3   OH278165   2.801   0.795  15.811  0.3467  0.3061  0.5935
18917TIP3    H178166   2.749   0.863  15.854  0.2189  0.9560 -0.5603
18917TIP3    H278167   2.794   0.814  15.717  0.4438 -1.2029  0.2506
18918TIP3   OH278168   2.848   2.884   1.874 -0.1885  0.5410 -0.1602
18918TIP3    H178169   2.834   2.809   1.816  0.8106  0.6972 -0.6275
18918TIP3    H278170   2.824   2.960   1.820  1.0992  0.7128 -0.5092
18919TIP3   OH278171   0.402   1.686  15.429 -0.3187 -0.4351  0.2077
18919TIP3    H178172   0.387   1.749  15.500  0.0640 -1.2706  1.0481
18919TIP3    H278173   0.356   1.724  15.354 -2.3369 -0.4258  1.3674
18920TIP3   OH278174   4.596   0.697  11.063 -0.2153 -0.2299  0.0423
18920TIP3    H178175   4.566   0.772  11.011 -1.2567 -1.2354 -0.8827
18920TIP3    H278176   4.681   0.674  11.026 -0.7446 -0.6560 -0.9513
18921TIP3   OH278177   6.341   5.361   1.427 -0.3169 -0.3671 -0.0623
18921TIP3    H178178   6.249   5.385   1.412  0.1122 -0.0844 -2.8661
18921TIP3    H278179   6.344   5.331   1.517 -3.0259  0.2639  0.3236
18922TIP3   OH278180   6.191   0.021  11.904 -0.9895  0.3091 -0.4069
18922TIP3    H178181   6.232  -0.020  11.980  0.1420  2.6108  0.2957
18922TIP3    H278182   6.262   0.069  11.861 -1.8209 -0.1034 -2.3663
18923TIP3   OH278183   4.045   6.661   3.150  0.3822 -0.0852  0.0422
18923TIP3    H178184   4.012   6.596   3.212 -0.5115 -0.2465 -0.5762
18923TIP3    H278185   3.981   6.732   3.154  1.0422  0.5034  0.2869
18924TIP3   OH278186   2.752   6.301   4.538 -0.2922 -0.8759  0.3691
18924TIP3    H178187   2.723   6.362   4.606 -0.6415 -0.3576 -0.2377
18924TIP3    H278188   2.679   6.240   4.528 -0.7888 -0.1727 -0.4472
18925TIP3   OH278189   6.066   2.598  13.118  0.2117  0.0728  0.0190
18925TIP3    H178190   6.021   2.613  13.200 -1.2180  0.2318 -0.7576
18925TIP3    H278191   6.158   2.585  13.142  0.4257  3.2518  1.3493
18926TIP3   OH278192   4.679   0.700   0.880  0.1319 -0.6172  0.2945
18926TIP3    H178193   4.633   0.617   0.888  1.8790 -2.1759 -3.2001
18926TIP3    H278194   4.772   0.678   0.891  0.6799  0.7114 -1.1111
18927TIP3   OH278195   6.146   3.162   3.193  0.3803  0.7046  0.8694
18927TIP3    H178196   6.054   3.167   3.220  0.8307  1.1334  2.4147
18927TIP3    H278197   6.195   3.186   3.272  1.9209 -2.2120  0.9175
18928TIP3   OH278198   1.169   3.723  12.931 -0.0358 -0.0326 -0.1763
18928TIP3    H178199   1.104   3.742  12.864 -0.7523 -2.2680 -0.1754
18928TIP3    H278200   1.188   3.630  12.921  2.0399  0.2244  0.8335
18929TIP3   OH278201   3.955   3.961  12.689  0.3321 -0.3539 -0.5550
18929TIP3    H178202   3.993   3.900  12.752  0.9234  0.9454  0.4101
18929TIP3    H278203   3.967   3.919  12.604 -0.3368 -2.0875  0.1528
18930TIP3   OH278204   2.054   6.282   6.165 -0.2839 -0.5369 -0.2764
18930TIP3    H178205   2.145   6.307   6.151 -0.8148  2.0536  0.3305
18930TIP3    H278206   2.053   6.239   6.250  0.4056 -0.9188 -0.4522
18931TIP3   OH278207   2.987   6.671   4.720  0.0115 -0.5420  0.1667
18931TIP3    H178208   2.976   6.659   4.814 -2.2498  1.4803  0.2604
18931TIP3    H278209   2.898   6.662   4.684  0.4093  1.2739 -1.4074
18932TIP3   OH278210   4.809   5.262   3.059  0.6269  0.1365 -0.1740
18932TIP3    H178211   4.815   5.176   3.102  0.7737  0.5213  0.5933
18932TIP3    H278212   4.810   5.242   2.965  0.8152 -0.6916 -0.0041
18933TIP3   OH278213   2.777   3.433  13.032  0.8227 -0.0467  0.0302
18933TIP3    H178214   2.847   3.485  12.994 -0.3047  0.6090 -1.2175
18933TIP3    H278215   2.741   3.383  12.959 -0.6555  0.3982  0.4173
18934TIP3   OH278216   0.616   4.246  13.537 -0.3813 -0.0308 -0.3167
18934TIP3    H178217   0.657   4.257  13.623 -2.1722 -1.8247  0.8354
18934TIP3    H278218   0.546   4.183  13.551 -1.3466  0.3353 -2.9235
18935TIP3   OH278219   2.201   0.012   1.441  0.4665  0.5685 -0.0431
18935TIP3    H178220   2.164   0.039   1.357 -2.7645 -2.3597  0.2231
18935TIP3    H278221   2.133   0.035   1.505 -0.6443 -3.8585  0.6731
18936TIP3   OH278222   3.423   5.045   2.786  0.4009 -0.2864  0.1096
18936TIP3    H178223   3.409   4.968   2.840 -1.0308 -0.4377 -0.4324
18936TIP3    H278224   3.355   5.041   2.719  0.0934  1.5903  0.2363
18937TIP3   OH278225   0.726   4.829  16.681 -0.3408  0.0471  0.0012
18937TIP3    H178226   0.812   4.851  16.716 -0.2464 -1.0350  0.4737
18937TIP3    H278227   0.664   4.869  16.742 -0.2011  1.2527 -0.6095
18938TIP3   OH278228   1.445   3.503   4.616  0.2620  0.0588 -0.0873
18938TIP3    H178229   1.535   3.511   4.645 -0.0508  1.3597  0.6426
18938TIP3    H278230   1.435   3.412   4.591  2.6302  0.4755 -3.1027
18939TIP3   OH278231   0.265   1.761   5.329  0.3877 -0.3605 -0.0444
18939TIP3    H178232   0.347   1.711   5.328  0.4813 -0.2370  0.9971
18939TIP3    H278233   0.227   1.744   5.415  0.0098  0.7152  0.0152
18940TIP3   OH278234   5.509   1.904   4.477 -0.6135  0.1197 -0.0793
18940TIP3    H178235   5.471   1.902   4.565  2.4214  2.0536  1.4313
18940TIP3    H278236   5.438   1.934   4.421 -2.4465 -0.5007  1.7752
18941TIP3   OH278237   3.949   0.809   2.336  0.7780  0.0216 -0.6008
18941TIP3    H178238   4.005   0.864   2.281  0.0523  1.3432 -0.0730
18941TIP3    H278239   3.865   0.807   2.290  0.2107  1.0100  0.3438
18942TIP3   OH278240   4.537   4.990   1.808 -0.3525  0.2977 -0.3869
18942TIP3    H178241   4.465   4.939   1.846 -0.1476  0.2729 -0.0278
18942TIP3    H278242   4.496   5.071   1.778 -0.3650  0.7317  0.7485
18943TIP3   OH278243   0.066   0.829  14.413 -0.3555  0.3406  0.3606
18943TIP3    H178244   0.100   0.743  14.438 -0.6690 -0.0156 -0.4038
18943TIP3    H278245  -0.026   0.813  14.390 -0.3588  0.8301 -0.0023
18944TIP3   OH278246   6.020   0.098   4.039  0.1887  0.6213 -0.6414
18944TIP3    H178247   5.995   0.089   3.947  1.0305  0.6993 -0.8846
18944TIP3    H278248   5.970   0.030   4.084  2.2250 -1.6605 -1.6196
18945TIP3   OH278249   4.144   5.753   0.576  0.0421 -0.0074  0.4573
18945TIP3    H178250   4.207   5.687   0.606 -2.2340 -2.9786 -0.8900
18945TIP3    H278251   4.171   5.773   0.487 -0.4230 -0.6714  0.1620
18946TIP3   OH278252   0.258   2.244  14.080 -0.1554 -0.8309  0.2575
18946TIP3    H178253   0.264   2.264  14.174  0.1749  0.4056 -0.0121
18946TIP3    H278254   0.238   2.329  14.039 -1.1900 -1.5140 -0.7073
18947TIP3   OH278255   4.991   5.205   4.520 -0.2917 -0.1112 -0.4626
18947TIP3    H178256   4.929   5.132   4.517 -0.7573  0.3041 -1.0038
18947TIP3    H278257   4.937   5.284   4.517 -0.0524  0.3837  3.4183
18948TIP3   OH278258   4.953   3.923   3.782 -0.3105  0.3948 -0.1750
18948TIP3    H178259   4.955   4.016   3.761  0.6229  0.2978 -0.5343
18948TIP3    H278260   5.041   3.891   3.762 -1.1334 -0.9687 -1.8724
18949TIP3   OH278261   1.582   2.777   2.623  0.4392  0.3982 -0.0044
18949TIP3    H178262   1.512   2.754   2.683  0.0011  0.9381 -0.2963
18949TIP3    H278263   1.600   2.696   2.575  0.4960  0.0786  0.5426
18950TIP3   OH278264   3.692   6.540   1.479 -0.2290  0.4227  0.2661
18950TIP3    H178265   3.651   6.469   1.430 -0.1371 -0.4623  1.4045
18950TIP3    H278266   3.622   6.575   1.533  0.5895 -1.9159  3.1564
18951TIP3   OH278267   6.341   2.387   1.584 -0.4577 -0.6394  0.1737
18951TIP3    H178268   6.395   2.429   1.651  0.0179 -2.2457  0.8626
18951TIP3    H278269   6.388   2.305   1.564 -2.5374 -2.0448  0.7274
18952TIP3   OH278270   5.330   6.478   1.793  0.0240 -0.1451 -0.5654
18952TIP3    H178271   5.267   6.532   1.746  0.3085 -0.3506 -1.1935
18952TIP3    H278272   5.367   6.420   1.726  1.4718  0.5203 -0.3848
18953TIP3   OH278273   3.954   1.190  12.844  1.2003 -0.4784 -0.0498
18953TIP3    H178274   3.958   1.221  12.934  1.1722  0.5752 -0.3882
18953TIP3    H278275   4.020   1.122  12.838  0.5469 -1.2218  1.0012
18954TIP3   OH278276   5.510   6.568  12.045 -0.5616  0.3672 -0.4353
18954TIP3    H178277   5.535   6.483  12.082 -1.5098  0.2701  0.0063
18954TIP3    H278278   5.566   6.578  11.968 -0.7837 -0.8879 -0.7743
18955TIP3   OH278279   5.236   0.066  15.135 -0.0468  0.8145  0.2972
18955TIP3    H178280   5.242   0.161  15.126 -2.3828  1.1781  1.8696
18955TIP3    H278281   5.159   0.041  15.084  0.5199 -0.2598 -0.0736
18956TIP3   OH278282   5.823   3.977  15.732  0.1593  0.0474  0.5073
18956TIP3    H178283   5.902   4.018  15.698 -1.6673  2.4345 -1.2593
18956TIP3    H278284   5.847   3.885  15.746  2.2156 -0.2721 -3.6749
18957TIP3   OH278285   1.041   1.820   5.052  0.1188 -0.6599 -0.0293
18957TIP3    H178286   1.123   1.771   5.043  0.9756  0.2285  2.0413
18957TIP3    H278287   0.999   1.783   5.130 -0.0787  0.6746  0.5256
18958TIP3   OH278288   2.353   1.019   0.906 -0.3808  0.2561 -0.4956
18958TIP3    H178289   2.352   0.928   0.876  0.8658  0.3430 -0.8436
18958TIP3    H278290   2.397   1.067   0.837  1.1753  0.7113  0.7429
18959TIP3   OH278291   0.460   2.343   5.176 -0.3708  0.1417 -0.0268
18959TIP3    H178292   0.537   2.302   5.138  0.7596  1.2233  1.0390
18959TIP3    H278293   0.439   2.416   5.118 -0.8589 -0.3791 -0.5272
18960TIP3   OH278294   3.556   1.482  15.950  0.1655  0.1361  0.1480
18960TIP3    H178295   3.497   1.433  15.893 -0.1642 -0.6032  1.1006
18960TIP3    H278296   3.499   1.520  16.017  0.5325  1.0992 -0.0668
18961TIP3   OH278297   6.030   1.635   5.157  0.1234  0.3318  0.4114
18961TIP3    H178298   6.064   1.691   5.227  0.6962 -0.1675  0.5457
18961TIP3    H278299   5.958   1.685   5.119 -0.7240  0.2581  1.8808
18962TIP3   OH278300   5.814   5.119   2.225 -0.5755  0.6388  0.3787
18962TIP3    H178301   5.743   5.135   2.287  0.2859  0.4182  1.4475
18962TIP3    H278302   5.893   5.153   2.268 -0.2490  2.4222 -1.4788
18963TIP3   OH278303   3.059   2.296  17.410 -0.0081 -0.3325  0.1158
18963TIP3    H178304   3.134   2.239  17.430  1.0544  1.2005  0.6856
18963TIP3    H278305   3.073   2.323  17.320  0.0001 -0.2475  0.1423
18964TIP3   OH278306   2.403   2.315   2.505 -0.5974  0.1393 -0.0841
18964TIP3    H178307   2.444   2.254   2.444 -0.5211 -0.6238  0.7284
18964TIP3    H278308   2.450   2.303   2.587 -1.1988  0.6242  0.3377
18965TIP3   OH278309   3.764   6.141   0.445  0.0217 -0.0424  0.6979
18965TIP3    H178310   3.675   6.105   0.447 -0.2484  0.5421 -0.0553
18965TIP3    H278311   3.791   6.142   0.536 -0.2720 -1.3642  0.8185
18966TIP3   OH278312   5.552   4.701   2.637 -0.0445  0.0178  0.6902
18966TIP3    H178313   5.539   4.732   2.727  3.5220 -0.9571  1.7183
18966TIP3    H278314   5.634   4.741   2.609 -0.3503 -0.8083 -1.6352
18967TIP3   OH278315   3.780   0.114   5.467 -0.2316 -0.2594  0.3863
18967TIP3    H178316   3.763   0.148   5.555  1.2967  0.3267  0.4896
18967TIP3    H278317   3.694   0.115   5.424 -0.7263  1.0263  1.3279
18968TIP3   OH278318   1.786   4.823   6.685 -0.1391 -0.2554  0.2891
18968TIP3    H178319   1.743   4.822   6.599 -0.2230  0.9408  0.2959
18968TIP3    H278320   1.756   4.743   6.728 -2.6323  0.6316  0.3879
18969TIP3   OH278321   0.304   0.749  13.393  0.9358 -0.1187 -0.6819
18969TIP3    H178322   0.314   0.818  13.458  1.3117  0.0927 -0.9544
18969TIP3    H278323   0.310   0.667  13.442 -0.5400  0.0399 -0.2131
18970TIP3   OH278324   0.204   0.059   4.620  0.2466  0.1803 -0.5505
18970TIP3    H178325   0.111   0.080   4.619 -0.0295 -0.9337 -0.3494
18970TIP3    H278326   0.234   0.076   4.531  0.3874  2.6383 -0.1106
18971TIP3   OH278327   2.666   4.536   1.006 -0.0119 -0.0218  0.8933
18971TIP3    H178328   2.668   4.625   1.042  1.0824  1.2415 -1.9644
18971TIP3    H278329   2.746   4.530   0.953 -1.1849 -1.8584 -0.8220
18972TIP3   OH278330   5.346   2.348  11.524  0.0604  0.1369  0.4785
18972TIP3    H178331   5.348   2.257  11.493 -0.5983  1.0212 -2.4774
18972TIP3    H278332   5.359   2.400  11.445 -1.4230  2.6620  1.7816
18973TIP3   OH278333   3.068   3.292  16.580 -0.3196 -0.7975 -0.1535
18973TIP3    H178334   2.998   3.336  16.531  1.1603  1.7051 -0.2002
18973TIP3    H278335   3.054   3.319  16.671  0.4249 -0.4375 -0.1366
18974TIP3   OH278336   3.475   3.975  12.102 -0.7607  0.2790  0.1527
18974TIP3    H178337   3.384   3.947  12.087 -0.9445  0.0701  1.5777
18974TIP3    H278338   3.477   4.003  12.193  0.4225  1.0819 -0.1001
18975TIP3   OH278339   2.031   0.053  15.013 -0.1123  0.2603  0.2114
18975TIP3    H178340   2.026   0.143  14.981 -0.7234 -0.0820 -0.7316
18975TIP3    H278341   1.947   0.014  14.988  0.2592 -0.6553  0.3289
18976TIP3   OH278342   6.166   3.972   0.332 -0.2532  0.1549 -0.1995
18976TIP3    H178343   6.224   3.942   0.402  0.1535  0.8916 -0.2058
18976TIP3    H278344   6.161   3.899   0.271  0.7133  0.0888 -0.2153
18977TIP3   OH278345   2.787   2.350   6.398 -0.5236  0.0840 -0.4163
18977TIP3    H178346   2.805   2.264   6.436 -1.0165  0.5178  0.8954
18977TIP3    H278347   2.783   2.335   6.304 -0.6706 -1.3475 -0.2083
18978TIP3   OH278348   6.300   2.445  13.613  0.2136  0.5047 -0.0767
18978TIP3    H178349   6.372   2.505  13.593 -0.0662  1.3016  1.2376
18978TIP3    H278350   6.248   2.490  13.679 -1.5203 -0.0623 -0.9970
18979TIP3   OH278351   2.015   1.543   6.412 -0.5470 -0.1404  0.5576
18979TIP3    H178352   2.041   1.635   6.414 -0.5520 -0.0751 -1.1671
18979TIP3    H278353   1.967   1.533   6.330  1.7348 -2.2606 -0.6525
18980TIP3   OH278354   1.334   0.988  16.189 -0.8411  0.0068 -0.0053
18980TIP3    H178355   1.284   0.908  16.177 -1.2902  0.5683 -2.3578
18980TIP3    H278356   1.409   0.980  16.131  0.1941  0.4862  1.2014
18981TIP3   OH278357   5.547   0.452   1.707  0.4963 -0.4353 -0.0010
18981TIP3    H178358   5.625   0.456   1.652  0.4018 -0.3607 -0.1301
18981TIP3    H278359   5.581   0.457   1.797  0.5285  1.9929 -0.0759
18982TIP3   OH278360   3.766   5.588  16.449  0.0591  0.1661  0.2255
18982TIP3    H178361   3.708   5.645  16.399 -0.1900 -0.4550 -0.1982
18982TIP3    H278362   3.854   5.621  16.429 -0.1606  1.9313  1.8783
18983TIP3   OH278363   5.994   1.200   2.905 -0.5517 -0.5435 -0.2388
18983TIP3    H178364   5.929   1.268   2.887 -1.3613 -0.6414  2.0483
18983TIP3    H278365   5.980   1.135   2.836 -2.4260 -0.2195 -0.2224
18984TIP3   OH278366   2.633   0.857  16.359  0.8113  0.1462  0.1837
18984TIP3    H178367   2.604   0.769  16.336 -2.5595  1.0464  0.5400
18984TIP3    H278368   2.714   0.869  16.309  0.7405 -2.6905 -0.7813
18985TIP3   OH278369   6.073   2.335  16.201 -0.2027 -0.0661  0.2565
18985TIP3    H178370   6.097   2.419  16.239 -0.4484 -0.0382  0.3539
18985TIP3    H278371   5.985   2.318  16.235 -0.1805 -0.3301  0.1845
18986TIP3   OH278372   1.133   1.592  12.900  0.5146  0.3184  0.2434
18986TIP3    H178373   1.142   1.685  12.917  1.4461 -0.1915  3.0889
18986TIP3    H278374   1.222   1.559  12.891  0.2252 -0.4264 -0.0657
18987TIP3   OH278375   2.158   4.960   1.500  0.0408  0.1724  0.2506
18987TIP3    H178376   2.139   5.048   1.468 -1.3958  0.3715  1.5473
18987TIP3    H278377   2.145   4.903   1.425 -1.5393  0.8055  0.0095
18988TIP3   OH278378   4.254   6.177  17.373  0.4359  0.2893  0.0732
18988TIP3    H178379   4.320   6.125  17.419  1.3067  0.2919 -1.1302
18988TIP3    H278380   4.228   6.123  17.298 -1.8172 -0.2219  1.1414
18989TIP3   OH278381   1.108   3.308   0.764 -0.3258  0.2639  0.0695
18989TIP3    H178382   1.188   3.313   0.817 -1.1354 -3.3901  1.9835
18989TIP3    H278383   1.040   3.345   0.820 -0.5199  0.3181 -0.2000
18990TIP3   OH278384   2.777   5.386  16.206 -0.6877 -0.1151 -0.3865
18990TIP3    H178385   2.836   5.335  16.150 -0.2708  0.4167 -0.4440
18990TIP3    H278386   2.747   5.457  16.150 -0.9441 -0.0694 -0.1897
18991TIP3   OH278387   2.480   4.174  16.554  0.0266  0.4449 -0.1396
18991TIP3    H178388   2.440   4.114  16.617 -1.1441  0.6501 -0.6678
18991TIP3    H278389   2.557   4.127  16.522  0.2113  0.0243  0.8680
18992TIP3   OH278390   6.548   0.800   5.981  0.2931 -0.2030 -0.2666
18992TIP3    H178391   6.563   0.830   6.071  2.6517  0.2119 -0.7355
18992TIP3    H278392   6.571   0.707   5.983  1.0625 -0.0252 -0.5773
18993TIP3   OH278393   1.335   4.773  17.431  0.5188 -0.1960 -0.2592
18993TIP3    H178394   1.291   4.807  17.509  0.9549  0.9934 -0.5088
18993TIP3    H278395   1.420   4.817  17.430  1.2311 -1.5222 -0.4615
18994TIP3   OH278396   4.990   0.049   2.805 -0.2289  0.0911  0.3691
18994TIP3    H178397   4.948   0.037   2.890  1.9536  1.6932  1.7839
18994TIP3    H278398   5.082   0.066   2.826  0.5741 -0.3458 -2.3866
18995TIP3   OH278399   5.749   1.974   0.136  0.0864  0.2537 -0.0516
18995TIP3    H178400   5.728   2.062   0.169 -1.8960 -0.2710  0.2169
18995TIP3    H278401   5.726   1.916   0.208 -0.1736 -0.6056 -0.8223
18996TIP3   OH278402   4.725   3.408  17.083  0.8501  0.1070 -0.1462
18996TIP3    H178403   4.714   3.498  17.050 -0.6637 -0.0241 -0.0543
18996TIP3    H278404   4.646   3.391  17.134  2.2418 -0.4027  1.9717
18997TIP3   OH278405   6.562   4.365   1.505  0.2560  0.3312 -0.3714
18997TIP3    H178406   6.499   4.292   1.509 -0.3262  0.8795  1.0585
18997TIP3    H278407   6.508   4.443   1.509  1.0056  0.8181  0.5530
18998TIP3   OH278408   5.551   5.178   3.454  0.5859 -0.0112  0.3059
18998TIP3    H178409   5.601   5.098   3.439 -1.1649 -0.9022 -1.1628
18998TIP3    H278410   5.553   5.224   3.370  0.9669  1.1601  0.9279
18999TIP3   OH278411   1.535   6.548   0.296 -0.3611  0.2707  0.6450
18999TIP3    H178412   1.616   6.597   0.281  0.0498 -0.2412  1.1640
18999TIP3    H278413   1.551   6.462   0.258 -1.3340  0.7075 -0.8949
19000TIP3   OH278414   1.817   0.517  15.499  0.4574 -0.2785  0.2176
19000TIP3    H178415   1.907   0.530  15.527  0.4322 -2.3720  1.4664
19000TIP3    H278416   1.817   0.432  15.455 -1.0955 -0.8978  1.3070
19001TIP3   OH278417   2.169   3.668   2.339  0.3285  0.0388 -0.0635
19001TIP3    H178418   2.077   3.687   2.360  0.9315  1.6687  1.2964
19001TIP3    H278419   2.187   3.586   2.385 -0.0927  0.3824  0.7298
19002TIP3   OH278420   4.264   1.017  14.571 -0.1555  0.4025 -0.1586
19002TIP3    H178421   4.274   1.112  14.583  2.8106  0.2670 -0.8479
19002TIP3    H278422   4.252   1.006  14.477  0.8922  0.0447 -0.2618
19003TIP3   OH278423   3.000   1.372  14.873  0.5894 -0.0480 -0.6124
19003TIP3    H178424   3.025   1.347  14.962 -1.6657 -0.0523  0.0707
19003TIP3    H278425   2.938   1.305  14.845  0.3623  0.6042 -1.7299
19004TIP3   OH278426   2.472   2.498   2.019  0.1085 -0.0982 -0.2180
19004TIP3    H178427   2.549   2.469   2.067  1.8005  1.6125 -1.7515
19004TIP3    H278428   2.398   2.468   2.073  1.8205 -0.8202  1.8822
19005TIP3   OH278429   5.278   6.447  10.858 -0.7127  0.4478 -0.2181
19005TIP3    H178430   5.214   6.440  10.929 -1.0043  1.7899 -0.3159
19005TIP3    H278431   5.238   6.401  10.785 -0.0202 -1.7562  0.6911
19006TIP3   OH278432   4.384   1.114   5.560 -0.2482  0.7888 -0.1602
19006TIP3    H178433   4.363   1.038   5.506 -2.1875  0.7877  0.5080
19006TIP3    H278434   4.360   1.189   5.505 -0.3499  0.8439 -0.0410
19007TIP3   OH278435   4.715   3.641   1.871  0.3676  0.4766 -0.0064
19007TIP3    H178436   4.642   3.666   1.813  0.2183  0.9996  0.3979
19007TIP3    H278437   4.705   3.547   1.883  0.2742  0.3969 -0.6571
19008TIP3   OH278438   3.953   4.392  15.011  0.9065 -0.3518  0.2458
19008TIP3    H178439   3.907   4.469  14.978  1.9417 -1.2762 -3.8296
19008TIP3    H278440   3.903   4.318  14.979  2.0177 -1.3826  0.8147
19009TIP3   OH278441   3.604   2.806   4.893 -0.3642  0.2270  0.0151
19009TIP3    H178442   3.666   2.854   4.838 -0.4280  0.2028 -0.0783
19009TIP3    H278443   3.619   2.840   4.981  2.1089 -2.0740  0.6240
19010TIP3   OH278444   4.776   5.019   4.494  0.2276 -0.1593  0.0197
19010TIP3    H178445   4.732   5.070   4.562  0.9176  1.9285 -1.0229
19010TIP3    H278446   4.708   5.003   4.429  0.3937  0.8655 -0.4120
19011TIP3   OH278447   1.355   0.818  13.125 -0.0909 -0.0956 -0.2172
19011TIP3    H178448   1.425   0.791  13.065 -0.0622  0.3647 -0.4013
19011TIP3    H278449   1.277   0.775  13.092 -0.2479  0.8275 -1.1190
19012TIP3   OH278450   2.370   1.337   3.719  0.3021  0.2442  0.6261
19012TIP3    H178451   2.337   1.251   3.743  2.1174 -0.0197  2.3821
19012TIP3    H278452   2.464   1.332   3.733  0.6778  2.0188 -0.8734
19013TIP3   OH278453   1.982   6.345  16.509 -0.6600  0.0277 -0.5361
19013TIP3    H178454   2.069   6.336  16.470  0.4540  0.9358  1.5605
19013TIP3    H278455   1.990   6.305  16.596 -2.6248 -0.6776 -0.6183
19014TIP3   OH278456   1.650   2.544   2.415 -0.5516  0.5377  0.2328
19014TIP3    H178457   1.594   2.488   2.363  0.2765 -0.2637  0.1761
19014TIP3    H278458   1.699   2.596   2.351  0.9865 -0.9497  0.1223
19015TIP3   OH278459   4.483   6.402  12.665 -0.2683  0.6312  0.3689
19015TIP3    H178460   4.479   6.425  12.758 -1.5481  0.5561  0.3476
19015TIP3    H278461   4.499   6.307  12.665  1.7372  0.9132  0.4688
19016TIP3   OH278462   6.680   1.391  13.542  0.1150  0.5033 -0.1912
19016TIP3    H178463   6.716   1.349  13.620  0.0428  1.3509  0.3092
19016TIP3    H278464   6.753   1.440  13.505 -0.2647  1.4220  0.2663
19017TIP3   OH278465   5.950   1.917  17.371  0.4302  0.1480  0.0585
19017TIP3    H178466   6.019   1.969  17.328 -0.8391  1.0924 -0.9350
19017TIP3    H278467   5.927   1.969  17.448 -0.0678  0.5259 -0.3338
19018TIP3   OH278468   2.452   0.722  12.707 -0.4610  0.1675  0.1567
19018TIP3    H178469   2.482   0.812  12.712 -0.8306  0.2440  1.2093
19018TIP3    H278470   2.366   0.723  12.748  0.4007 -1.0243  2.1363
19019TIP3   OH278471   3.114   4.904  10.857 -0.0152  0.2987  0.4176
19019TIP3    H178472   3.057   4.828  10.849 -0.0808  0.2224  1.4593
19019TIP3    H278473   3.185   4.888  10.795  1.4909 -1.9852  2.5570
19020TIP3   OH278474   0.641   2.265  11.637 -0.1746 -0.0244  0.1016
19020TIP3    H178475   0.602   2.336  11.586 -1.0712 -0.2430  0.4780
19020TIP3    H278476   0.576   2.195  11.635  0.1770 -0.3756  0.7850
19021TIP3   OH278477   5.062   2.845  17.066  0.2162 -0.1802 -0.7348
19021TIP3    H178478   5.096   2.779  17.005 -0.2074  0.5605 -1.8063
19021TIP3    H278479   4.968   2.828  17.071  0.5053 -1.5223  1.3568
19022TIP3   OH278480   0.739   2.932   4.536  0.1799  0.1809 -0.0096
19022TIP3    H178481   0.777   2.876   4.604  1.6268 -0.3498 -1.2128
19022TIP3    H278482   0.687   2.873   4.482  0.7146  0.2167 -0.5672
19023TIP3   OH278483   2.159   0.888  14.789 -0.3519  1.1952  0.5115
19023TIP3    H178484   2.121   0.942  14.721  1.6515 -0.3718 -2.0325
19023TIP3    H278485   2.112   0.805  14.784  1.1415  0.3482 -0.5064
19024TIP3   OH278486   5.971   0.896  15.378 -0.0576 -0.7585  0.5830
19024TIP3    H178487   6.034   0.908  15.450 -0.3789 -2.3037  1.1624
19024TIP3    H278488   6.025   0.874  15.302  0.1942 -0.6362  0.7244
19025TIP3   OH278489   3.019   6.468  13.282  0.5549  0.0382 -0.0287
19025TIP3    H178490   3.112   6.463  13.302  0.3952  1.5919  1.3744
19025TIP3    H278491   2.984   6.528  13.349 -1.5649 -1.0628 -0.0814
19026TIP3   OH278492   1.439   5.033  10.885 -0.2558 -0.4114  0.3573
19026TIP3    H178493   1.367   5.094  10.871  0.7554  0.8004  0.2705
19026TIP3    H278494   1.451   5.031  10.980  0.1094  0.0076  0.3215
19027TIP3   OH278495   4.808   1.940  10.972 -0.0139 -0.5101 -0.7626
19027TIP3    H178496   4.867   1.958  11.045 -1.5681 -0.8339  0.6385
19027TIP3    H278497   4.722   1.933  11.013 -0.9395 -0.6653 -2.6554
19028TIP3   OH278498   5.474   1.111  11.787 -0.1656  0.3558  0.6015
19028TIP3    H178499   5.526   1.051  11.733 -0.8429 -0.1108  0.4599
19028TIP3    H278500   5.485   1.196  11.745 -0.9467 -0.0613 -0.4681
19029TIP3   OH278501   5.446   5.444  11.807  0.5681  0.0235  0.0193
19029TIP3    H178502   5.403   5.364  11.837 -0.1879  0.3829 -0.0963
19029TIP3    H278503   5.474   5.425  11.718 -2.7149  1.0184 -1.3390
19030TIP3   OH278504   4.689   3.539  12.394 -0.3552  0.1144 -0.0579
19030TIP3    H178505   4.783   3.557  12.390 -0.2926  0.2240  1.2935
19030TIP3    H278506   4.680   3.448  12.366  0.0164  0.4470 -1.2844
19031TIP3   OH278507   3.088   2.366   1.233  0.3893  0.3539  0.9926
19031TIP3    H178508   3.123   2.334   1.150 -2.9031  1.6066 -1.1063
19031TIP3    H278509   3.032   2.295   1.265 -0.6573  0.9383  0.5226
19032TIP3   OH278510   1.570   3.957  15.388 -0.5843  0.4461 -0.1242
19032TIP3    H178511   1.579   3.866  15.360  0.9670  1.3685 -3.0850
19032TIP3    H278512   1.497   3.991  15.337  0.1207  1.3338 -0.5841
19033TIP3   OH278513   3.050   1.566  10.939  0.3625  0.1770 -0.1052
19033TIP3    H178514   3.109   1.529  10.874 -3.1692 -1.2548 -2.8301
19033TIP3    H278515   3.037   1.656  10.910  2.4742  1.1468  1.6368
19034TIP3   OH278516   6.465   6.327  11.671  0.5313  0.4731  0.1108
19034TIP3    H178517   6.513   6.409  11.664  1.5883 -0.1459 -0.2480
19034TIP3    H278518   6.434   6.324  11.761  2.5385  0.1897  0.8374
19035TIP3   OH278519   5.627   2.284   5.607 -0.1911 -0.0703  0.7960
19035TIP3    H178520   5.571   2.209   5.590 -0.1979 -0.0315  0.6473
19035TIP3    H278521   5.579   2.336   5.671  0.2469 -0.6849  1.6545
19036TIP3   OH278522   1.793   1.733   5.694 -0.1031  0.2850 -0.1831
19036TIP3    H178523   1.742   1.796   5.643  0.0009  0.5455  0.0322
19036TIP3    H278524   1.883   1.763   5.686 -0.1505  0.6758  0.6405
19037TIP3   OH278525   2.940   1.061  16.852 -0.6469 -0.7941 -0.2211
19037TIP3    H178526   2.847   1.080  16.838 -0.7191  0.8412  1.8641
19037TIP3    H278527   2.986   1.119  16.791 -1.0112  0.2957  0.5017
19038TIP3   OH278528   4.108   6.011   0.209 -0.2150  1.0334  0.1440
19038TIP3    H178529   4.062   6.086   0.171  0.2758  0.8784 -0.7804
19038TIP3    H278530   4.156   5.973   0.136  0.1205  0.2459  0.7617
19039TIP3   OH278531   1.615   5.492  12.804  0.2271 -0.4164  0.1232
19039TIP3    H178532   1.674   5.567  12.800  0.4856 -0.6754 -2.2972
19039TIP3    H278533   1.671   5.416  12.788 -0.7590 -0.5958 -3.2628
19040TIP3   OH278534   4.473   5.878  15.204 -0.2598 -0.1617  0.3010
19040TIP3    H178535   4.468   5.939  15.131 -0.6496 -1.4787 -0.8148
19040TIP3    H278536   4.493   5.933  15.280  0.4153  1.2168 -0.8230
19041TIP3   OH278537   3.346   1.897  13.833  0.2793 -0.4319 -0.2416
19041TIP3    H178538   3.291   1.841  13.886  0.6316  0.8255  1.5515
19041TIP3    H278539   3.431   1.853  13.830  0.0962 -0.7824 -0.2287
19042TIP3   OH278540   5.445   6.291   3.374 -0.5335 -0.0524  0.5458
19042TIP3    H178541   5.415   6.382   3.369 -0.2931  0.0022  0.0138
19042TIP3    H278542   5.481   6.273   3.287 -0.8476 -0.7504  0.5548
19043TIP3   OH278543   0.036   3.480  13.815 -0.0090  0.5948 -0.2512
19043TIP3    H178544   0.125   3.475  13.849 -0.1568 -1.3540 -0.0137
19043TIP3    H278545   0.004   3.566  13.842  0.9696  0.3613  1.8440
19044TIP3   OH278546   0.409   0.492   2.691  0.2644 -0.2066  0.3328
19044TIP3    H178547   0.470   0.488   2.765  0.6546 -0.4539  0.0005
19044TIP3    H278548   0.459   0.536   2.622  0.2746 -0.9415 -0.1385
19045TIP3   OH278549   3.577   1.558  15.547 -0.1387 -0.3807  0.3823
19045TIP3    H178550   3.668   1.534  15.560 -0.3635 -0.7647  1.3287
19045TIP3    H278551   3.571   1.648  15.579  0.3409  0.4296 -1.6320
19046TIP3   OH278552   2.370   0.256   5.905  0.0142  0.3749 -0.1685
19046TIP3    H178553   2.431   0.189   5.934  0.3213  1.1146  0.9679
19046TIP3    H278554   2.284   0.221   5.926  0.2298  1.0340  2.1044
19047TIP3   OH278555   0.745   0.594   4.301 -0.5037  0.2253 -0.3414
19047TIP3    H178556   0.711   0.680   4.326 -0.1387 -0.2415  2.0135
19047TIP3    H278557   0.702   0.533   4.362  1.6386 -0.8314  0.2143
19048TIP3   OH278558   1.777   5.193  17.194  0.1273 -0.3892 -0.9331
19048TIP3    H178559   1.834   5.154  17.260 -0.9233 -0.6276 -0.1527
19048TIP3    H278560   1.721   5.122  17.165 -0.1135 -0.0415 -1.3267
19049TIP3   OH278561   1.697   0.369  13.275  0.0688 -0.0368 -0.4126
19049TIP3    H178562   1.688   0.301  13.208 -0.4547 -0.3990  0.0164
19049TIP3    H278563   1.636   0.343  13.344  0.1257  0.6830 -0.0830
19050TIP3   OH278564   3.211   4.867   6.635 -0.3747  0.4913 -0.1523
19050TIP3    H178565   3.190   4.943   6.690  0.3321  0.7252 -0.1886
19050TIP3    H278566   3.300   4.884   6.604 -1.1328  0.9016 -2.2809
19051TIP3   OH278567   5.780   6.462  16.575 -0.7579  0.6941  0.3631
19051TIP3    H178568   5.826   6.380  16.560  0.3169  0.9870  1.8782
19051TIP3    H278569   5.761   6.463  16.669 -0.6377  2.2285  0.3928
19052TIP3   OH278570   5.673   3.010   4.853  0.3387  0.6053 -0.3178
19052TIP3    H178571   5.760   3.011   4.813  0.7555 -0.4015  0.5139
19052TIP3    H278572   5.614   2.984   4.783  0.8008  0.6065 -0.7129
19053TIP3   OH278573   0.764   3.355  10.808  0.7411  0.1221  0.1718
19053TIP3    H178574   0.742   3.272  10.850  1.3380  0.1549  0.5487
19053TIP3    H278575   0.855   3.372  10.833  0.8201  0.5795 -0.4142
19054TIP3   OH278576   2.325   1.433   6.383 -0.4100  0.6886 -0.4199
19054TIP3    H178577   2.238   1.446   6.420 -0.2237 -0.0904  0.3158
19054TIP3    H278578   2.311   1.373   6.310 -0.3375 -0.4269  0.4629
19055TIP3   OH278579   0.415   3.637  10.905  0.1589 -0.4738  1.0059
19055TIP3    H178580   0.492   3.583  10.925 -0.3454 -1.3032  0.7747
19055TIP3    H278581   0.341   3.587  10.940 -0.2888  0.2874  1.1759
19056TIP3   OH278582   5.927   1.712   5.530 -0.1462  0.2509 -0.2381
19056TIP3    H178583   5.881   1.790   5.562  1.3879  0.6758  1.0681
19056TIP3    H278584   5.879   1.638   5.568  0.4419  0.6952  1.4611
19057TIP3   OH278585   0.272   5.991   3.543  0.1947 -0.7957 -0.0839
19057TIP3    H178586   0.334   5.942   3.488 -0.8246 -2.6508  0.3298
19057TIP3    H278587   0.214   6.034   3.480  1.2440  0.1135 -0.4623
19058TIP3   OH278588   4.047   1.343   4.514 -0.2069 -0.3890 -0.1574
19058TIP3    H178589   4.139   1.365   4.498 -0.0094 -0.6946  0.5296
19058TIP3    H278590   4.032   1.368   4.605 -0.8204 -0.2995 -0.2786
19059TIP3   OH278591   0.644   5.414  16.535  0.2447 -0.1672  0.3026
19059TIP3    H178592   0.596   5.484  16.578 -0.3110  0.3124 -1.0451
19059TIP3    H278593   0.626   5.336  16.588 -3.5560 -0.4243 -1.0638
19060TIP3   OH278594   3.387   3.097   3.441 -0.1267  0.7172 -0.1141
19060TIP3    H178595   3.410   3.099   3.534  2.6739  1.0738 -0.7275
19060TIP3    H278596   3.357   3.007   3.426  2.6943 -0.4624  0.5290
19061TIP3   OH278597   4.495   6.532   5.994 -0.1747  0.1714  0.2178
19061TIP3    H178598   4.424   6.510   5.934 -0.4570  0.9959  0.2392
19061TIP3    H278599   4.520   6.448   6.034  0.6169 -0.5625 -1.6807
19062TIP3   OH278600   1.440   3.461  17.186 -0.1779  0.2613 -0.0986
19062TIP3    H178601   1.510   3.476  17.250  0.2820 -0.9891 -0.2743
19062TIP3    H278602   1.477   3.492  17.103  1.0291 -2.2408 -0.5891
19063TIP3   OH278603   3.287   0.243   1.205 -0.1158 -0.2162 -0.9958
19063TIP3    H178604   3.350   0.277   1.268 -1.1378 -0.9265  0.4762
19063TIP3    H278605   3.338   0.183   1.150  0.8711  0.7027 -1.1102
19064TIP3   OH278606   0.494   6.269   3.498 -0.0035 -0.0067  0.3744
19064TIP3    H178607   0.453   6.265   3.584  0.0288 -0.9063  0.3577
19064TIP3    H278608   0.426   6.240   3.437  0.6378 -1.6255  0.3592
19065TIP3   OH278609   4.852   6.140  15.339 -0.0710  0.0539  0.1586
19065TIP3    H178610   4.892   6.098  15.415  1.0640  0.6809 -0.0719
19065TIP3    H278611   4.926   6.173  15.288 -0.6988 -1.6020 -1.9784
19066TIP3   OH278612   3.812   3.397   4.420 -0.5505  0.8569  0.1872
19066TIP3    H178613   3.811   3.375   4.327 -2.2907  0.2177  0.3110
19066TIP3    H278614   3.731   3.446   4.434 -0.6678  0.3392  1.4805
19067TIP3   OH278615   6.602   2.431  14.903  0.6558  0.8454  0.6126
19067TIP3    H178616   6.667   2.498  14.880  0.1164  1.5933  1.2125
19067TIP3    H278617   6.532   2.479  14.946 -0.6291  0.1524 -0.6132
19068TIP3   OH278618   4.118   1.719   5.886 -0.4962 -0.7167  0.1860
19068TIP3    H178619   4.088   1.743   5.974 -0.2567  0.9689 -0.1579
19068TIP3    H278620   4.213   1.710   5.896 -0.5679 -1.5102  0.2829
19069TIP3   OH278621   5.875   3.539   4.830 -0.6007  1.0802  0.6345
19069TIP3    H178622   5.904   3.627   4.857  1.1875  0.9552 -0.6991
19069TIP3    H278623   5.926   3.479   4.885  0.2182  0.8780 -0.3145
19070TIP3   OH278624   6.533   1.415   5.518  0.0098  0.6569 -0.4934
19070TIP3    H178625   6.495   1.375   5.597 -1.6723  0.4357 -1.3668
19070TIP3    H278626   6.561   1.502   5.546  1.9138 -0.3329  0.9673
19071TIP3   OH278627   4.185   6.454   6.037  0.1463  0.3270  0.3908
19071TIP3    H178628   4.098   6.431   6.005  0.2186  2.5449 -1.6572
19071TIP3    H278629   4.210   6.380   6.093 -1.5957 -2.0323 -1.7329
19072TIP3   OH278630   4.863   6.134  13.053  0.2906 -0.0271  0.5414
19072TIP3    H178631   4.829   6.199  12.991 -0.4970  1.4220  2.3656
19072TIP3    H278632   4.830   6.051  13.021  0.2226  0.6176 -1.1658
19073TIP3   OH278633   4.628   0.415  12.043  0.1411  0.0345 -0.4320
19073TIP3    H178634   4.610   0.353  11.972  1.3704 -0.1269 -0.6271
19073TIP3    H278635   4.694   0.371  12.097  0.4943  0.8708 -0.1726
19074TIP3   OH278636   3.563   3.717  15.502  0.0656 -0.8082 -0.2465
19074TIP3    H178637   3.482   3.729  15.551  0.0259 -0.0819 -0.4807
19074TIP3    H278638   3.607   3.802  15.505  1.6991 -1.6448  1.3796
19075TIP3   OH278639   1.548   1.579  13.956  0.0670 -0.4754 -0.2118
19075TIP3    H178640   1.475   1.624  13.915  1.6695  1.0398 -1.5760
19075TIP3    H278641   1.600   1.545  13.882  2.0402  0.6934  0.5525
19076TIP3   OH278642   0.680   2.022  15.833  0.7044  0.4398 -0.3553
19076TIP3    H178643   0.709   1.988  15.748 -0.9734  1.2241 -1.2966
19076TIP3    H278644   0.699   1.951  15.895  2.3420  0.0114 -1.2761
19077TIP3   OH278645   2.446   3.648  12.009  0.0475  0.8795 -0.3042
19077TIP3    H178646   2.451   3.616  12.099 -0.3475  0.2394 -0.5085
19077TIP3    H278647   2.508   3.721  12.006 -0.1708  1.1103  0.5711
19078TIP3   OH278648   0.811   5.261   0.489  0.3377  0.0488 -0.0714
19078TIP3    H178649   0.782   5.314   0.415 -0.1829  2.1050  1.4904
19078TIP3    H278650   0.736   5.206   0.510 -0.0237  0.4750 -0.2308
19079TIP3   OH278651   1.452   4.483   3.245  0.4619 -0.0652  0.0669
19079TIP3    H178652   1.468   4.525   3.330  2.6472  0.1984 -0.4231
19079TIP3    H278653   1.379   4.424   3.261 -0.8043  1.7657  1.5185
19080TIP3   OH278654   2.727   6.534   1.174 -0.2161 -0.3929  0.0361
19080TIP3    H178655   2.756   6.589   1.102 -0.2324 -0.4576 -0.0201
19080TIP3    H278656   2.808   6.503   1.215 -0.1789  0.9208  1.0407
19081TIP3   OH278657   0.745   4.945   0.764  0.0582  0.4879 -0.3904
19081TIP3    H178658   0.676   4.927   0.828 -0.8172  2.4196 -0.7435
19081TIP3    H278659   0.754   4.863   0.715 -0.6671 -0.3712  0.8635
19082TIP3   OH278660   5.814   0.231   0.196 -0.3972 -0.4783  0.4524
19082TIP3    H178661   5.875   0.264   0.130 -0.8668 -0.9177 -0.2142
19082TIP3    H278662   5.833   0.283   0.274  1.6761 -1.4130  0.6410
19083TIP3   OH278663   3.022   4.504   1.978 -0.2672 -0.0369  0.2752
19083TIP3    H178664   3.012   4.412   1.955 -1.4071  0.4335 -1.3290
19083TIP3    H278665   2.935   4.542   1.964  0.5655  1.6075 -0.8273
19084TIP3   OH278666   5.562   3.443  12.742 -0.2183  0.3434 -0.2216
19084TIP3    H178667   5.650   3.418  12.713 -0.9458 -0.2356 -2.0542
19084TIP3    H278668   5.543   3.523  12.693 -0.1633  1.3387  1.3074
19085TIP3   OH278669   5.541   5.854  15.879  0.0456  0.2184 -0.3237
19085TIP3    H178670   5.580   5.780  15.832 -1.8425  0.2680 -2.0795
19085TIP3    H278671   5.449   5.855  15.852 -0.0749  3.0322 -0.1298
19086TIP3   OH278672   0.238   3.992   2.192 -0.1963 -0.4733  0.1617
19086TIP3    H178673   0.239   3.949   2.277 -0.8381  0.6964  0.7960
19086TIP3    H278674   0.158   3.962   2.150 -0.5968 -0.0023  0.5663
19087TIP3   OH278675   0.830   1.417   1.455 -0.0515 -0.0879  0.1346
19087TIP3    H178676   0.917   1.416   1.416  0.2523 -3.7538  0.5666
19087TIP3    H278677   0.846   1.438   1.547  0.1734  0.8432 -0.1127
19088TIP3   OH278678   4.255   0.238   0.746  0.6642  0.0856  0.3887
19088TIP3    H178679   4.215   0.325   0.744 -0.7720 -0.5628 -0.3989
19088TIP3    H278680   4.226   0.200   0.829 -1.1555 -0.7092 -0.5630
19089TIP3   OH278681   5.103   6.158   0.383 -0.1389  0.6915 -0.4182
19089TIP3    H178682   5.124   6.103   0.458 -0.7358 -0.9124 -1.3791
19089TIP3    H278683   5.008   6.167   0.386 -0.0297  1.8385 -0.1728
19090TIP3   OH278684   6.707   6.081  12.966  0.5588 -0.0013 -0.0733
19090TIP3    H178685   6.700   6.008  13.028  1.0701 -0.2985 -0.3565
19090TIP3    H278686   6.624   6.079  12.918  0.5134 -0.3130  0.0125
19091TIP3   OH278687   1.342   5.032  15.578 -0.1597  0.3768 -0.3871
19091TIP3    H178688   1.384   4.950  15.605 -0.9323 -0.2620 -1.0719
19091TIP3    H278689   1.404   5.071  15.516  0.0842  0.1762 -0.2746
19092TIP3   OH278690   4.188   3.993   3.921 -0.2474  0.6648 -0.0266
19092TIP3    H178691   4.096   3.997   3.895 -0.2613  0.2840 -0.0416
19092TIP3    H278692   4.192   3.918   3.981  0.3629 -0.3321 -1.2815
19093TIP3   OH278693   2.131   1.788   1.401  0.2160  0.2488  0.0261
19093TIP3    H178694   2.192   1.839   1.454 -0.1628  0.4741  0.2520
19093TIP3    H278695   2.052   1.781   1.455  0.8785 -2.1887  0.8027
19094TIP3   OH278696   6.375   3.226   4.789  0.4603  0.3736 -0.1777
19094TIP3    H178697   6.335   3.307   4.822  0.4002 -0.6680  2.5161
19094TIP3    H278698   6.335   3.156   4.840  2.7912 -1.0829 -0.1683
19095TIP3   OH278699   5.519   3.991  12.789  0.4377 -0.2017  0.3224
19095TIP3    H178700   5.488   4.074  12.824 -1.9581 -0.4467 -1.0465
19095TIP3    H278701   5.554   4.013  12.703  1.5021 -0.3820  0.6875
19096TIP3   OH278702   4.240   1.233   1.058 -0.3120  0.7303 -0.1718
19096TIP3    H178703   4.239   1.223   0.963  0.7795 -2.1572  0.0538
19096TIP3    H278704   4.152   1.208   1.085 -0.8589  2.2565 -0.4073
19097TIP3   OH278705   5.032   4.170   2.320 -0.7843 -0.8971 -0.0470
19097TIP3    H178706   4.986   4.087   2.329 -2.0450 -0.2450 -0.1836
19097TIP3    H278707   5.110   4.161   2.375 -1.3274 -1.8599  0.5882
19098TIP3   OH278708   3.374   5.545  17.479  0.7007 -0.2197 -0.6374
19098TIP3    H178709   3.298   5.596  17.505  1.2844  0.5970 -0.4740
19098TIP3    H278710   3.449   5.595  17.514  1.2987 -1.0296 -0.7427
19099TIP3   OH278711   2.424   6.416  11.616 -0.5722 -0.1550  0.3469
19099TIP3    H178712   2.336   6.446  11.636 -0.4304  0.0587  0.6556
19099TIP3    H278713   2.480   6.491  11.635 -0.1955 -0.6582  1.3279
19100TIP3   OH278714   1.435   4.963   4.116  0.5844  0.1149 -0.0895
19100TIP3    H178715   1.511   4.962   4.057  1.9001  1.2726  1.4945
19100TIP3    H278716   1.426   5.055   4.141  0.2016 -0.3632  1.6546
19101TIP3   OH278717   4.955   4.498  13.473  0.5431  0.4582  0.8044
19101TIP3    H178718   4.943   4.592  13.460 -0.0735  0.6439  2.4750
19101TIP3    H278719   4.872   4.459  13.446  0.2849  0.5534  1.4417
19102TIP3   OH278720   1.172   3.455   5.471 -1.3508 -0.2557 -0.3144
19102TIP3    H178721   1.215   3.495   5.396  0.4693 -1.0215  0.2669
19102TIP3    H278722   1.187   3.516   5.543  0.4056 -1.3351  0.2998
19103TIP3   OH278723   2.749   5.341   1.653 -0.6253  0.1399 -0.2000
19103TIP3    H178724   2.844   5.333   1.666 -0.5948 -1.2303 -1.0345
19103TIP3    H278725   2.712   5.337   1.741  0.0366 -0.6165  0.0594
19104TIP3   OH278726   4.105   0.935   4.526  0.2634 -1.0651 -0.2496
19104TIP3    H178727   4.109   0.840   4.527  0.1410 -1.1202 -2.0826
19104TIP3    H278728   4.011   0.955   4.525  0.2615 -0.8624  1.2808
19105TIP3   OH278729   3.288   2.744   2.331 -0.4275  0.5284 -0.0371
19105TIP3    H178730   3.321   2.821   2.285 -1.2370  0.5585 -0.5909
19105TIP3    H278731   3.218   2.778   2.387 -1.0459  0.1590 -0.5635
19106TIP3   OH278732   2.774   0.893  14.875  0.1013  0.2236 -0.9846
19106TIP3    H178733   2.819   0.852  14.802  1.1086 -1.9526  0.7440
19106TIP3    H278734   2.705   0.945  14.835  2.8427  2.1437 -3.6860
19107TIP3   OH278735   2.572   2.230   3.793 -0.2794  0.4887 -0.3239
19107TIP3    H178736   2.614   2.186   3.867  0.6107 -0.1341 -1.1799
19107TIP3    H278737   2.589   2.323   3.807 -1.3619  0.5188  1.0050
19108TIP3   OH278738   5.181   1.014  14.050  0.1864  0.0669  0.1492
19108TIP3    H178739   5.272   0.985  14.044 -0.0146 -0.5338 -0.0470
19108TIP3    H278740   5.175   1.057  14.135  0.6696  0.1829  0.1308
19109TIP3   OH278741   3.006   5.504   3.270 -0.0424 -0.1221  0.4394
19109TIP3    H178742   3.090   5.495   3.224  0.0283  0.8736  0.3404
19109TIP3    H278743   2.952   5.434   3.234  0.0225  0.6069 -1.1787
19110TIP3   OH278744   1.749   2.503  12.655  0.0961 -0.2851 -0.5346
19110TIP3    H178745   1.736   2.588  12.698 -2.3137 -1.1575  0.6447
19110TIP3    H278746   1.678   2.498  12.591 -2.0096 -2.7514  1.7755
19111TIP3   OH278747   4.769   1.206  15.400 -0.0694 -0.5187 -0.0587
19111TIP3    H178748   4.809   1.124  15.429 -0.8247 -0.1278  2.2602
19111TIP3    H278749   4.822   1.275  15.441 -0.3593  0.1294 -0.7396
19112TIP3   OH278750   0.255   2.608  13.715  0.3639 -0.7429  0.3427
19112TIP3    H178751   0.247   2.523  13.672  1.0028 -1.5351  1.7275
19112TIP3    H278752   0.312   2.659  13.658  1.7015 -1.9854  0.5302
19113TIP3   OH278753   2.153   6.231   3.090  0.6299 -0.2218  0.4173
19113TIP3    H178754   2.137   6.142   3.124  0.3359 -0.6909 -0.9112
19113TIP3    H278755   2.087   6.285   3.135 -0.2571 -0.9603  0.0529
19114TIP3   OH278756   0.555   4.970  15.512  1.1404  0.1752 -0.3803
19114TIP3    H178757   0.627   4.999  15.455  2.1919 -2.8335 -0.7883
19114TIP3    H278758   0.519   4.894  15.467 -0.7619  0.1786  1.0282
19115TIP3   OH278759   3.041   1.242  16.688 -0.6468  0.5731 -0.4037
19115TIP3    H178760   3.006   1.278  16.606  0.1353 -1.2653 -1.6240
19115TIP3    H278761   3.123   1.289  16.701 -0.1259 -0.0045 -1.4312
19116TIP3   OH278762   1.904   2.492  16.228 -0.0103  0.3425  0.0095
19116TIP3    H178763   1.940   2.503  16.140  1.0961 -0.0591  0.3888
19116TIP3    H278764   1.857   2.410  16.225  2.8120 -1.4415  0.6118
19117TIP3   OH278765   2.406   3.691   6.306 -0.1425 -0.2327  0.0525
19117TIP3    H178766   2.353   3.703   6.385 -0.2779 -0.3035 -0.0284
19117TIP3    H278767   2.442   3.603   6.315 -1.6947 -0.9984 -0.8838
19118TIP3   OH278768   4.784   5.689   3.333 -0.1059  0.0463 -0.4021
19118TIP3    H178769   4.729   5.652   3.263  0.1163 -1.4000  0.1516
19118TIP3    H278770   4.722   5.714   3.402 -0.2512  0.6618 -0.7483
19119TIP3   OH278771   3.590   3.752  14.909 -0.4184 -0.4489 -0.4893
19119TIP3    H178772   3.646   3.705  14.971  1.2621  0.1511 -1.4879
19119TIP3    H278773   3.516   3.694  14.894  0.9894 -2.2519 -0.7346
19120TIP3   OH278774   2.737   4.729   3.481  0.6586  0.3898 -0.1332
19120TIP3    H178775   2.832   4.726   3.475  0.6448 -1.4094  0.2100
19120TIP3    H278776   2.718   4.746   3.573  0.6512 -1.4647  0.2287
19121TIP3   OH278777   4.233   3.913   5.554  0.3200  0.0377 -0.2124
19121TIP3    H178778   4.272   3.891   5.470 -1.1269 -0.9442 -0.6509
19121TIP3    H278779   4.280   3.858   5.617 -0.8885 -1.7953 -0.8467
19122TIP3   OH278780   0.356   5.647  13.365 -0.4570  0.2232  0.7502
19122TIP3    H178781   0.284   5.680  13.419 -0.5723  1.0989  0.0807
19122TIP3    H278782   0.329   5.665  13.275  1.3171  2.1219  0.5286
19123TIP3   OH278783   2.640   0.356   3.818 -0.2075  0.0267  0.1524
19123TIP3    H178784   2.693   0.369   3.897  0.4604 -0.8946 -0.1312
19123TIP3    H278785   2.606   0.267   3.827 -2.2543  0.7987  0.6355
19124TIP3   OH278786   5.436   6.001  17.227  0.0395  0.4390 -0.2970
19124TIP3    H178787   5.353   5.958  17.247 -1.5096  2.5912 -1.6152
19124TIP3    H278788   5.439   6.077  17.286  1.1358  0.3369 -0.1944
19125TIP3   OH278789   0.401   0.700   1.977  0.5562 -0.0294  0.0970
19125TIP3    H178790   0.336   0.766   1.952  0.9165  0.4354  0.3581
19125TIP3    H278791   0.363   0.657   2.053  0.4511  0.0835  0.1090
19126TIP3   OH278792   5.337   1.839  15.424  0.1560  0.0774 -0.2570
19126TIP3    H178793   5.288   1.768  15.466  3.3453 -1.8448  0.5779
19126TIP3    H278794   5.393   1.874  15.493  1.6049  0.5845 -1.6244
19127TIP3   OH278795   6.335   2.072   3.474  0.7539 -0.4299 -0.0016
19127TIP3    H178796   6.375   1.990   3.503  0.2396 -0.8623 -0.4929
19127TIP3    H278797   6.372   2.087   3.387  1.8466  0.5559  0.6066
19128TIP3   OH278798   3.491   5.170  10.788  0.0857 -0.1404  0.2363
19128TIP3    H178799   3.552   5.221  10.840 -0.6952  1.5471 -0.4503
19128TIP3    H278800   3.518   5.079  10.802  0.5133  0.3210  2.7492
19129TIP3   OH278801   6.387   3.006   3.770 -0.4550 -0.4404 -0.1532
19129TIP3    H178802   6.356   2.916   3.768  0.9218 -0.9364 -2.0868
19129TIP3    H278803   6.481   2.999   3.756 -0.4312  1.3412 -1.1124
19130TIP3   OH278804   0.059   2.906   5.134 -0.3284  0.1053  0.6335
19130TIP3    H178805   0.139   2.865   5.102 -0.6408 -0.1457  0.1530
19130TIP3    H278806   0.034   2.967   5.064 -0.5758  0.1533  0.7629
19131TIP3   OH278807   2.755   3.317  12.774  0.2527  0.6015 -0.5100
19131TIP3    H178808   2.699   3.351  12.704  0.5884  0.4589 -0.8459
19131TIP3    H278809   2.824   3.270  12.729  0.0323 -0.1685 -0.0565
19132TIP3   OH278810   3.367   0.138  16.233 -0.0181  0.3122 -0.0442
19132TIP3    H178811   3.379   0.127  16.139  1.5457  1.4437 -0.0168
19132TIP3    H278812   3.417   0.066  16.272  0.2220  0.4610 -0.0724
19133TIP3   OH278813   3.448   0.061   3.856  0.3272 -0.3271  0.4921
19133TIP3    H178814   3.357   0.042   3.879  0.5740 -1.4305  0.6062
19133TIP3    H278815   3.455   0.036   3.763  0.4627 -0.0472  0.4247
19134TIP3   OH278816   4.226   3.403   3.932  0.4550  0.0444 -0.1336
19134TIP3    H178817   4.196   3.485   3.895  0.5737 -0.1019 -0.5642
19134TIP3    H278818   4.259   3.426   4.019 -0.7638  0.2217  0.2981
19135TIP3   OH278819   2.612   0.934  12.144  0.2778  0.5745  0.3443
19135TIP3    H178820   2.661   0.967  12.219  1.2785  2.7308 -1.1459
19135TIP3    H278821   2.676   0.932  12.073 -1.3684  1.8594 -1.2646
19136TIP3   OH278822   0.253   0.396   5.633  0.1995 -0.0054  0.0588
19136TIP3    H178823   0.208   0.372   5.714  1.5975 -0.1637  0.8295
19136TIP3    H278824   0.187   0.439   5.580 -1.0776 -1.0222  0.7649
19137TIP3   OH278825   3.319   1.572   5.285  0.3870  0.5408  0.7403
19137TIP3    H178826   3.383   1.599   5.351  0.3615 -1.4815  1.6581
19137TIP3    H278827   3.251   1.526   5.334  0.0556 -0.4918 -0.6116
19138TIP3   OH278828   5.983   0.578  12.961  0.5536 -0.9388  0.1632
19138TIP3    H178829   5.954   0.636  12.891  2.9971 -0.2230 -0.3459
19138TIP3    H278830   5.987   0.491  12.921 -2.7841 -1.5478  0.8375
19139TIP3   OH278831   2.155   2.827   0.319 -0.2115 -0.4361 -0.2658
19139TIP3    H178832   2.182   2.781   0.240  0.8543  0.2541 -0.3256
19139TIP3    H278833   2.222   2.894   0.332 -1.8810  1.3227 -0.3584
19140TIP3   OH278834   2.835   6.451  12.281 -0.3297  0.7221 -0.0680
19140TIP3    H178835   2.838   6.377  12.341 -1.5994  0.5567 -0.1677
19140TIP3    H278836   2.835   6.528  12.338 -0.5460  0.5956  0.1058
19141TIP3   OH278837   6.044   6.640  13.131 -0.5064  0.5399 -0.2928
19141TIP3    H178838   6.088   6.556  13.123  0.8827  1.2349 -0.3012
19141TIP3    H278839   5.976   6.625  13.197 -1.4925 -1.0265 -1.5981
19142TIP3   OH278840   5.533   2.939   4.094  0.0907 -0.7097  0.1263
19142TIP3    H178841   5.541   2.985   4.010 -0.3588 -0.5465  0.1670
19142TIP3    H278842   5.449   2.895   4.089  0.1779 -0.9068  0.3924
19143TIP3   OH278843   3.547   1.380  12.004  0.2593 -0.3569  0.4178
19143TIP3    H178844   3.535   1.382  12.099  0.8751  1.4913  0.4924
19143TIP3    H278845   3.487   1.447  11.971  2.5134  1.5596 -0.1190
19144TIP3   OH278846   4.813   5.248  11.805 -0.0249 -0.0395 -0.3108
19144TIP3    H178847   4.885   5.291  11.758 -0.5600  0.4708 -0.6729
19144TIP3    H278848   4.744   5.313  11.809  0.4025  0.3448  2.2408
19145TIP3   OH278849   3.373   4.738   1.149 -0.7010 -0.3179  0.3791
19145TIP3    H178850   3.412   4.651   1.153  0.3005  0.0788 -0.2706
19145TIP3    H278851   3.324   4.739   1.067  1.1284  0.4166 -0.7900
19146TIP3   OH278852   2.938   5.137  16.039 -0.1942  0.2527  0.2681
19146TIP3    H178853   2.901   5.073  16.100  0.4334  0.5169  0.9450
19146TIP3    H278854   2.961   5.086  15.961 -0.7687 -0.1364  0.3440
19147TIP3   OH278855   1.223   1.569  13.663  0.1994 -0.3837 -0.2552
19147TIP3    H178856   1.195   1.482  13.636  1.0388 -0.4869 -0.8352
19147TIP3    H278857   1.190   1.578  13.753  0.4878 -1.4805 -0.0227
19148TIP3   OH278858   6.296   1.318  12.921 -0.1029  0.2188 -0.1521
19148TIP3    H178859   6.229   1.386  12.912 -0.5524  0.0509  1.6870
19148TIP3    H278860   6.365   1.359  12.973 -0.5082 -0.8036  1.2355
19149TIP3   OH278861   3.221   2.563  12.483 -0.0401 -0.3408  0.5067
19149TIP3    H178862   3.302   2.526  12.448 -0.0459  0.1900 -0.0785
19149TIP3    H278863   3.198   2.633  12.422 -0.3242  0.2691  1.3001
19150TIP3   OH278864   6.361   2.203   0.841 -0.0648  0.1903 -0.1883
19150TIP3    H178865   6.444   2.156   0.839 -0.0866  0.0975  0.6826
19150TIP3    H278866   6.326   2.186   0.929 -1.1991 -0.1191 -0.6796
19151TIP3   OH278867   4.656   5.871  16.383  0.3260  0.0869  0.1315
19151TIP3    H178868   4.583   5.915  16.427 -0.2076 -1.9919  1.4368
19151TIP3    H278869   4.719   5.855  16.453  0.2384 -1.7167 -0.1669
19152TIP3   OH278870   4.676   4.883  11.053 -0.2812  0.3877  0.3240
19152TIP3    H178871   4.693   4.872  10.959  0.8247  1.1306  0.4151
19152TIP3    H278872   4.582   4.866  11.063 -0.3642  0.0522 -0.8702
19153TIP3   OH278873   2.643   5.708  13.870 -0.1375  0.1749  0.1298
19153TIP3    H178874   2.606   5.663  13.946  0.8237  1.0310  1.1550
19153TIP3    H278875   2.681   5.788  13.906  0.1745  0.7051 -1.2993
19154TIP3   OH278876   6.410   4.097  16.878 -0.2059  0.1373  0.2441
19154TIP3    H178877   6.463   4.138  16.810 -0.7636  1.0292  0.3402
19154TIP3    H278878   6.429   4.146  16.958  0.2393 -0.7308  0.6943
19155TIP3   OH278879   5.678   4.795   5.581  0.6233  0.3768  0.6184
19155TIP3    H178880   5.647   4.741   5.654 -0.3522 -1.9511 -1.3650
19155TIP3    H278881   5.773   4.785   5.583  0.5207 -0.7179  0.8246
19156TIP3   OH278882   1.565   5.005  17.130 -0.7469 -0.5042 -0.0687
19156TIP3    H178883   1.471   4.984  17.130 -0.8970 -0.1591 -2.6657
19156TIP3    H278884   1.608   4.920  17.126 -1.1087 -0.6330 -2.4322
19157TIP3   OH278885   2.405   4.794   1.000 -0.0781  0.0486  0.3526
19157TIP3    H178886   2.348   4.842   0.940 -0.4077 -1.3231 -0.4919
19157TIP3    H278887   2.345   4.743   1.055  0.2865 -0.8986 -0.0984
19158TIP3   OH278888   2.553   5.080   6.285  0.1438 -0.2839  0.1402
19158TIP3    H178889   2.477   5.063   6.340 -0.8779 -0.6804 -1.3323
19158TIP3    H278890   2.611   5.133   6.340 -1.1021 -0.1252  1.3569
19159TIP3   OH278891   1.138   0.918   2.023  0.2341  0.0565  0.4689
19159TIP3    H178892   1.088   0.999   2.013  0.3128 -0.1795 -2.8189
19159TIP3    H278893   1.074   0.848   2.009  0.9776 -0.2846 -1.5744
19160TIP3   OH278894   0.903   0.030  14.825  0.0606 -0.9507 -0.9239
19160TIP3    H178895   0.888   0.014  14.918  0.1933 -0.6745 -0.8565
19160TIP3    H278896   0.815   0.039  14.788  0.0375  0.4464 -0.5649
19161TIP3   OH278897   5.613   4.481  15.058 -0.2488 -0.0805  0.8163
19161TIP3    H178898   5.654   4.497  15.143 -0.2870 -0.3893  0.8957
19161TIP3    H278899   5.524   4.456  15.079 -0.2156 -0.3031  0.6923
19162TIP3   OH278900   0.972   3.749  12.265  0.0299  0.2235  0.2018
19162TIP3    H178901   0.920   3.829  12.278  0.4619  0.2813  1.6524
19162TIP3    H278902   1.045   3.757  12.326  2.0642  0.3528 -2.0938
19163TIP3   OH278903   5.061   6.104   5.481  0.2942 -0.4561 -0.5314
19163TIP3    H178904   4.986   6.163   5.474  0.2779 -0.5017 -0.7316
19163TIP3    H278905   5.117   6.145   5.548 -0.5064 -1.0700  0.5513
19164TIP3   OH278906   1.896   0.020  13.531 -0.2290  0.1866 -0.1568
19164TIP3    H178907   1.859  -0.065  13.554 -0.0276  0.2593  0.4610
19164TIP3    H278908   1.969  -0.000  13.473 -0.8104  0.0061 -0.8504
19165TIP3   OH278909   1.160   3.435  14.780 -0.1475 -0.1590 -0.1824
19165TIP3    H178910   1.094   3.453  14.847  0.1501  1.4260 -0.2608
19165TIP3    H278911   1.150   3.342  14.760  0.5337 -1.0444  2.9244
19166TIP3   OH278912   0.353   1.297  15.636  0.2865  0.3986 -0.0934
19166TIP3    H178913   0.417   1.346  15.687 -0.7592  1.7181  0.0069
19166TIP3    H278914   0.370   1.322  15.545  0.1823  0.4315 -0.1046
19167TIP3   OH278915   4.104   5.497  12.187  0.3060 -0.4843 -0.0297
19167TIP3    H178916   4.146   5.458  12.111  0.1228 -0.8930  0.0787
19167TIP3    H278917   4.045   5.563  12.150  0.0296 -0.8590 -0.2577
19168TIP3   OH278918   3.355   2.703  11.899  0.5302 -0.0703 -0.2038
19168TIP3    H178919   3.277   2.757  11.910  1.8296  1.8202  0.1707
19168TIP3    H278920   3.322   2.613  11.896 -1.6883  0.7044 -0.6070
19169TIP3   OH278921   1.631   1.962  14.538  0.2599 -0.1228  0.5843
19169TIP3    H178922   1.560   1.961  14.474  0.9776 -3.0026 -0.3458
19169TIP3    H278923   1.587   1.954  14.623 -0.5765 -1.3255  0.0618
19170TIP3   OH278924   5.599   1.380  12.495 -0.3286 -0.6679  0.4140
19170TIP3    H178925   5.590   1.294  12.454  0.0792 -1.0305  1.0559
19170TIP3    H278926   5.510   1.414  12.502 -0.3946 -0.5003 -0.9449
19171TIP3   OH278927   5.216   4.314   3.403  0.1375 -0.3479  0.5107
19171TIP3    H178928   5.182   4.381   3.344  1.3928  0.4464  0.6321
19171TIP3    H278929   5.262   4.252   3.346 -0.5667 -0.8201  0.4498
19172TIP3   OH278930   1.457   0.077   2.171 -0.1343 -0.2570 -0.2129
19172TIP3    H178931   1.448  -0.018   2.162  0.0894 -0.4281  1.1582
19172TIP3    H278932   1.398   0.113   2.105  1.3929 -1.3220 -2.2678
19173TIP3   OH278933   6.261   4.371  13.014  0.0191 -0.0597  0.2135
19173TIP3    H178934   6.218   4.433  13.073  1.2306  0.8979  0.1088
19173TIP3    H278935   6.247   4.407  12.926  1.4218  0.5529  0.2069
19174TIP3   OH278936   5.899   2.142   3.511  0.5029 -0.0119 -0.2552
19174TIP3    H178937   5.822   2.198   3.504 -0.0810 -0.8363 -0.5588
19174TIP3    H278938   5.896   2.107   3.600 -0.0657 -0.8607 -0.5937
19175TIP3   OH278939   0.527   2.494   3.126 -0.9096  0.3143  0.6371
19175TIP3    H178940   0.541   2.588   3.116  2.0612 -0.1183  0.0033
19175TIP3    H278941   0.595   2.465   3.185 -0.7792 -1.6772 -0.4090
19176TIP3   OH278942   3.853   0.750   4.948 -0.4396  0.2354 -0.0384
19176TIP3    H178943   3.917   0.799   4.895  0.0333 -0.9981 -0.6593
19176TIP3    H278944   3.810   0.817   5.001  0.8989  1.1950 -0.0983
19177TIP3   OH278945   0.560   0.430  13.734  0.0161 -0.1366 -0.0538
19177TIP3    H178946   0.474   0.471  13.725  1.2267  4.1646  4.1234
19177TIP3    H278947   0.619   0.489  13.686  1.1405 -0.2709  1.1214
19178TIP3   OH278948   3.705   4.460   0.798 -0.0117 -0.0325  0.0279
19178TIP3    H178949   3.751   4.378   0.776 -0.6004  0.0967 -1.8081
19178TIP3    H278950   3.761   4.529   0.763 -0.6256  0.2246 -0.4667
19179TIP3   OH278951   2.205   1.115   0.481 -0.4716 -0.0939  0.1224
19179TIP3    H178952   2.257   1.182   0.438 -0.4710  0.1275  0.4615
19179TIP3    H278953   2.130   1.100   0.423 -1.3396  1.3813  0.8220
19180TIP3   OH278954   6.212   1.317   0.746  0.5845 -0.0252 -0.1436
19180TIP3    H178955   6.257   1.380   0.802  1.9600  0.4854 -1.7434
19180TIP3    H278956   6.280   1.283   0.688 -0.6653 -0.9537 -1.1304
19181TIP3   OH278957   4.285   2.969   4.175 -0.1965  0.0702  0.6411
19181TIP3    H178958   4.236   2.888   4.191  0.1782 -0.5833 -1.2140
19181TIP3    H278959   4.226   3.023   4.123 -0.2583  0.7876  1.4471
19182TIP3   OH278960   5.526   2.685  14.119  0.0736 -0.2279  0.4322
19182TIP3    H178961   5.442   2.721  14.146 -0.0155  0.5471 -0.7712
19182TIP3    H278962   5.506   2.636  14.038  0.7364 -0.2282  0.2623
19183TIP3   OH278963   2.809   2.064  17.214 -0.3350 -0.5800  0.3361
19183TIP3    H178964   2.886   2.018  17.245 -0.5618 -1.1688  0.0318
19183TIP3    H278965   2.773   2.105  17.293  0.6873  0.3189  0.3608
19184TIP3   OH278966   1.536   6.267  13.097  0.4893  0.5258 -0.1424
19184TIP3    H178967   1.485   6.189  13.074 -0.1624  0.9014  0.0200
19184TIP3    H278968   1.593   6.281  13.021 -0.8088  1.0564 -1.0423
19185TIP3   OH278969   4.804   2.725   0.755 -0.1157  0.0880 -0.4235
19185TIP3    H178970   4.751   2.651   0.726  0.0376 -0.3585  0.4288
19185TIP3    H278971   4.868   2.688   0.815 -1.1929  1.1359  1.4805
19186TIP3   OH278972   1.476   0.952   6.158 -0.0128  0.2352 -0.4159
19186TIP3    H178973   1.401   0.943   6.216  0.4386 -1.4897 -0.0380
19186TIP3    H278974   1.548   0.978   6.216 -0.0360  0.6304 -0.5637
19187TIP3   OH278975   4.822   5.081  15.284  0.0324  0.2263  0.2183
19187TIP3    H178976   4.798   5.168  15.252 -0.5108  0.3173  0.8513
19187TIP3    H278977   4.740   5.032  15.281  0.0802  0.0891  0.9706
19188TIP3   OH278978   0.580   3.594   1.867  0.1363  0.6860 -0.2551
19188TIP3    H178979   0.607   3.506   1.841  0.8489  0.5372  0.8993
19188TIP3    H278980   0.599   3.649   1.791 -0.0552 -0.1093 -0.8844
19189TIP3   OH278981   3.755   2.031  17.162  0.0241 -0.0523  0.2987
19189TIP3    H178982   3.844   2.060  17.143 -0.4026  2.7169  1.9953
19189TIP3    H278983   3.720   2.004  17.076  1.3622  2.2432 -1.0669
19190TIP3   OH278984   4.991   5.437   2.778  0.2606  0.6716 -0.4356
19190TIP3    H178985   5.046   5.450   2.701 -1.1840  0.9748 -1.4703
19190TIP3    H278986   4.904   5.418   2.742 -0.2300 -0.2035  1.1308
19191TIP3   OH278987   6.206   2.212  15.501  0.2425  0.1658  0.3323
19191TIP3    H178988   6.253   2.161  15.567 -0.2094 -0.4340  0.1903
19191TIP3    H278989   6.121   2.231  15.540 -0.1887 -0.5594 -0.2410
19192TIP3   OH278990   1.998   4.241   2.569 -0.4485 -0.5658 -0.1053
19192TIP3    H178991   2.086   4.277   2.583  1.2291 -3.1768 -2.6139
19192TIP3    H278992   1.966   4.286   2.490 -1.7631  0.8759  1.1867
19193TIP3   OH278993   6.650   6.482  14.834  0.0237 -0.2348 -0.0608
19193TIP3    H178994   6.680   6.562  14.790 -0.1780 -0.6210 -0.9273
19193TIP3    H278995   6.729   6.430  14.846  0.1194 -0.0154  0.2908
19194TIP3   OH278996   4.841   5.735   2.761 -0.1576 -0.0310  0.3191
19194TIP3    H178997   4.865   5.791   2.835 -2.7442  2.9266 -0.8562
19194TIP3    H278998   4.911   5.746   2.698 -0.3224  1.4591  0.3775
19195TIP3   OH278999   0.369   2.016  13.997  0.0032  0.3675  0.2106
19195TIP3    H179000   0.451   2.028  14.045 -0.3270 -0.5917  1.0560
19195TIP3    H279001   0.310   2.083  14.034  0.1432  0.4977  0.2002
19196TIP3   OH279002   6.101   4.458   0.570  0.0544  0.3212  0.8538
19196TIP3    H179003   6.052   4.376   0.571  0.1972  0.2390  1.2132
19196TIP3    H279004   6.158   4.450   0.494 -0.4314  0.3858  0.4743
19197TIP3   OH279005   1.297   1.177   4.828 -0.1656 -0.3167  0.7217
19197TIP3    H179006   1.266   1.201   4.741  0.6953 -1.0709  0.1936
19197TIP3    H279007   1.293   1.082   4.829  1.0927 -0.3769  1.0232
19198TIP3   OH279008   6.153   3.990   6.378  0.5748  0.0073 -0.2493
19198TIP3    H179009   6.220   4.056   6.394 -0.0103 -0.0361  3.0559
19198TIP3    H279010   6.163   3.927   6.450 -1.3761 -1.3762 -1.1026
19199TIP3   OH279011   3.625   0.433   3.492  0.2908  0.2659  0.1287
19199TIP3    H179012   3.700   0.486   3.464 -0.0473  0.8066  0.2342
19199TIP3    H279013   3.655   0.343   3.483  0.9573  0.4774  0.1783
19200TIP3   OH279014   5.137   2.722  11.741  0.1385  0.0679 -0.1898
19200TIP3    H179015   5.088   2.795  11.704 -3.8326 -2.5759 -0.9164
19200TIP3    H279016   5.144   2.742  11.834 -1.0891  1.2707 -0.3260
19201TIP3   OH279017   4.473   1.546  11.628  0.4516  0.0343 -0.1463
19201TIP3    H179018   4.506   1.466  11.587 -0.2866 -0.2532 -0.1929
19201TIP3    H279019   4.468   1.609  11.556  1.0342  0.1289 -0.1093
19202TIP3   OH279020   5.172   6.507   0.145  0.1743 -0.4357 -0.3074
19202TIP3    H179021   5.187   6.499   0.239  2.9733 -2.0431 -0.7722
19202TIP3    H279022   5.087   6.551   0.137  0.2059  0.4265  2.9296
19203TIP3   OH279023   0.079   1.340   3.344 -0.2557 -0.1304 -0.2106
19203TIP3    H179024   0.066   1.315   3.253  0.6054  0.3203 -0.4621
19203TIP3    H279025   0.022   1.281   3.393  1.9350 -2.9578 -0.7561
19204TIP3   OH279026   4.811   0.066   0.805  0.6452  0.3963 -0.5978
19204TIP3    H179027   4.846   0.040   0.890  2.2996 -0.4577 -1.4876
19204TIP3    H279028   4.717   0.057   0.814  0.7557  0.7704  1.2734
19205TIP3   OH279029   6.712   5.178  12.036  0.0958  1.4868  0.0828
19205TIP3    H179030   6.711   5.099  11.982  0.9655  2.8295 -1.9790
19205TIP3    H279031   6.774   5.158  12.106 -0.8823 -0.1945  0.5510
19206TIP3   OH279032   2.736   6.590  15.536 -0.3230 -0.0302  0.0609
19206TIP3    H179033   2.650   6.567  15.500 -1.3394  2.0278  0.9707
19206TIP3    H279034   2.765   6.665  15.484 -0.7715  1.5409  1.9161
19207TIP3   OH279035   4.959   2.942  15.832  0.5098  0.5611  0.2778
19207TIP3    H179036   5.017   3.017  15.828  0.2026  0.8566  1.0882
19207TIP3    H279037   4.983   2.888  15.756  1.4120  0.9783  0.2592
19208TIP3   OH279038   6.672   2.959   0.836 -0.1372  0.2544  0.8926
19208TIP3    H179039   6.721   3.040   0.850  1.8014 -0.9625  1.6492
19208TIP3    H279040   6.634   2.938   0.922 -1.0069  0.5608  0.5963
19209TIP3   OH279041   4.612   5.803   1.179  0.2254  0.0609 -0.3780
19209TIP3    H179042   4.647   5.757   1.256  1.1723  0.3315 -0.6320
19209TIP3    H279043   4.555   5.870   1.216 -0.6803 -0.9025  0.0158
19210TIP3   OH279044   4.922   3.458   3.622 -0.0592 -0.7081  0.1661
19210TIP3    H179045   4.971   3.405   3.685 -1.5532 -0.4015  1.6576
19210TIP3    H279046   4.894   3.396   3.555  2.6462 -0.8138 -0.9585
19211TIP3   OH279047   0.042   6.736  16.283 -0.0860 -0.2089 -0.0099
19211TIP3    H179048   0.053   6.827  16.312 -1.0484  0.5553 -1.8398
19211TIP3    H279049   0.090   6.731  16.201 -0.1354 -1.3300  0.0178
19212TIP3   OH279050   0.291   3.049   3.031  0.3929 -0.0939  0.3152
19212TIP3    H179051   0.275   3.128   3.082  2.9433  0.1596  0.8781
19212TIP3    H279052   0.248   3.066   2.947 -0.1145  1.3851  0.8427
19213TIP3   OH279053   5.667   3.509  16.403  0.4454  0.1315 -0.1434
19213TIP3    H179054   5.718   3.547  16.331  1.3629  1.1770  1.0087
19213TIP3    H279055   5.579   3.497  16.367  0.3211  2.6517 -0.8261
19214TIP3   OH279056   0.211   0.297  16.672 -0.0386  0.2024  0.4661
19214TIP3    H179057   0.157   0.366  16.711 -2.1346 -0.5021 -0.9848
19214TIP3    H279058   0.190   0.219  16.724 -0.0123  0.0459  0.2433
19215TIP3   OH279059   1.421   2.685   6.328  0.3542 -0.5531 -0.1945
19215TIP3    H179060   1.333   2.718   6.347  0.2596 -0.4825 -0.7486
19215TIP3    H279061   1.473   2.709   6.405  0.3271  1.0121 -0.6474
19216TIP3   OH279062   6.118   2.991   4.657  0.1024 -0.4440  0.3047
19216TIP3    H179063   6.093   2.937   4.581  1.1572 -0.4817 -0.0262
19216TIP3    H279064   6.164   2.931   4.715  1.7356  0.1865 -0.2955
19217TIP3   OH279065   4.723   2.190   1.891 -0.5919 -0.1152  0.8633
19217TIP3    H179066   4.791   2.207   1.956  0.0124  0.2608  0.1450
19217TIP3    H279067   4.645   2.232   1.927  0.1047  1.4297  0.6498
19218TIP3   OH279068   4.624   4.767   3.738  0.2721 -0.1736  0.0379
19218TIP3    H179069   4.581   4.818   3.669 -0.8766  0.3708  1.1082
19218TIP3    H279070   4.647   4.684   3.696  2.0696  1.1356 -1.7174
19219TIP3   OH279071   6.562   1.531   2.351 -0.0729 -0.5464  0.6821
19219TIP3    H179072   6.581   1.473   2.277 -1.5647 -0.4266  0.1811
19219TIP3    H279073   6.468   1.548   2.345  0.0007  0.4273  1.9181
19220TIP3   OH279074   4.698   2.277   1.607  0.0140  0.2031 -0.1242
19220TIP3    H179075   4.679   2.257   1.699 -3.9518  3.0836 -0.0434
19220TIP3    H279076   4.693   2.192   1.563  0.4416 -1.0433  2.0776
19221TIP3   OH279077   5.450   2.078   2.527  0.1555  0.1201  0.4362
19221TIP3    H179078   5.365   2.062   2.485  0.5143 -0.5194 -0.0752
19221TIP3    H279079   5.471   2.168   2.505 -0.7690  0.5587  1.2618
19222TIP3   OH279080   4.127   4.901  14.810  0.1271 -0.3184 -0.4890
19222TIP3    H179081   4.129   4.916  14.904 -0.6799 -0.1357 -0.4894
19222TIP3    H279082   4.193   4.833  14.795  0.1008 -0.5148  0.2384
19223TIP3   OH279083   4.899   5.422  12.959  0.1332  0.2388 -0.0381
19223TIP3    H179084   4.907   5.353  13.025  1.6333  0.6641  0.2534
19223TIP3    H279085   4.863   5.377  12.882  0.6307 -0.7707  0.3063
19224TIP3   OH279086   5.158   1.491   4.558 -0.4172 -0.0285 -0.1455
19224TIP3    H179087   5.171   1.405   4.519 -0.3745 -0.4648  0.7919
19224TIP3    H279088   5.112   1.473   4.640  2.2486  0.5085  1.5882
19225TIP3   OH279089   3.582   2.086  15.421 -0.1654  0.0355  0.2057
19225TIP3    H179090   3.633   2.165  15.442 -0.8033  0.3982  0.4373
19225TIP3    H279091   3.645   2.026  15.382  0.7337 -0.0526  1.7201
19226TIP3   OH279092   4.219   2.858  16.631  0.3880  0.1323 -0.1260
19226TIP3    H179093   4.190   2.778  16.674 -1.3393  1.2793  0.9345
19226TIP3    H279094   4.174   2.857  16.546  2.5347 -1.3154 -1.3721
19227TIP3   OH279095   6.377   6.394  12.550  0.2043  0.1274  0.4843
19227TIP3    H179096   6.411   6.414  12.637 -0.3500  2.0293  0.3013
19227TIP3    H279097   6.399   6.470  12.497 -1.4588  0.0158 -0.4480
19228TIP3   OH279098   2.462   4.122   5.736  0.0570  0.2274 -0.1554
19228TIP3    H179099   2.455   4.034   5.774 -0.3741  0.3765  0.1192
19228TIP3    H279100   2.425   4.179   5.803 -0.6975  0.5006 -0.7916
19229TIP3   OH279101   4.657   0.294   1.497 -0.1922 -0.1441 -1.1214
19229TIP3    H179102   4.667   0.262   1.587  0.4310  1.1238 -0.7089
19229TIP3    H279103   4.570   0.264   1.470  0.6469 -2.8799 -1.1137
19230TIP3   OH279104   1.798   0.153  14.455 -0.1121 -0.4036 -0.1151
19230TIP3    H179105   1.838   0.236  14.478  1.5767 -1.0601 -0.5207
19230TIP3    H279106   1.818   0.142  14.362 -1.7411 -0.5220 -0.4834
19231TIP3   OH279107   5.539   0.396   2.663  0.3168 -0.1268 -0.3694
19231TIP3    H179108   5.625   0.361   2.638  0.4351  0.8192 -1.4122
19231TIP3    H279109   5.549   0.491   2.653 -0.6110  0.0493  0.3031
19232TIP3   OH279110   4.061   2.233   2.359 -0.3183  0.7065 -0.3194
19232TIP3    H179111   4.042   2.326   2.373 -0.1393  0.7120 -0.1019
19232TIP3    H279112   3.987   2.188   2.399 -0.6354  0.7672 -0.8341
19233TIP3   OH279113   0.322   1.718   2.316 -0.2691 -0.1850 -0.4265
19233TIP3    H179114   0.334   1.629   2.283  0.8321 -0.4135  0.5231
19233TIP3    H279115   0.241   1.713   2.368 -1.6852  0.0430 -2.4816
19234TIP3   OH279116   3.452   2.859  11.303  0.3743 -0.1309 -0.7421
19234TIP3    H179117   3.367   2.857  11.259  0.0680  0.1377 -0.1729
19234TIP3    H279118   3.489   2.944  11.281 -0.2910  0.4940  0.4428
19235TIP3   OH279119   4.073   5.102   0.324 -0.1594 -0.1675  0.4591
19235TIP3    H179120   3.999   5.109   0.263  0.2429 -0.2187 -0.0370
19235TIP3    H279121   4.032   5.084   0.408 -0.8944  2.1174  0.6772
19236TIP3   OH279122   1.474   3.243  14.301 -0.0402  0.2741  0.1307
19236TIP3    H179123   1.511   3.183  14.365  0.9984 -0.0431 -0.7318
19236TIP3    H279124   1.544   3.255  14.236 -0.9900  0.7244 -0.8436
19237TIP3   OH279125   1.755   3.288  11.602  0.2257 -0.4909  0.0105
19237TIP3    H179126   1.761   3.203  11.558  0.2443 -0.8369  0.6606
19237TIP3    H279127   1.731   3.266  11.692 -1.0092  0.2717 -0.1072
19238TIP3   OH279128   0.344   5.111  16.704 -0.2697 -0.5030 -0.0379
19238TIP3    H179129   0.419   5.105  16.763  0.2854  1.4839 -0.4584
19238TIP3    H279130   0.370   5.061  16.626  0.9169  0.6845 -0.4341
19239TIP3   OH279131   2.711   2.521  16.055  0.0998  0.0499  0.0763
19239TIP3    H179132   2.795   2.529  16.099  1.3864  0.4922 -2.2879
19239TIP3    H279133   2.689   2.428  16.061 -0.7525  0.3422  3.1683
19240TIP3   OH279134   6.393   4.534  13.936 -0.1453 -0.6869 -0.5787
19240TIP3    H179135   6.415   4.519  13.844 -0.7160 -1.5837 -0.5894
19240TIP3    H279136   6.312   4.483  13.949 -0.4680  0.0147  0.2282
19241TIP3   OH279137   5.941   5.186   2.902  0.1728  0.4958  0.1882
19241TIP3    H179138   5.949   5.090   2.901  1.3596  0.5771  0.4650
19241TIP3    H279139   6.029   5.217   2.882 -0.2520  1.5396 -0.0934
19242TIP3   OH279140   6.340   0.042  11.471  0.4864  0.3013  0.9497
19242TIP3    H179141   6.404   0.022  11.402 -0.5803 -2.0039  0.5619
19242TIP3    H279142   6.353  -0.026  11.537 -1.3692 -0.0921  0.9695
19243TIP3   OH279143   1.631   4.646  11.649 -0.4633 -0.1374 -0.1989
19243TIP3    H179144   1.547   4.672  11.610 -0.9989  0.0103  1.0332
19243TIP3    H279145   1.696   4.674  11.584 -1.1895  2.0121 -0.0999
19244TIP3   OH279146   2.731   2.830  16.829  0.2357 -0.3872 -0.1520
19244TIP3    H179147   2.750   2.835  16.735  0.0050 -0.4779 -0.2028
19244TIP3    H279148   2.652   2.883  16.840  0.5712  0.0739  0.0766
19245TIP3   OH279149   5.195   0.005  11.529 -0.5832 -0.1141  0.3767
19245TIP3    H179150   5.149   0.081  11.493 -1.3274 -0.0769  1.3634
19245TIP3    H279151   5.147  -0.070  11.495 -0.2665 -0.1359 -0.0376
19246TIP3   OH279152   0.735   3.957  11.426  0.4983  0.0566  0.0610
19246TIP3    H179153   0.781   4.039  11.447 -0.4836  0.2771  1.4967
19246TIP3    H279154   0.718   3.963  11.332 -0.7996  2.2154  0.3521
19247TIP3   OH279155   0.184   6.602   0.907 -0.6657  0.2856 -0.6776
19247TIP3    H179156   0.181   6.561   0.820 -0.6040  1.6848 -1.3702
19247TIP3    H279157   0.107   6.568   0.952  0.1040 -1.6470 -0.6912
19248TIP3   OH279158   3.591   6.563  10.944  0.0210  0.3308  0.2517
19248TIP3    H179159   3.596   6.592  11.034 -0.2447  0.0631  0.3555
19248TIP3    H279160   3.512   6.604  10.909 -1.4001 -1.6825  0.9374
19249TIP3   OH279161   5.449   3.101  15.471 -0.6575 -0.3286 -0.5910
19249TIP3    H179162   5.381   3.040  15.500 -0.0904  0.1356  1.9721
19249TIP3    H279163   5.523   3.083  15.529  0.8475  0.3470 -2.1940
19250TIP3   OH279164   0.924   2.565  15.423 -0.4648 -0.1796  0.3462
19250TIP3    H179165   1.017   2.586  15.422 -0.6328  0.8955 -2.6026
19250TIP3    H279166   0.913   2.508  15.500  2.5053 -0.0320  1.0066
19251TIP3   OH279167   6.219   0.452  17.172  0.0253 -0.2588 -0.2309
19251TIP3    H179168   6.158   0.390  17.131 -3.3161  1.5660  1.5338
19251TIP3    H279169   6.226   0.422  17.263  1.3016 -0.0723 -0.2508
19252TIP3   OH279170   0.574   3.587  13.736 -0.4262 -0.1130  0.3945
19252TIP3    H179171   0.552   3.626  13.820 -2.1554  0.2879 -0.2125
19252TIP3    H279172   0.572   3.492  13.752 -0.5131 -0.0327  0.8544
19253TIP3   OH279173   4.168   3.017  14.744 -0.3029 -0.1172  0.2565
19253TIP3    H179174   4.243   2.998  14.801  1.3698 -0.3644 -1.8694
19253TIP3    H279175   4.184   3.106  14.713 -0.9920 -0.1040 -0.0684
19254TIP3   OH279176   5.123   2.709  16.510  0.5557 -0.1816 -0.2434
19254TIP3    H179177   5.189   2.658  16.558  1.0226  0.9320  0.3496
19254TIP3    H279178   5.039   2.677  16.544  0.8607 -0.0218  0.6997
19255TIP3   OH279179   0.022   2.501  11.288 -0.2247 -0.4800 -0.0420
19255TIP3    H179180   0.096   2.561  11.291 -1.5166  1.1638  1.9799
19255TIP3    H279181   0.051   2.424  11.338  0.4829 -0.3673 -0.2668
19256TIP3   OH279182   1.354   5.966   3.943  0.0323  1.0132 -0.3537
19256TIP3    H179183   1.349   5.947   4.036  0.3501 -0.3675 -0.5994
19256TIP3    H279184   1.300   5.898   3.902  1.8184  0.1367 -1.3346
19257TIP3   OH279185   2.129   3.731   0.093 -0.2638 -0.2817 -0.0723
19257TIP3    H179186   2.156   3.642   0.071 -0.6215 -0.3530 -0.2290
19257TIP3    H279187   2.140   3.736   0.188 -0.2434 -0.4940 -0.0619
19258TIP3   OH279188   0.716   3.925  12.671 -0.2273  0.3880  0.3951
19258TIP3    H179189   0.746   4.014  12.652 -0.2441  0.2060 -0.5256
19258TIP3    H279190   0.630   3.936  12.709 -1.0916  0.7019 -1.5263
19259TIP3   OH279191   2.214   5.116   4.087  0.4264  0.3565 -0.3191
19259TIP3    H179192   2.279   5.088   4.023 -0.1918 -0.6725 -0.5162
19259TIP3    H279193   2.265   5.163   4.153  1.2469  0.3200 -0.9046
19260TIP3   OH279194   1.183   0.930   2.390 -0.3069 -0.3620 -0.5126
19260TIP3    H179195   1.190   1.017   2.351  0.7530 -0.3283 -0.2543
19260TIP3    H279196   1.181   0.946   2.484  0.6177 -0.6609 -0.4388
19261TIP3   OH279197   1.394   4.838  14.679 -0.0536 -0.3006 -0.0431
19261TIP3    H179198   1.435   4.755  14.703  0.0221 -0.1432  0.3752
19261TIP3    H279199   1.384   4.833  14.584  1.5491 -0.0570 -0.2509
19262TIP3   OH279200   0.634   6.173   5.786 -0.3640 -0.0938  0.2501
19262TIP3    H179201   0.667   6.261   5.767 -0.3482 -0.1443  0.0415
19262TIP3    H279202   0.692   6.115   5.737 -0.1238 -0.2443  0.7153
19263TIP3   OH279203   1.254   2.626   2.356  0.3767 -0.3270  0.3378
19263TIP3    H179204   1.248   2.710   2.402 -1.4206  0.4557 -1.1839
19263TIP3    H279205   1.250   2.649   2.264 -1.5785 -2.1324 -0.1083
19264TIP3   OH279206   4.638   1.239  11.251 -0.2303 -0.2825  0.5984
19264TIP3    H179207   4.547   1.227  11.224  0.2116 -0.6417 -0.8226
19264TIP3    H279208   4.684   1.263  11.171  1.1311 -1.1973  1.0640
19265TIP3   OH279209   2.365   5.608  11.209 -0.5005 -0.0436 -0.0067
19265TIP3    H179210   2.401   5.578  11.126 -1.7004  0.0016 -0.5660
19265TIP3    H279211   2.375   5.704  11.206  1.4827 -0.1781  0.8991
19266TIP3   OH279212   0.443   6.598  12.177  0.1359  0.2259  0.0709
19266TIP3    H179213   0.456   6.692  12.172 -0.4581  0.3879  1.2636
19266TIP3    H279214   0.457   6.567  12.087  0.8943  1.3612 -0.2221
19267TIP3   OH279215   5.107   4.832   3.685  0.2623 -0.2930  0.8307
19267TIP3    H179216   5.191   4.847   3.727  0.0557  0.8418  0.8653
19267TIP3    H279217   5.080   4.745   3.715  2.1734 -1.4118 -0.4849
19268TIP3   OH279218   5.841   4.109   2.638 -0.0280  0.7251  0.3263
19268TIP3    H179219   5.754   4.073   2.620  0.9619 -1.8180  0.2044
19268TIP3    H279220   5.845   4.117   2.733 -0.2420  0.3961  0.3641
19269TIP3   OH279221   5.786   6.309   6.676 -0.0560 -0.6395  0.1338
19269TIP3    H179222   5.848   6.292   6.747 -1.4727 -2.3730  1.0463
19269TIP3    H279223   5.836   6.359   6.611  2.4405 -2.4036  0.5730
19270TIP3   OH279224   6.179   2.513   6.082  0.2248 -0.4899  0.3943
19270TIP3    H179225   6.138   2.593   6.115 -2.1105 -0.9717 -1.0669
19270TIP3    H279226   6.143   2.502   5.994  1.3933 -2.5376  0.0867
19271TIP3   OH279227   1.402   3.489  11.995 -0.1779  0.2882  0.8610
19271TIP3    H179228   1.475   3.452  12.044 -1.0159 -1.2337  1.0125
19271TIP3    H279229   1.440   3.514  11.910  0.3071 -1.5098  0.5186
19272TIP3   OH279230   3.532   4.145   1.816 -0.2274  0.6064  0.6130
19272TIP3    H179231   3.577   4.111   1.739 -0.6872 -1.5480  1.2085
19272TIP3    H279232   3.599   4.193   1.864  0.9542 -0.8329  0.4777
19273TIP3   OH279233   4.325   6.112   0.537  0.0208 -0.9166  0.3643
19273TIP3    H179234   4.231   6.101   0.546  0.0837 -0.7096  1.4429
19273TIP3    H279235   4.354   6.036   0.487 -1.1469  0.7088 -3.1087
19274TIP3   OH279236   2.861   4.974   3.845  0.7867 -0.3870 -0.4670
19274TIP3    H179237   2.783   5.029   3.851  0.4756 -0.9117  0.5971
19274TIP3    H279238   2.829   4.888   3.818  0.5326 -1.3924  2.6090
19275TIP3   OH279239   2.294   4.354   1.447  0.4789  0.5200  0.4651
19275TIP3    H179240   2.204   4.382   1.462 -0.0029 -0.3614 -0.5707
19275TIP3    H279241   2.346   4.434   1.452 -0.6806  1.4318 -1.2145
19276TIP3   OH279242   1.606   4.324  14.277 -0.4355 -0.5254 -0.3659
19276TIP3    H179243   1.624   4.390  14.209 -1.6695 -1.2937 -1.4930
19276TIP3    H279244   1.518   4.291  14.256  0.3573 -2.9437 -0.2025
19277TIP3   OH279245   4.801   3.967  11.517  0.5661 -0.0310  0.4472
19277TIP3    H179246   4.709   3.963  11.542  0.6592 -0.0342  0.8007
19277TIP3    H279247   4.845   3.906  11.576  0.7350 -0.3506 -0.0062
19278TIP3   OH279248   0.500   6.603  15.245 -0.3571 -0.6136  0.4621
19278TIP3    H179249   0.580   6.572  15.203  0.0354 -0.4624  1.0907
19278TIP3    H279250   0.492   6.695  15.219 -0.0182 -0.4705  0.8622
19279TIP3   OH279251   1.739   3.461   5.932 -0.2407 -0.2181  0.4627
19279TIP3    H179252   1.799   3.473   5.858 -0.9315 -0.4590 -0.1485
19279TIP3    H279253   1.794   3.426   6.002  0.2958 -0.6257 -0.1506
19280TIP3   OH279254   1.074   4.054   2.394  0.0441 -0.0833 -0.3215
19280TIP3    H179255   1.101   4.142   2.420  0.8500 -0.1974 -0.7210
19280TIP3    H279256   1.034   4.065   2.308 -3.3106  0.4022  1.1597
19281TIP3   OH279257   0.610   6.565   1.616 -0.1794  0.0624  0.7780
19281TIP3    H179258   0.545   6.570   1.546 -2.1816 -0.5179  2.4961
19281TIP3    H279259   0.586   6.636   1.676 -0.4565 -1.3234  2.3752
19282TIP3   OH279260   3.091   2.246   5.370  0.1709  0.1425 -0.1406
19282TIP3    H179261   3.069   2.222   5.280 -0.8330 -0.4932  0.2698
19282TIP3    H279262   3.179   2.212   5.383 -1.2881 -3.8368  0.5440
19283TIP3   OH279263   1.349   0.358   6.305 -0.0860 -0.3966  0.1074
19283TIP3    H179264   1.306   0.274   6.312 -0.5076 -0.1731  0.2081
19283TIP3    H279265   1.323   0.406   6.383 -1.1935  0.4323 -0.7319
19284TIP3   OH279266   6.247   0.027   1.206 -0.6324  0.3318 -0.1202
19284TIP3    H179267   6.229   0.094   1.140  0.7247  0.6815 -0.1497
19284TIP3    H279268   6.291  -0.043   1.158 -2.7455 -0.9975 -0.2555
19285TIP3   OH279269   1.106   5.661   2.677 -0.2197  0.3156 -0.3269
19285TIP3    H179270   1.043   5.733   2.679 -0.1988  0.3595 -0.9331
19285TIP3    H279271   1.052   5.583   2.658 -0.2346  0.1784  0.2632
19286TIP3   OH279272   2.977   2.742   4.848 -0.1395 -0.2226 -0.4131
19286TIP3    H179273   2.971   2.825   4.894  2.5224 -0.6793  0.9861
19286TIP3    H279274   2.990   2.766   4.756 -0.1656  0.8822 -0.1411
19287TIP3   OH279275   3.940   5.907  12.679 -0.3337 -0.2364  0.6469
19287TIP3    H179276   3.938   5.980  12.742  1.0955 -1.0037  1.6441
19287TIP3    H279277   3.985   5.837  12.726  0.7206 -0.8628 -1.2167
19288TIP3   OH279278   1.128   1.941  16.557 -0.8211  0.1028 -0.0317
19288TIP3    H179279   1.096   1.992  16.631 -0.0619 -0.1621  0.4883
19288TIP3    H279280   1.089   1.854  16.569 -1.8482  0.4449 -0.7399
19289TIP3   OH279281   1.375   1.463  15.125  0.2236  0.7048 -1.1288
19289TIP3    H179282   1.405   1.535  15.181  0.5190  0.1824 -0.6006
19289TIP3    H279283   1.304   1.500  15.073  0.0772  1.2549 -0.5452
19290TIP3   OH279284   0.049   5.216  15.889 -0.0468 -0.1483  0.1235
19290TIP3    H179285  -0.001   5.285  15.844  1.3537  0.8472 -0.0020
19290TIP3    H279286   0.114   5.189  15.824  1.3064  0.5296  1.1605
19291TIP3   OH279287   5.116   6.576   5.472  0.2022  0.4218  0.0421
19291TIP3    H179288   5.096   6.546   5.561 -1.5675 -0.5198 -0.6072
19291TIP3    H279289   5.049   6.534   5.418 -0.4306  3.0722 -1.3852
19292TIP3   OH279290   5.232   4.108   0.112 -0.5501  0.2616 -0.1685
19292TIP3    H179291   5.151   4.097   0.161 -1.1069 -0.7049 -1.2390
19292TIP3    H279292   5.203   4.126   0.022  0.4265  0.9534 -0.3549
19293TIP3   OH279293   1.359   5.534  11.849 -0.4036 -0.1624 -0.2044
19293TIP3    H179294   1.364   5.507  11.758  0.4469  0.5387 -0.3745
19293TIP3    H279295   1.429   5.485  11.892 -0.1550  0.2558 -0.1278
19294TIP3   OH279296   4.474   1.126  16.406 -0.8465  0.1986  0.5179
19294TIP3    H179297   4.434   1.192  16.349 -1.0637  0.3723  0.8699
19294TIP3    H279298   4.402   1.068  16.429 -0.3945 -1.0053 -0.9285
19295TIP3   OH279299   1.346   4.559  13.695 -0.0206  0.4320 -0.0391
19295TIP3    H179300   1.348   4.645  13.652 -1.4144 -0.9195 -3.1432
19295TIP3    H279301   1.267   4.561  13.749 -0.7879  0.6909 -1.1347
19296TIP3   OH279302   3.177   1.881  16.342 -0.0019  0.4246  0.0113
19296TIP3    H179303   3.231   1.955  16.316 -0.2063  0.0845 -1.4569
19296TIP3    H279304   3.229   1.804  16.321 -0.6064  0.1158 -0.3892
19297TIP3   OH279305   4.025   5.280   1.305 -0.3001  0.7260 -0.4869
19297TIP3    H179306   3.954   5.260   1.244 -2.2109 -0.4088  1.9435
19297TIP3    H279307   3.994   5.249   1.390  3.2362 -0.0811  0.6906
19298TIP3   OH279308   4.465   3.046  12.888  0.4585  0.6847 -0.0683
19298TIP3    H179309   4.560   3.040  12.872  0.1740 -0.4772 -1.5105
19298TIP3    H279310   4.428   3.076  12.806 -0.6796 -1.5711 -0.4695
19299TIP3   OH279311   5.880   5.080   4.733 -0.0627  0.5261  0.2958
19299TIP3    H179312   5.871   5.055   4.824 -0.5204  0.1198  0.1393
19299TIP3    H279313   5.974   5.073   4.716 -0.0355  0.1282  0.5981
19300TIP3   OH279314   1.909   5.689  13.740  0.1431 -0.0287  0.1200
19300TIP3    H179315   1.961   5.733  13.808  1.1991 -2.6107  1.1243
19300TIP3    H279316   1.969   5.680  13.666 -0.7121  1.9225 -0.8830
19301TIP3   OH279317   5.108   1.577  14.235 -0.5005 -0.0430 -0.8231
19301TIP3    H179318   5.170   1.558  14.305 -0.9829 -2.0418 -0.8705
19301TIP3    H279319   5.049   1.642  14.272 -0.0679 -0.2335  0.2290
19302TIP3   OH279320   5.793   3.480   5.170  0.1729 -0.3863  0.0552
19302TIP3    H179321   5.784   3.394   5.130  0.6923 -0.0761 -0.7546
19302TIP3    H279322   5.801   3.462   5.264 -2.6824 -1.0337  0.2713
19303TIP3   OH279323   1.359   0.318   6.017  0.6567  0.4768 -1.0577
19303TIP3    H179324   1.274   0.278   5.996  1.0890 -0.9319 -0.2308
19303TIP3    H279325   1.356   0.331   6.111  1.0327  1.2280 -1.1491
19304TIP3   OH279326   2.037   0.006   0.876  0.1653 -0.7328  0.2326
19304TIP3    H179327   2.022  -0.057   0.947 -0.1108 -0.6704  0.2318
19304TIP3    H279328   1.988  -0.029   0.802 -0.0753 -0.4663  0.2620
19305TIP3   OH279329   3.698   2.543   0.483 -0.1393 -0.0862  0.7444
19305TIP3    H179330   3.696   2.579   0.571 -0.2152 -1.4509  1.3161
19305TIP3    H279331   3.614   2.499   0.472  0.0644 -0.3500  0.1770
19306TIP3   OH279332   5.229   2.956   5.564  0.2335 -0.2251  0.1758
19306TIP3    H179333   5.265   3.040   5.593 -0.7874  0.4384 -0.4142
19306TIP3    H279334   5.185   2.976   5.481  0.4818 -1.4652 -0.2785
19307TIP3   OH279335   1.393   6.397  16.102 -0.1522 -0.5858 -0.4208
19307TIP3    H179336   1.463   6.441  16.053  0.2065 -1.5140 -0.7770
19307TIP3    H279337   1.345   6.349  16.035 -0.2475 -1.1022  0.0169
19308TIP3   OH279338   5.224   5.838  15.489 -0.6842  0.2026  0.0892
19308TIP3    H179339   5.227   5.795  15.574  1.1620  0.9384  0.4387
19308TIP3    H279340   5.315   5.859  15.469 -1.2957  2.0393 -1.0347
19309TIP3   OH279341   0.493   3.838  15.450 -0.2882 -0.2499 -0.0648
19309TIP3    H179342   0.553   3.777  15.405 -1.2689 -1.7378  0.5886
19309TIP3    H279343   0.519   3.833  15.542  0.5696  1.4749 -0.1694
19310TIP3   OH279344   3.599   5.830   3.630 -0.2105 -0.2314 -0.4420
19310TIP3    H179345   3.637   5.917   3.618 -0.5325  0.1159  0.9289
19310TIP3    H279346   3.635   5.778   3.558  1.1357  0.6460 -0.4369
19311TIP3   OH279347   0.117   0.888   4.030  0.1277 -0.3311 -0.0163
19311TIP3    H179348   0.126   0.981   4.008 -1.7473  0.2398  1.3888
19311TIP3    H279349   0.191   0.846   3.986  1.0870  1.8290 -0.6138
19312TIP3   OH279350   4.287   3.184   3.274  0.0171 -0.4071 -0.0993
19312TIP3    H179351   4.260   3.100   3.311  0.3786  0.0815  1.3462
19312TIP3    H279352   4.375   3.199   3.310 -1.5070  2.3965  2.9841
19313TIP3   OH279353   2.562   1.435  16.253 -0.2409  0.0075 -0.6973
19313TIP3    H179354   2.508   1.426  16.332  2.0405  1.3210  1.1276
19313TIP3    H279355   2.560   1.348  16.213 -2.1913 -0.4501  0.2849
19314TIP3   OH279356   2.086   4.981   1.064 -0.4711 -0.5794 -0.0674
19314TIP3    H179357   2.025   4.912   1.089 -1.9946  1.4715  2.2906
19314TIP3    H279358   2.168   4.958   1.107 -0.5972 -1.5262 -0.3217
19315TIP3   OH279359   6.461   3.789   4.752  0.1091  0.2629  0.8186
19315TIP3    H179360   6.452   3.833   4.836 -1.7244 -0.9817  1.3195
19315TIP3    H279361   6.386   3.820   4.701  0.2615 -0.2983  0.2442
19316TIP3   OH279362   0.565   0.161   4.571 -0.1346  0.6645  0.3377
19316TIP3    H179363   0.521   0.144   4.655  2.0883 -1.4719  1.1784
19316TIP3    H279364   0.650   0.198   4.596  0.8941 -0.7759 -0.9159
19317TIP3   OH279365   2.657   1.734  16.727  0.6507  0.0681 -0.2806
19317TIP3    H179366   2.708   1.756  16.649 -1.6014 -1.9306 -2.4966
19317TIP3    H279367   2.705   1.775  16.799  4.5447 -0.4502 -2.2905
19318TIP3   OH279368   5.367   4.263  11.529  0.0849 -0.4259  0.0536
19318TIP3    H179369   5.328   4.320  11.596 -0.4490 -0.6637 -0.0525
19318TIP3    H279370   5.461   4.281  11.535  0.0923 -0.7261  1.1443
19319TIP3   OH279371   1.109   4.456   0.450 -0.2090 -0.0329 -0.1157
19319TIP3    H179372   1.087   4.388   0.386 -0.5764 -1.8694  1.8748
19319TIP3    H279373   1.064   4.430   0.530  0.5055  2.0166  1.0274
19320TIP3   OH279374   4.196   1.004   4.258  0.3192  0.2179 -0.3686
19320TIP3    H179375   4.192   1.095   4.230 -2.3631  0.1704 -0.4315
19320TIP3    H279376   4.176   1.006   4.352 -0.1788 -0.3162 -0.4548
19321TIP3   OH279377   1.238   2.581   4.419  0.2652  0.9816 -0.1119
19321TIP3    H179378   1.330   2.562   4.440 -0.3723 -2.4793  0.1168
19321TIP3    H279379   1.242   2.657   4.360  3.5674 -0.9416 -2.7108
19322TIP3   OH279380   4.945   1.720   0.817 -0.2559  0.2665 -0.2215
19322TIP3    H179381   4.981   1.723   0.729  1.2611  0.0884  0.3511
19322TIP3    H279382   5.019   1.692   0.872 -0.8862  1.2987  1.2242
19323TIP3   OH279383   0.169   3.154   0.935 -0.1458 -0.4266  0.2388
19323TIP3    H179384   0.264   3.148   0.943  0.0043  0.7509 -0.4976
19323TIP3    H279385   0.154   3.221   0.869 -1.4773 -1.8848 -1.0178
19324TIP3   OH279386   1.004   5.643  13.435 -0.3191 -0.1653  0.8510
19324TIP3    H179387   0.989   5.548  13.426 -0.4050 -0.0111 -1.0491
19324TIP3    H279388   1.073   5.662  13.371  0.2100  0.9562  1.7322
19325TIP3   OH279389   5.527   2.805   3.721  0.0941 -0.0329  0.6364
19325TIP3    H179390   5.480   2.731   3.759  0.0572  0.0381  0.7314
19325TIP3    H279391   5.496   2.881   3.772  1.3244 -0.1625  1.6234
19326TIP3   OH279392   4.024   4.784  17.002  1.0541 -0.5716 -0.1146
19326TIP3    H179393   4.081   4.837  16.946 -0.0670 -0.5696 -1.2770
19326TIP3    H279394   3.955   4.843  17.030  1.2965 -0.7219  0.8379
19327TIP3   OH279395   6.486   0.270   4.747  0.4720  0.4299  0.0696
19327TIP3    H179396   6.524   0.235   4.666  3.2330  1.3900  0.8267
19327TIP3    H279397   6.495   0.198   4.810 -0.2194  0.2191 -0.0647
19328TIP3   OH279398   5.253   5.685  11.797  0.1994  0.1171  0.3361
19328TIP3    H179399   5.315   5.613  11.812 -0.8665 -0.8478  0.2877
19328TIP3    H279400   5.201   5.657  11.721 -1.3951  0.1035  1.3741
19329TIP3   OH279401   5.456   0.885  15.755  0.4844  0.2185 -0.4357
19329TIP3    H179402   5.516   0.810  15.750  1.0137  0.3171  2.3703
19329TIP3    H279403   5.409   0.871  15.837 -0.5038  2.1903 -0.6128
19330TIP3   OH279404   0.970   1.131  17.096  0.1419 -0.5776  0.0013
19330TIP3    H179405   0.932   1.204  17.146  1.5586  0.2574 -0.1059
19330TIP3    H279406   1.042   1.170  17.047  1.5377 -2.2173  0.6375
19331TIP3   OH279407   1.921   1.235   5.534 -0.1106 -0.4107  0.0557
19331TIP3    H179408   1.860   1.171   5.497  0.6140 -0.9563 -0.2067
19331TIP3    H279409   2.005   1.215   5.493 -0.1338  1.5470 -1.0389
19332TIP3   OH279410   2.868   6.035  17.278  0.0167  0.1812 -0.4508
19332TIP3    H179411   2.808   5.962  17.261 -0.9291  0.7065  0.5263
19332TIP3    H279412   2.863   6.089  17.199 -0.3625 -0.0695 -0.6031
19333TIP3   OH279413   2.561   6.247   6.135 -0.1638 -0.2612 -0.0367
19333TIP3    H179414   2.583   6.304   6.208 -0.8533  1.5333 -1.1773
19333TIP3    H279415   2.609   6.166   6.153  1.4954  0.9393  1.2267
19334TIP3   OH279416   1.364   2.026   2.337  0.0157 -0.3284  0.3206
19334TIP3    H179417   1.332   1.946   2.296  0.5163 -0.2935 -0.1642
19334TIP3    H279418   1.349   2.094   2.271 -0.0575 -0.0929  0.5794
19335TIP3   OH279419   1.299   4.840   0.926  0.1489 -0.2109  0.0354
19335TIP3    H179420   1.334   4.926   0.903  1.3372 -0.8246 -0.5578
19335TIP3    H279421   1.234   4.857   0.993  1.8548  0.9845  1.4818
19336TIP3   OH279422   1.825   6.655   6.060 -0.6048  0.0215 -0.3656
19336TIP3    H179423   1.899   6.662   6.120 -0.4442  0.2991 -0.5929
19336TIP3    H279424   1.754   6.702   6.104 -0.9218 -1.0052  0.2638
19337TIP3   OH279425   2.195   2.583  17.304 -0.5986  0.1535  0.1614
19337TIP3    H179426   2.142   2.537  17.238 -1.0153  0.3936  0.3257
19337TIP3    H279427   2.256   2.636  17.252  0.8401 -1.6040 -0.0597
19338TIP3   OH279428   3.363   5.131   0.318 -0.1305  0.5745 -0.0813
19338TIP3    H179429   3.339   5.042   0.341  2.3583 -0.6384 -1.7765
19338TIP3    H279430   3.303   5.156   0.249 -0.2347 -0.1540 -0.2565
19339TIP3   OH279431   0.365   6.716  16.478  1.0797  0.0273 -0.1921
19339TIP3    H179432   0.353   6.734  16.572  1.7065  0.8886 -0.2632
19339TIP3    H279433   0.337   6.625  16.467 -0.4288  0.3577  0.5638
19340TIP3   OH279434   2.068   0.807  10.809  0.0712 -0.3776 -0.0653
19340TIP3    H179435   2.099   0.740  10.749  1.2022 -0.5829  0.7015
19340TIP3    H279436   2.056   0.885  10.755  0.5051 -0.7145 -0.6533
19341TIP3   OH279437   0.859   1.545  16.913  0.3553 -0.6197 -0.2457
19341TIP3    H179438   0.871   1.617  16.974 -0.0542 -1.8791  1.3872
19341TIP3    H279439   0.772   1.559  16.875 -0.6059 -1.2662  1.5673
19342TIP3   OH279440   0.922   1.784   2.982 -0.6066 -0.3445  0.1991
19342TIP3    H179441   0.848   1.745   3.030 -0.7106 -0.0333  0.2964
19342TIP3    H279442   0.953   1.714   2.925 -1.1037 -0.4208  0.0135
19343TIP3   OH279443   3.969   6.537  16.863 -0.1544 -0.4285  0.5084
19343TIP3    H179444   4.002   6.603  16.924 -2.9360  0.5700  1.0898
19343TIP3    H279445   4.047   6.495  16.828  1.7370  2.7657  0.5321
19344TIP3   OH279446   5.594   2.745   2.460  0.0587 -0.0995  0.4273
19344TIP3    H179447   5.503   2.736   2.431  0.2447  2.1926 -1.1895
19344TIP3    H279448   5.637   2.664   2.432 -1.2971 -0.8962  0.5598
19345TIP3   OH279449   4.592   6.690   0.539 -0.5753 -0.9852  0.2316
19345TIP3    H179450   4.558   6.779   0.524 -2.2043 -1.4962  0.7434
19345TIP3    H279451   4.686   6.698   0.521 -0.4543  1.1262  1.4075
19346TIP3   OH279452   1.407   2.877  17.056  0.3782 -0.5718 -0.2602
19346TIP3    H179453   1.351   2.954  17.064  0.8951 -0.0787 -1.1676
19346TIP3    H279454   1.478   2.891  17.119  2.0195  1.1225 -2.3179
19347TIP3   OH279455   6.012   4.176  16.832  0.8658 -0.0343 -0.3809
19347TIP3    H179456   6.033   4.083  16.834 -0.1483 -0.2954 -1.2471
19347TIP3    H279457   6.040   4.205  16.745  0.7715  0.3797 -0.2771
19348TIP3   OH279458   1.193   0.020   3.232 -0.0238 -0.0913 -0.8787
19348TIP3    H179459   1.243   0.005   3.312 -0.8524 -0.1592 -0.3580
19348TIP3    H279460   1.143  -0.061   3.220  1.9860 -1.1393 -2.9139
19349TIP3   OH279461   1.839   0.745  16.924 -0.3527  0.6442 -0.0798
19349TIP3    H179462   1.749   0.717  16.904 -0.8320  1.5853  0.6975
19349TIP3    H279463   1.873   0.675  16.980 -0.4911  0.1379 -0.6141
19350TIP3   OH279464   5.494   1.336   1.820 -0.2963  0.1348 -0.1909
19350TIP3    H179465   5.557   1.376   1.760  0.3558 -0.4462  0.0772
19350TIP3    H279466   5.411   1.377   1.799 -0.1764 -0.3609 -1.8021
19351TIP3   OH279467   4.553   3.745  13.529  0.2815 -0.0783 -0.5703
19351TIP3    H179468   4.481   3.805  13.511 -0.9696 -1.3596 -0.0115
19351TIP3    H279469   4.545   3.726  13.623  2.3353  0.9738 -0.1131
19352TIP3   OH279470   5.714   1.577  14.437 -0.0500 -0.1192 -0.4139
19352TIP3    H179471   5.778   1.637  14.474  0.7524 -1.9381  1.3090
19352TIP3    H279472   5.749   1.490  14.455 -2.2537 -1.1601 -0.8024
19353TIP3   OH279473   3.615   2.256  13.819 -0.5619  0.3301  0.3577
19353TIP3    H179474   3.577   2.260  13.731 -0.8371 -1.2774  0.3782
19353TIP3    H279475   3.672   2.179  13.817  3.1418  2.8090  0.2094
19354TIP3   OH279476   4.419   0.821   1.757  0.0719  0.1822  0.3709
19354TIP3    H179477   4.484   0.876   1.714 -0.2988  0.6203  0.3612
19354TIP3    H279478   4.449   0.732   1.742 -0.7463  0.2474 -1.9175
19355TIP3   OH279479   1.658   3.573   5.586 -0.3901  0.4295  0.3581
19355TIP3    H179480   1.581   3.550   5.638 -0.5322 -0.4787 -0.2369
19355TIP3    H279481   1.729   3.576   5.650 -0.3187 -1.9040  0.4768
19356TIP3   OH279482   6.503   3.929   5.003  0.1509 -0.0710  0.2118
19356TIP3    H179483   6.509   3.999   4.937 -2.2065  0.3436  0.3369
19356TIP3    H279484   6.524   3.973   5.086  0.1192  0.1416  0.1094
19357TIP3   OH279485   0.683   5.423   4.623  0.8291 -0.0236 -0.0306
19357TIP3    H179486   0.662   5.353   4.561 -0.7174 -0.6382  1.1100
19357TIP3    H279487   0.622   5.410   4.695  0.0098  2.8979 -0.0451
19358TIP3   OH279488   3.338   1.611  13.865  0.2469 -0.1127  0.1434
19358TIP3    H179489   3.250   1.586  13.891  0.5142 -0.9483  0.2760
19358TIP3    H279490   3.333   1.623  13.770 -0.4258  1.6681  0.3729
19359TIP3   OH279491   0.343   0.709  14.391  0.1567  0.4226 -0.2342
19359TIP3    H179492   0.333   0.786  14.447 -0.0428  1.0979 -1.1656
19359TIP3    H279493   0.383   0.643  14.447 -0.3316  0.9735  0.7799
19360TIP3   OH279494   5.976   3.449   3.053  0.1534 -0.4747 -0.5026
19360TIP3    H179495   5.963   3.356   3.068  1.1473 -0.5668 -0.1604
19360TIP3    H279496   5.989   3.458   2.959 -0.9330 -0.5429 -0.6751
19361TIP3   OH279497   6.091   6.525   5.480  0.3446  0.3343  0.0487
19361TIP3    H179498   6.039   6.510   5.402 -1.0719  1.2578  0.7736
19361TIP3    H279499   6.069   6.452   5.538 -0.3402  0.8436  0.4420
19362TIP3   OH279500   1.903   4.142   5.678  0.0341  0.7642  0.1985
19362TIP3    H179501   1.945   4.105   5.601  0.0157  0.4746  0.3289
19362TIP3    H279502   1.818   4.174   5.646 -0.1592  0.2455  0.1923
19363TIP3   OH279503   2.998   0.100   6.804  0.4212  0.4256  0.4315
19363TIP3    H179504   3.031   0.083   6.892  0.2846 -0.0173  0.3988
19363TIP3    H279505   2.938   0.028   6.786 -0.2521  1.0088  0.3275
19364TIP3   OH279506   6.655   1.036   0.050  0.3356  0.1992 -0.0340
19364TIP3    H179507   6.600   0.958   0.048  0.0053  0.4144  0.5080
19364TIP3    H279508   6.627   1.084   0.127 -0.4983  1.6167 -1.1575
19365TIP3   OH279509   2.743   4.672  16.180 -0.2901  0.1420  0.3607
19365TIP3    H179510   2.817   4.678  16.120 -0.9408  0.2854 -0.4429
19365TIP3    H279511   2.723   4.578  16.183  1.4273 -0.2344  2.4817
19366TIP3   OH279512   5.002   2.863   4.108 -0.0624 -0.0844  0.2395
19366TIP3    H179513   5.051   2.943   4.087 -0.2148  0.4917  1.8623
19366TIP3    H279514   4.985   2.822   4.024  0.6860  1.2129 -0.5829
19367TIP3   OH279515   5.262   2.128  13.883  0.3219  0.2489 -0.3757
19367TIP3    H179516   5.339   2.159  13.931  0.3469  0.5644 -0.6130
19367TIP3    H279517   5.292   2.118  13.793  0.2564 -0.2679 -0.3428
19368TIP3   OH279518   6.465   0.925   2.396 -0.0049  0.1375  0.3040
19368TIP3    H179519   6.377   0.949   2.426 -0.7661 -0.1411 -1.5581
19368TIP3    H279520   6.514   1.007   2.395 -0.6752  0.5443  0.0216
19369TIP3   OH279521   1.112   4.516  16.636 -0.5838 -0.1199 -0.2454
19369TIP3    H179522   1.071   4.446  16.585  0.1613 -1.7856  1.3462
19369TIP3    H279523   1.204   4.512  16.612 -0.5034  0.1844  0.0093
19370TIP3   OH279524   5.487   2.407  11.752  0.3369  0.1309  0.1015
19370TIP3    H179525   5.432   2.430  11.677 -1.5896  1.9940  1.9271
19370TIP3    H279526   5.558   2.470  11.750 -0.8598  1.5748  0.9209
19371TIP3   OH279527   1.472   4.671   2.469  0.2669 -0.1555  0.2524
19371TIP3    H179528   1.540   4.732   2.440  0.0852  0.3226  0.8171
19371TIP3    H279529   1.501   4.642   2.555 -0.2305  0.0229  0.4788
19372TIP3   OH279530   5.470   6.574   0.344 -0.7002  0.5080 -0.1119
19372TIP3    H179531   5.455   6.613   0.430  1.1358 -3.9137  2.5470
19372TIP3    H279532   5.399   6.510   0.335  0.1894 -0.3815 -0.9822
19373TIP3   OH279533   1.242   1.148   5.936 -0.0059 -0.2108 -0.2526
19373TIP3    H179534   1.290   1.178   6.013 -0.8891 -0.4381  0.4016
19373TIP3    H279535   1.304   1.091   5.890  1.6669  2.4081 -1.4541
19374TIP3   OH279536   1.970   6.019  16.468 -0.6475  0.3468  0.6547
19374TIP3    H179537   1.939   6.087  16.409  0.9221  0.2386 -0.3686
19374TIP3    H279538   2.004   6.066  16.544  0.1718  0.7159  0.0768
19375TIP3   OH279539   1.788   4.156   1.109 -0.4601  0.4784 -0.0093
19375TIP3    H179540   1.813   4.202   1.189  1.9233 -0.1858 -0.2818
19375TIP3    H279541   1.812   4.217   1.038  1.5704 -0.5856 -0.3212
19376TIP3   OH279542   2.803   6.215   3.862  0.0356 -0.5946 -0.2535
19376TIP3    H179543   2.755   6.133   3.873 -0.7275 -0.2743 -1.0808
19376TIP3    H279544   2.770   6.272   3.932  0.0230 -0.7494 -0.1344
19377TIP3   OH279545   5.028   6.028   6.210 -0.0996  0.8704 -0.0628
19377TIP3    H179546   5.027   5.935   6.232  0.3590  1.2313  1.6241
19377TIP3    H279547   4.937   6.056   6.220 -0.3254  0.5165 -1.0456
19378TIP3   OH279548   1.383   3.251   5.640  1.0688  0.7548 -0.2848
19378TIP3    H179549   1.470   3.232   5.604  1.0718  3.5786 -2.1735
19378TIP3    H279550   1.323   3.225   5.571  0.6906  1.6785 -0.3231
19379TIP3   OH279551   5.498   2.983   2.551 -0.6878 -0.1960  0.4160
19379TIP3    H179552   5.556   2.908   2.539  1.7746  0.7755  4.2827
19379TIP3    H279553   5.541   3.054   2.505 -0.0300 -0.0319  1.2482
19380TIP3   OH279554   3.372   6.378  15.191  0.0657  0.0616  0.0439
19380TIP3    H179555   3.411   6.463  15.211 -1.5597  0.9206 -0.2142
19380TIP3    H279556   3.280   6.388  15.215 -0.4344 -1.2006 -1.1739
19381TIP3   OH279557   5.387   5.670  15.128  0.2110  0.2083 -0.5506
19381TIP3    H179558   5.320   5.679  15.196  0.0365  0.1165 -0.7094
19381TIP3    H279559   5.466   5.644  15.176  0.0747  0.0860 -0.3895
19382TIP3   OH279560   2.100   4.601   5.353 -0.0828  0.0887 -0.2718
19382TIP3    H179561   2.046   4.677   5.371  1.1291  0.5216  1.8971
19382TIP3    H279562   2.169   4.633   5.295 -0.6872  0.1513 -0.9588
19383TIP3   OH279563   1.698   3.055   1.099 -0.5530  0.3020  0.2013
19383TIP3    H179564   1.772   3.007   1.137 -0.5658  0.9503  1.0811
19383TIP3    H279565   1.650   2.989   1.048 -0.5330 -0.6183  1.3273
19384TIP3   OH279566   4.873   5.397  16.718 -0.3821 -0.2768  0.2887
19384TIP3    H179567   4.850   5.358  16.802 -0.8062 -0.1159  0.2500
19384TIP3    H279568   4.841   5.335  16.653 -0.5712 -0.1230  0.2359
19385TIP3   OH279569   2.111   5.171  11.564 -0.1210  0.3037  0.6069
19385TIP3    H179570   2.035   5.120  11.590  0.3655 -0.9070 -0.2453
19385TIP3    H279571   2.186   5.122  11.599  0.3783  0.1600 -0.6011
19386TIP3   OH279572   2.166   1.087   5.413  0.3680  0.0151 -0.2984
19386TIP3    H179573   2.103   1.023   5.379 -2.5861  3.0363 -1.0414
19386TIP3    H279574   2.190   1.139   5.336  0.9172  1.2218  0.6684
19387TIP3   OH279575   3.577   6.121   1.133 -0.4096  0.0294  0.4520
19387TIP3    H179576   3.539   6.208   1.144  0.2692  0.4000 -0.0977
19387TIP3    H279577   3.522   6.065   1.188 -3.0133  0.1547 -1.8278
19388TIP3   OH279578   3.867   1.923   4.698 -0.1808 -0.2446 -0.2846
19388TIP3    H179579   3.918   1.994   4.657  0.4748 -0.2104  0.5706
19388TIP3    H279580   3.781   1.962   4.715  0.1363  0.3178  0.0701
19389TIP3   OH279581   1.876   4.532   4.277  0.2215 -0.8082  0.9419
19389TIP3    H179582   1.971   4.518   4.279  0.5859  1.3576  0.8210
19389TIP3    H279583   1.853   4.522   4.184  0.1362 -2.2794  1.0975
19390TIP3   OH279584   0.892   5.145   4.651  0.4492 -0.3453  0.2694
19390TIP3    H179585   0.832   5.109   4.585  0.9321 -1.5878  0.4929
19390TIP3    H279586   0.914   5.232   4.617 -0.3738 -0.4268 -0.5242
19391TIP3   OH279587   3.215   3.202   0.033 -0.3805 -0.5389  0.0400
19391TIP3    H179588   3.224   3.260  -0.042  0.4243  0.3097  0.7622
19391TIP3    H279589   3.224   3.114  -0.004  0.7242 -0.1099 -0.7682
19392TIP3   OH279590   0.988   6.196  16.703  0.2777  0.4222 -0.4489
19392TIP3    H179591   0.927   6.224  16.771 -1.8197 -0.1977 -1.9668
19392TIP3    H279592   1.068   6.244  16.721  0.1477 -0.4547  3.0094
19393TIP3   OH279593   0.637   6.237   2.570  0.2491  0.3044 -0.0023
19393TIP3    H179594   0.624   6.173   2.500  0.7891  0.5350 -0.3236
19393TIP3    H279595   0.555   6.286   2.573 -0.0566 -0.2000  0.0404
19394TIP3   OH279596   3.792   2.310   1.058 -0.2191 -0.2411  0.4428
19394TIP3    H179597   3.753   2.344   1.139 -1.5202 -0.1807 -0.1877
19394TIP3    H279598   3.734   2.341   0.989  0.4977 -0.8736 -0.4599
19395TIP3   OH279599   4.713   1.272  17.189 -0.3568  0.3482 -0.2825
19395TIP3    H179600   4.698   1.350  17.136 -0.3671 -0.7311 -1.9460
19395TIP3    H279601   4.640   1.271  17.252  0.4210  2.3897  0.7317
19396TIP3   OH279602   5.244   5.914   5.408 -0.0226  0.5832 -0.1585
19396TIP3    H179603   5.183   5.984   5.428  0.0351  0.3540  0.8674
19396TIP3    H279604   5.193   5.851   5.357 -0.3970  0.7940 -0.0412
19397TIP3   OH279605   2.412   5.887  12.984  0.3660  0.8443 -0.0254
19397TIP3    H179606   2.337   5.944  13.003 -0.9138 -0.6124 -0.5207
19397TIP3    H279607   2.451   5.924  12.905 -0.9301  0.6034 -0.8063
19398TIP3   OH279608   4.516   3.650   2.198 -0.0380 -0.3011  0.1611
19398TIP3    H179609   4.571   3.578   2.168  0.8332 -0.2037  1.4176
19398TIP3    H279610   4.578   3.715   2.230 -0.8064 -1.0691  3.6592
19399TIP3   OH279611   2.617   5.205  14.306  0.5045  0.5319  0.4011
19399TIP3    H179612   2.704   5.189  14.270  0.7741  1.2435  0.7146
19399TIP3    H279613   2.633   5.221  14.399  0.2764  2.4875  0.1567
19400TIP3   OH279614   5.993   5.057   0.919 -0.0698 -0.7977 -0.0774
19400TIP3    H179615   6.045   5.018   0.849 -0.4283 -1.1067 -0.1794
19400TIP3    H279616   5.980   5.148   0.891  0.0035 -0.8510 -0.2872
19401TIP3   OH279617   4.393   1.696   5.871  0.0175  0.1193 -0.0206
19401TIP3    H179618   4.477   1.742   5.877  0.5183 -0.4515 -1.7717
19401TIP3    H279619   4.414   1.617   5.821 -1.7449  0.4580 -1.3816
19402TIP3   OH279620   4.202   1.523   1.472 -0.3271  0.2085 -0.4069
19402TIP3    H179621   4.224   1.461   1.404  1.4116  1.6362 -1.2314
19402TIP3    H279622   4.274   1.517   1.535 -1.8822 -1.0750  1.3982
19403TIP3   OH279623   1.352   4.144  13.328 -0.1686 -0.0225  0.2826
19403TIP3    H179624   1.358   4.239  13.320  1.1481 -0.0570  0.6342
19403TIP3    H279625   1.318   4.129  13.416 -0.1221  0.1148  0.3236
19404TIP3   OH279626   6.701   6.117   3.177  0.2843  0.1300 -0.5698
19404TIP3    H179627   6.716   6.075   3.092 -0.4714 -1.3144 -0.0224
19404TIP3    H279628   6.668   6.204   3.155 -1.0602 -0.6378 -1.7768
19405TIP3   OH279629   4.544   0.758   5.839 -0.9579  0.0961 -0.7664
19405TIP3    H179630   4.460   0.801   5.821 -1.3771  0.0473  0.9249
19405TIP3    H279631   4.522   0.688   5.900  0.0397 -1.1913 -1.8294
19406TIP3   OH279632   4.095   0.354  15.423  0.4694 -0.0597  0.3770
19406TIP3    H179633   4.166   0.416  15.403  2.1258 -1.3195  2.0605
19406TIP3    H279634   4.048   0.394  15.496  0.0682  0.2877 -0.0645
19407TIP3   OH279635   2.196   0.574  16.543 -0.7802 -0.3044  0.2710
19407TIP3    H179636   2.163   0.618  16.621 -1.9899 -1.3266  0.3901
19407TIP3    H279637   2.193   0.641  16.474  0.8561  0.7669  1.1956
19408TIP3   OH279638   2.716   2.011   4.401  0.1465  0.4482  0.3354
19408TIP3    H179639   2.780   2.082   4.409  0.5544 -0.0839  2.6048
19408TIP3    H279640   2.637   2.044   4.443 -1.1882  1.0942 -2.4422
19409TIP3   OH279641   2.043   2.433   0.777 -1.0469  0.4785  0.6645
19409TIP3    H179642   2.131   2.471   0.773  0.3769 -2.4098  1.6195
19409TIP3    H279643   1.987   2.505   0.807  0.4633  3.0693 -2.1966
19410TIP3   OH279644   3.183   3.881  12.119  0.5038  0.0910  0.4311
19410TIP3    H179645   3.111   3.899  12.058  0.7344 -1.0202 -0.1946
19410TIP3    H279646   3.155   3.922  12.201 -1.2617 -1.0459  0.4659
19411TIP3   OH279647   5.761   3.868  12.486 -0.4363 -0.5785 -0.6826
19411TIP3    H179648   5.712   3.792  12.455  0.3484 -0.2193 -2.9722
19411TIP3    H279649   5.853   3.845  12.471 -0.0448 -0.0997  0.8383
19412TIP3   OH279650   6.433   2.208   2.758 -0.2117  0.1868  0.2719
19412TIP3    H179651   6.383   2.156   2.696  0.4964 -1.3629  0.9414
19412TIP3    H279652   6.524   2.182   2.743  0.2108  1.5277  0.3782
19413TIP3   OH279653   1.825   4.151  14.247 -0.2093 -0.2205 -0.1681
19413TIP3    H179654   1.802   4.068  14.204 -0.1181 -0.2389 -0.1811
19413TIP3    H279655   1.744   4.202  14.245 -0.3645 -0.4451  0.1493
19414TIP3   OH279656   5.871   0.574  14.535  0.3042 -0.4285  0.0251
19414TIP3    H179657   5.790   0.566  14.484  0.2692  3.0914 -0.7521
19414TIP3    H279658   5.844   0.613  14.618  1.1804  1.0008 -0.3308
19415TIP3   OH279659   0.868   3.349   3.055  0.2362  0.0571 -0.5985
19415TIP3    H179660   0.883   3.309   3.140 -0.2157 -0.4185 -0.7381
19415TIP3    H279661   0.774   3.365   3.052  0.3280  0.5847 -0.7875
19416TIP3   OH279662   2.247   1.403   0.153 -0.1617 -0.1678  0.6325
19416TIP3    H179663   2.156   1.378   0.135 -0.9453  1.4142  2.1402
19416TIP3    H279664   2.284   1.422   0.067 -2.4910  3.0776  0.1771
19417TIP3   OH279665   4.825   2.677   5.379 -0.4639  0.0160 -0.0460
19417TIP3    H179666   4.854   2.768   5.389  0.0489 -0.0386 -0.9477
19417TIP3    H279667   4.777   2.658   5.460  0.6389  0.6311  0.7828
19418TIP3   OH279668   1.031   1.343   4.695 -0.0481 -0.4003  0.2306
19418TIP3    H179669   1.082   1.298   4.627  0.9844  0.8958  0.1092
19418TIP3    H279670   1.026   1.280   4.767  2.7388 -0.1965  0.6990
19419TIP3   OH279671   4.904   1.646   0.189 -0.3754 -0.1355  0.5442
19419TIP3    H179672   4.864   1.731   0.171 -0.2130 -0.0411  0.6246
19419TIP3    H279673   4.987   1.667   0.231  0.0495 -0.3086 -0.1941
19420TIP3   OH279674   3.458   4.653   0.123  0.4175 -0.1192  0.4774
19420TIP3    H179675   3.532   4.633   0.180  0.1161 -2.5616  0.1081
19420TIP3    H279676   3.382   4.614   0.167 -0.2070  0.0393 -0.4308
19421TIP3   OH279677   5.781   1.167   5.095  0.1733 -0.0524 -0.0399
19421TIP3    H179678   5.817   1.252   5.070  0.5582 -0.0558  0.4757
19421TIP3    H279679   5.842   1.103   5.059  1.2025 -0.0353  1.5757
19422TIP3   OH279680   4.844   6.465   4.508 -0.4972 -0.8590  0.2192
19422TIP3    H179681   4.809   6.537   4.561  0.5586 -1.2958  1.5738
19422TIP3    H279682   4.846   6.500   4.418 -2.3667 -0.1191  0.4316
19423TIP3   OH279683   4.744   2.288   5.209  0.8213 -0.7323 -1.1857
19423TIP3    H179684   4.703   2.362   5.255  1.4749 -1.1675  0.1496
19423TIP3    H279685   4.689   2.275   5.132  0.3534  0.7685 -1.1447
19424TIP3   OH279686   6.504   3.689   3.038  0.0854 -0.5494  0.2007
19424TIP3    H179687   6.565   3.639   3.091  1.9584  0.1921 -1.1245
19424TIP3    H279688   6.487   3.634   2.962  2.3174  0.7445 -1.3669
19425TIP3   OH279689   5.494   2.369   2.094  0.5856  0.2754  0.3841
19425TIP3    H179690   5.534   2.282   2.091 -0.0137 -0.0372  1.2583
19425TIP3    H279691   5.418   2.361   2.037  1.9104  0.9805 -1.5942
19426TIP3   OH279692   3.566   0.118   1.386  0.1805  0.3859 -0.4085
19426TIP3    H179693   3.510   0.105   1.463 -0.9273  1.4756 -1.0060
19426TIP3    H279694   3.644   0.161   1.421  0.6941 -1.1416  0.4299
19427TIP3   OH279695   2.475   3.132   2.090 -0.3498  0.1395 -0.0033
19427TIP3    H179696   2.528   3.178   2.025 -2.9279  0.1877 -2.2543
19427TIP3    H279697   2.504   3.041   2.085  1.7553  0.6621  1.3119
19428TIP3   OH279698   0.854   1.906   3.780  0.4594  0.7064  0.4922
19428TIP3    H179699   0.897   1.990   3.796 -1.7314  1.7698  1.3061
19428TIP3    H279700   0.766   1.930   3.750 -0.1913 -1.3096  0.6082
19429TIP3   OH279701   0.572   2.159  11.299  0.2978 -0.0929 -0.3816
19429TIP3    H179702   0.524   2.077  11.288 -0.0375 -0.4720  2.8809
19429TIP3    H279703   0.578   2.196  11.211 -0.0049 -3.3207 -1.8797
19430TIP3   OH279704   0.141   3.165   5.213  0.4834 -0.2105 -0.3126
19430TIP3    H179705   0.073   3.104   5.241  0.3650 -0.0803 -0.3189
19430TIP3    H279706   0.138   3.162   5.117  0.1184  0.2100 -0.3129
19431TIP3   OH279707   3.957   5.955   3.050  0.5111  0.1954 -0.0101
19431TIP3    H179708   4.037   5.907   3.073  0.4262  0.8699  1.8629
19431TIP3    H279709   3.940   6.012   3.125 -0.9741  1.0850 -0.9570
19432TIP3   OH279710   3.349   4.730   1.565 -0.6163  0.4253  0.2957
19432TIP3    H179711   3.437   4.754   1.596  0.1800  0.4310 -1.8040
19432TIP3    H279712   3.331   4.791   1.494 -1.5265 -0.7464 -0.5255
19433TIP3   OH279713   5.843   3.204  14.302  0.2561  0.1445 -0.0292
19433TIP3    H179714   5.830   3.265  14.229  0.7553  0.9847  0.5567
19433TIP3    H279715   5.756   3.170  14.321  0.1993 -0.4865 -1.3477
19434TIP3   OH279716   6.111   2.660   0.384 -0.3246 -0.6034 -0.7041
19434TIP3    H179717   6.201   2.680   0.358  0.2435  1.0806  2.1310
19434TIP3    H279718   6.120   2.603   0.460 -1.6190  0.0696 -0.0035
19435TIP3   OH279719   5.585   2.846  11.600 -0.2527  0.0199 -0.0193
19435TIP3    H179720   5.516   2.780  11.606  0.3495 -0.4877  3.0072
19435TIP3    H279721   5.661   2.799  11.568 -0.0025 -0.6665  1.5011
19436TIP3   OH279722   4.052   3.703   1.721  0.1853 -0.0967  0.2600
19436TIP3    H179723   4.012   3.777   1.767  0.7702  1.5670 -1.7445
19436TIP3    H279724   3.995   3.689   1.645  0.5100 -1.2253  0.2094
19437TIP3   OH279725   4.891   6.089   4.228  0.1084 -0.4909 -0.4417
19437TIP3    H179726   4.850   6.158   4.175 -0.0324 -1.5185 -1.7381
19437TIP3    H279727   4.833   6.014   4.219  0.4787 -0.9204  0.5963
19438TIP3   OH279728   2.658   1.515  12.894  0.0365  0.6075  0.4083
19438TIP3    H179729   2.672   1.587  12.833  2.5982 -0.0800  0.0558
19438TIP3    H279730   2.611   1.449  12.843 -0.9352  1.3908  0.2695
19439TIP3   OH279731   1.799   5.862   1.110 -0.1605  0.2643 -0.2625
19439TIP3    H179732   1.730   5.833   1.051  0.8046  0.0247 -1.3032
19439TIP3    H279733   1.752   5.903   1.183 -1.4152 -0.5775 -0.5641
19440TIP3   OH279734   2.424   6.455  14.872  0.2773 -0.3320 -0.2715
19440TIP3    H179735   2.381   6.526  14.824  1.0285  0.1489 -0.2389
19440TIP3    H279736   2.466   6.402  14.804  0.7199 -0.0689 -0.2033
19441TIP3   OH279737   3.660   0.651   1.018 -0.4036 -0.2919 -0.2461
19441TIP3    H179738   3.704   0.607   0.946  1.0690 -1.1354  1.1167
19441TIP3    H279739   3.688   0.742   1.012  4.3775 -1.2526  2.3850
19442TIP3   OH279740   1.262   0.033  14.601  0.3199  0.2464  0.1470
19442TIP3    H179741   1.193   0.079  14.554  0.3339  0.8693  0.7229
19442TIP3    H279742   1.343   0.076  14.573  0.5941 -1.1312 -1.2930
19443TIP3   OH279743   1.934   6.738   4.807  0.4152  0.0422 -0.0025
19443TIP3    H179744   1.974   6.823   4.790 -0.6952 -0.0634 -4.0610
19443TIP3    H279745   1.988   6.676   4.757 -1.3184 -0.9283 -0.7415
19444TIP3   OH279746   2.485   2.472  12.622 -0.1418  0.0124 -0.4955
19444TIP3    H179747   2.532   2.427  12.692 -3.6530 -2.5342  0.5118
19444TIP3    H279748   2.460   2.402  12.561 -1.9384  1.2827 -1.3046
19445TIP3   OH279749   6.132   5.345  16.500  0.1502  0.1203  0.2569
19445TIP3    H179750   6.148   5.252  16.517  0.6302  0.1453 -0.0424
19445TIP3    H279751   6.215   5.388  16.521 -0.0447  0.4684  0.3137
19446TIP3   OH279752   1.616   1.258   1.998  0.3069  0.1470  0.1166
19446TIP3    H179753   1.601   1.184   2.056 -0.4032 -0.5648 -0.9409
19446TIP3    H279754   1.608   1.335   2.054  0.1235 -0.5375  1.0473
19447TIP3   OH279755   2.819   1.190  14.832  0.2583  0.4485  0.0324
19447TIP3    H179756   2.777   1.139  14.901  0.2808 -0.7249 -0.8066
19447TIP3    H279757   2.773   1.164  14.752 -0.4455  2.5154 -0.2990
19448TIP3   OH279758   2.569   4.666   4.443  0.0848 -0.2098  0.3991
19448TIP3    H179759   2.622   4.713   4.378 -0.9784  0.5837  0.0878
19448TIP3    H279760   2.540   4.587   4.397  1.1993 -0.8063  0.6653
19449TIP3   OH279761   5.915   1.907   6.024  0.3538  0.3465  0.2193
19449TIP3    H179762   5.920   1.916   6.119  1.4195 -1.4738  0.4014
19449TIP3    H279763   5.993   1.951   5.991 -0.5744  1.9473  0.0443
19450TIP3   OH279764   2.671   5.687   0.445 -0.2043  0.5900  0.0740
19450TIP3    H179765   2.638   5.674   0.534 -0.0267  0.1735  0.0794
19450TIP3    H279766   2.766   5.684   0.453 -0.1791  1.0047 -0.0614
19451TIP3   OH279767   5.238   2.844  12.130  0.0499 -0.6653  0.1814
19451TIP3    H179768   5.233   2.815  12.221  0.3397  0.5160  0.5896
19451TIP3    H279769   5.147   2.857  12.104  0.0078  0.4264  0.7985
19452TIP3   OH279770   1.234   2.768  16.666  0.1301  0.2543  0.0878
19452TIP3    H179771   1.278   2.723  16.739  1.1323  0.9585 -0.0527
19452TIP3    H279772   1.228   2.859  16.695  1.0294  0.6494 -0.9104
19453TIP3   OH279773   0.425   0.865   1.138  0.2888 -0.2254  0.3489
19453TIP3    H179774   0.418   0.801   1.067  0.1577  0.6879 -0.4918
19453TIP3    H279775   0.334   0.885   1.161  0.2438  1.2146 -0.8806
19454TIP3   OH279776   0.970   6.124  16.231 -0.9125 -0.2242 -0.1937
19454TIP3    H179777   0.905   6.089  16.291 -1.6528 -1.8512 -1.8630
19454TIP3    H279778   1.053   6.115  16.277 -1.5029 -1.0742  0.7223
19455TIP3   OH279779   6.069   1.329   4.824 -0.0352  0.0511  0.3102
19455TIP3    H179780   6.076   1.380   4.744  0.5606 -0.5041  0.0062
19455TIP3    H279781   6.159   1.313   4.851 -0.1262 -2.3433 -0.5710
19456TIP3   OH279782   6.329   1.039  16.517  0.3751  0.3459  0.2916
19456TIP3    H179783   6.244   1.065  16.552  0.4306  2.7389 -1.1872
19456TIP3    H279784   6.382   1.020  16.595 -1.2372 -0.5004  1.2574
19457TIP3   OH279785   2.799   1.456  14.575 -0.3555 -0.2213  0.5392
19457TIP3    H179786   2.873   1.501  14.617 -0.9847  0.3722  1.0321
19457TIP3    H279787   2.840   1.383  14.529  0.4839 -0.2612  1.2929
19458TIP3   OH279788   3.858   2.486   5.049  0.3795 -0.4824 -0.1645
19458TIP3    H179789   3.887   2.411   5.101 -1.4441 -0.3677  1.1156
19458TIP3    H279790   3.832   2.552   5.114  0.0530  0.4952 -1.2472
19459TIP3   OH279791   3.637   0.458   2.872 -0.0913 -0.4436  0.5571
19459TIP3    H179792   3.725   0.422   2.876 -0.5616 -1.6290  0.6273
19459TIP3    H279793   3.583   0.395   2.920 -1.1836 -0.3926 -0.5485
19460TIP3   OH279794   5.793   5.963   3.102 -0.4146  0.4172 -0.4947
19460TIP3    H179795   5.782   5.907   3.179 -0.9630  2.0159  0.6427
19460TIP3    H279796   5.887   5.963   3.085 -0.1819  0.6339  0.6683
19461TIP3   OH279797   1.567   3.512   1.993  0.0118 -0.0831  0.0628
19461TIP3    H179798   1.645   3.567   1.984  0.7564 -1.0108  0.5734
19461TIP3    H279799   1.599   3.432   2.036 -0.9907 -0.9841 -0.8002
19462TIP3   OH279800   6.237   4.639  11.078  0.0919  0.0523 -0.2197
19462TIP3    H179801   6.172   4.709  11.065 -1.2058 -1.1826 -0.6534
19462TIP3    H279802   6.269   4.620  10.990  2.1299  1.5743  0.1143
19463TIP3   OH279803   2.037   0.757   4.779  0.2182 -0.2551  0.2240
19463TIP3    H179804   1.949   0.791   4.765  0.8661  1.7241  0.7221
19463TIP3    H279805   2.074   0.748   4.691 -0.1136 -0.1287  0.0710
19464TIP3   OH279806   1.283   3.939   1.654  0.1594  0.4179 -0.4331
19464TIP3    H179807   1.330   3.871   1.702 -0.6596  0.6264  0.7122
19464TIP3    H279808   1.348   3.976   1.595  1.8458  1.5413  1.9752
19465TIP3   OH279809   6.049   6.606  15.503 -0.6769  0.3547 -0.0664
19465TIP3    H179810   6.005   6.676  15.456 -1.8549 -0.5987 -0.4382
19465TIP3    H279811   5.978   6.549  15.534  0.2106 -0.3483  0.7469
19466TIP3   OH279812   5.987   3.728  15.251 -0.6600 -0.4979  0.4111
19466TIP3    H179813   6.052   3.785  15.291 -1.5666 -1.0651  2.8633
19466TIP3    H279814   5.913   3.785  15.232 -0.5086 -0.3585  0.2384
19467TIP3   OH279815   1.324   4.201   4.073 -0.4853 -0.3423 -0.2538
19467TIP3    H179816   1.375   4.129   4.109  1.5173  1.0435 -0.1361
19467TIP3    H279817   1.269   4.161   4.006  0.3700 -1.9900 -0.0286
19468TIP3   OH279818   4.785   4.887  13.044  0.0720  0.4592 -0.4146
19468TIP3    H179819   4.694   4.882  13.015  0.0086 -1.0516 -0.0227
19468TIP3    H279820   4.836   4.882  12.963 -0.1666 -1.0521 -0.4995
19469TIP3   OH279821   3.812   2.857   0.379  0.5578 -0.2952 -0.3678
19469TIP3    H179822   3.853   2.852   0.465 -0.9161 -1.0726  0.3237
19469TIP3    H279823   3.796   2.766   0.355 -2.1378 -0.0142  0.0991
19470TIP3   OH279824   2.955   2.393  13.773 -0.1435 -0.2525 -0.1152
19470TIP3    H179825   2.910   2.399  13.858 -0.9682 -0.2573 -0.5434
19470TIP3    H279826   3.048   2.401  13.795 -0.3072 -0.8039  0.8463
19471TIP3   OH279827   3.585   3.676  12.164  0.2828 -0.0540 -0.4133
19471TIP3    H179828   3.557   3.696  12.074 -1.0694 -0.2259 -0.0516
19471TIP3    H279829   3.636   3.596  12.155  3.3500  1.8477 -1.4919
19472TIP3   OH279830   6.730   3.374   2.526  0.5163  0.1918  0.0953
19472TIP3    H179831   6.704   3.414   2.443  0.0721  1.9561  1.0462
19472TIP3    H279832   6.822   3.352   2.514  0.4980  0.5523 -0.8012
19473TIP3   OH279833   4.826   0.254  12.406 -0.8934  0.6557 -0.2422
19473TIP3    H179834   4.806   0.238  12.498 -1.6964  1.3048 -0.2900
19473TIP3    H279835   4.790   0.177  12.360  0.5088 -0.2217  0.0718
19474TIP3   OH279836   4.694   0.969   3.167 -0.0866 -0.0274  0.0228
19474TIP3    H179837   4.756   1.041   3.162  1.3424 -0.7452  3.9168
19474TIP3    H279838   4.616   1.007   3.207 -0.6696  0.0025 -1.0939
19475TIP3   OH279839   3.564   1.190   0.314 -0.0290 -0.7598 -0.1572
19475TIP3    H179840   3.543   1.230   0.398  1.0994 -1.1672  0.3423
19475TIP3    H279841   3.484   1.144   0.289 -0.6303  0.0030  0.3046
19476TIP3   OH279842   1.257   6.054   3.668  0.1866  1.3075  0.2620
19476TIP3    H179843   1.204   6.122   3.711 -1.2253  0.5610 -0.2399
19476TIP3    H279844   1.246   5.977   3.723  2.2407  1.5825  1.1383
19477TIP3   OH279845   5.404   3.901   5.672 -0.4838 -0.2625 -0.2605
19477TIP3    H179846   5.472   3.867   5.730  0.5036  0.4938 -0.9523
19477TIP3    H279847   5.444   3.899   5.585 -2.3337 -2.5300 -1.1647
19478TIP3   OH279848   6.127   2.524  13.845  0.8711 -0.1988  0.2784
19478TIP3    H179849   6.095   2.567  13.924  0.3966 -2.0125  1.1417
19478TIP3    H279850   6.163   2.441  13.876 -0.5045 -1.5432 -1.5095
19479TIP3   OH279851   0.206   1.268   1.048 -0.1886  0.3714 -0.3713
19479TIP3    H179852   0.243   1.345   1.007  1.4395  0.6844  1.4910
19479TIP3    H279853   0.266   1.197   1.024 -0.2907  0.1917 -0.1048
19480TIP3   OH279854   2.017   0.025  10.998 -0.1371 -0.7045  0.4620
19480TIP3    H179855   1.996  -0.051  10.944 -0.0101 -1.0758  0.9329
19480TIP3    H279856   1.958   0.094  10.966  1.6551 -0.1463 -1.8704
19481TIP3   OH279857   4.355   5.625   4.681  0.0200 -0.5659  0.3895
19481TIP3    H179858   4.330   5.614   4.773  0.7444  0.4743  0.7270
19481TIP3    H279859   4.305   5.700   4.651 -0.5047 -1.1381 -0.1957
19482TIP3   OH279860   5.932   2.087   1.860 -0.0130 -0.3798 -0.2949
19482TIP3    H179861   5.935   2.035   1.941  0.0452  0.4021  0.2115
19482TIP3    H279862   6.007   2.056   1.809  2.7115  2.1298  1.8442
19483TIP3   OH279863   4.048   5.209  16.366  0.3824  0.5303  0.3735
19483TIP3    H179864   4.114   5.265  16.325  1.1092 -1.1783 -0.8857
19483TIP3    H279865   3.965   5.240  16.330  0.7839  0.6886 -0.4283
19484TIP3   OH279866   4.601   5.251  12.678  0.5486  0.5705 -0.6126
19484TIP3    H179867   4.523   5.254  12.623  1.3231 -0.8671 -1.8598
19484TIP3    H279868   4.652   5.328  12.652  0.1622  0.7837 -0.7393
19485TIP3   OH279869   5.853   0.118   2.272 -0.6598 -0.0013  0.6908
19485TIP3    H179870   5.830   0.029   2.245 -0.7917 -0.4070  2.0760
19485TIP3    H279871   5.909   0.106   2.349  1.3128  1.0604 -0.4734
19486TIP3   OH279872   6.129   3.308   1.189 -0.3937 -0.3200 -0.6202
19486TIP3    H179873   6.165   3.238   1.243 -1.0990 -3.2135 -3.5504
19486TIP3    H279874   6.201   3.372   1.181  1.1198 -1.8227  0.3600
19487TIP3   OH279875   2.409   5.101   3.535  0.0810  0.3099  0.6934
19487TIP3    H179876   2.375   5.012   3.530 -1.5278  0.8780  0.8066
19487TIP3    H279877   2.444   5.119   3.448 -0.2440 -0.1734  0.4621
19488TIP3   OH279878   0.795   2.701  16.374  0.3805 -0.4529  0.2690
19488TIP3    H179879   0.860   2.734  16.437 -0.5784 -1.7371  2.0239
19488TIP3    H279880   0.753   2.628  16.419 -0.4451 -1.3813 -1.8710
19489TIP3   OH279881   2.765   5.037  11.619  0.3813  0.4412 -0.1894
19489TIP3    H179882   2.672   5.053  11.602  0.4396 -0.6203 -1.6882
19489TIP3    H279883   2.810   5.078  11.546  0.8019 -2.3474 -1.6217
19490TIP3   OH279884   1.229   1.251   3.195 -0.0833 -0.1277  0.2249
19490TIP3    H179885   1.324   1.263   3.190 -0.0162 -1.0230 -1.0346
19490TIP3    H279886   1.217   1.156   3.192 -1.0616  0.0067 -0.6553
19491TIP3   OH279887   4.485   0.280  14.397  0.0613  0.0997 -0.1401
19491TIP3    H179888   4.396   0.259  14.425 -0.0628 -0.0497 -0.6460
19491TIP3    H279889   4.530   0.304  14.478 -0.4210  0.1180  0.1258
19492TIP3   OH279890   1.910   0.733  10.480 -0.2176 -0.0200 -0.0366
19492TIP3    H179891   1.849   0.787  10.529 -1.2921  0.7326 -2.0884
19492TIP3    H279892   1.873   0.645  10.483 -1.3734  0.3917 -1.0964
19493TIP3   OH279893   1.344   0.861   2.186 -0.2824 -0.1151  0.1156
19493TIP3    H179894   1.267   0.852   2.130 -0.8088  2.3681  0.3167
19493TIP3    H279895   1.308   0.874   2.274  0.3988  0.0017  0.3840
19494TIP3   OH279896   0.512   5.313  14.891 -0.1903 -0.0263 -0.2597
19494TIP3    H179897   0.575   5.346  14.954  1.2774 -1.3409 -0.9831
19494TIP3    H279898   0.490   5.389  14.837  0.5472  0.5180  0.1969
19495TIP3   OH279899   0.082   3.189  11.898 -0.7004 -0.2716  0.1962
19495TIP3    H179900   0.126   3.239  11.828  0.1746 -0.7228  0.4083
19495TIP3    H279901   0.039   3.256  11.951  0.4185  0.2814  0.4444
19496TIP3   OH279902   4.593   6.576   3.679  0.2778 -0.1293 -0.4121
19496TIP3    H179903   4.642   6.494   3.689  0.0528 -0.2478 -0.2614
19496TIP3    H279904   4.653   6.644   3.709  0.7765 -0.1438 -1.3153
19497TIP3   OH279905   5.135   4.128  17.331  0.0288  0.6636  0.0099
19497TIP3    H179906   5.105   4.125  17.240  2.4730 -1.2298 -0.8423
19497TIP3    H279907   5.220   4.170  17.326  0.6405 -0.3847  1.2699
19498TIP3   OH279908   5.923   0.016   3.769  0.1671  0.2044 -0.1971
19498TIP3    H179909   5.984  -0.050   3.738  0.8567  0.3901  0.7172
19498TIP3    H279910   5.902   0.068   3.691 -0.9478 -1.4810 -1.0830
19499TIP3   OH279911   6.376   5.013  16.924 -0.0741 -0.2963 -0.6849
19499TIP3    H179912   6.433   4.992  16.850 -0.4065 -0.5992 -0.8548
19499TIP3    H279913   6.363   5.108  16.918  1.2489 -0.0408 -0.0449
19500TIP3   OH279914   3.135   2.786  12.274  0.0475 -0.0385  0.1244
19500TIP3    H179915   3.071   2.832  12.329  0.9004  1.3226  0.0264
19500TIP3    H279916   3.215   2.838  12.281  1.6107 -2.3847  1.3207
19501TIP3   OH279917   0.710   1.364   0.341 -0.0166  0.3263 -0.2952
19501TIP3    H179918   0.703   1.445   0.392 -2.9951  0.9466 -1.5276
19501TIP3    H279919   0.622   1.329   0.339  0.7869 -1.7927 -1.6922
19502TIP3   OH279920   4.014   0.449   2.644 -0.1648 -0.0292  0.1663
19502TIP3    H179921   4.101   0.429   2.679  0.3390 -0.1025 -1.0721
19502TIP3    H279922   3.989   0.369   2.597  0.2408  0.8646 -1.6496
19503TIP3   OH279923   4.170   1.732   2.008  0.0273  0.2570  0.4304
19503TIP3    H179924   4.103   1.676   1.969 -0.2143 -0.7354  2.1612
19503TIP3    H279925   4.249   1.716   1.957 -0.1627 -1.3375  0.5952
19504TIP3   OH279926   2.594   2.735   5.817 -0.1081  0.3432 -0.2059
19504TIP3    H179927   2.516   2.758   5.768 -0.6441  0.7778  0.8116
19504TIP3    H279928   2.596   2.640   5.816 -2.0723  0.1759  1.8027
19505TIP3   OH279929   2.978   4.914  14.796  0.0932  0.8344 -0.2055
19505TIP3    H179930   2.930   4.842  14.756  1.0393 -0.0659  0.2416
19505TIP3    H279931   2.996   4.974  14.723 -0.4548  0.4988 -0.6303
19506TIP3   OH279932   3.301   1.435   2.521  0.3160 -0.5687  0.3283
19506TIP3    H179933   3.288   1.354   2.570  0.8057 -1.4060 -0.8765
19506TIP3    H279934   3.218   1.482   2.530  0.1692 -1.0059  1.3815
19507TIP3   OH279935   0.901   1.035  15.322 -0.1320  0.7370  0.7261
19507TIP3    H179936   0.917   1.055  15.414  0.7630 -0.2883  0.8174
19507TIP3    H279937   0.836   1.099  15.294  0.9587  2.2676  1.5641
19508TIP3   OH279938   0.942   2.624   2.303 -0.7368 -0.3838  0.2357
19508TIP3    H179939   0.941   2.537   2.263  0.9092 -0.8412  1.0919
19508TIP3    H279940   1.035   2.648   2.304 -1.0488  0.8511  1.1267
19509TIP3   OH279941   0.726   6.056   1.597 -0.8085 -0.3786 -0.1111
19509TIP3    H179942   0.807   6.018   1.630 -1.3949 -0.2165  1.5868
19509TIP3    H279943   0.753   6.109   1.522  0.8988  0.9268  1.3430
19510TIP3   OH279944   4.756   4.164  16.961  0.1276  0.2009 -0.4791
19510TIP3    H179945   4.672   4.121  16.945 -1.8536  3.4040  0.3643
19510TIP3    H279946   4.783   4.195  16.874 -1.0275  1.5150 -0.3988
19511TIP3   OH279947   0.468   0.928   0.415  0.1490 -0.2972  0.0085
19511TIP3    H179948   0.537   0.948   0.351  2.5524 -0.1285  2.4746
19511TIP3    H279949   0.499   0.967   0.497 -3.1737  0.1974  1.1832
19512TIP3   OH279950   1.670   1.856   1.386 -0.4118 -0.3015 -0.6118
19512TIP3    H179951   1.606   1.919   1.420 -1.1610 -0.5696 -1.4743
19512TIP3    H279952   1.640   1.772   1.419  1.6005 -0.0987  2.0625
19513TIP3   OH279953   6.342   4.092   2.116 -0.1896  0.0880 -0.1481
19513TIP3    H179954   6.419   4.099   2.173 -0.2371 -0.0446 -0.0673
19513TIP3    H279955   6.342   4.174   2.067 -0.1450  0.2019  0.0389
19514TIP3   OH279956   0.750   4.138  17.245 -0.1943  0.1977  1.0570
19514TIP3    H179957   0.681   4.162  17.307 -0.2386 -1.1660  1.5875
19514TIP3    H279958   0.747   4.042  17.242  0.9685  0.1580  0.2608
19515TIP3   OH279959   3.608   2.359   5.362  0.0841 -0.6727 -0.3679
19515TIP3    H179960   3.684   2.411   5.388  0.2372 -0.7413 -0.6757
19515TIP3    H279961   3.566   2.335   5.445  1.1939 -1.8300 -0.1239
19516TIP3   OH279962   4.846   3.109   5.416 -0.0676  0.0870  0.5366
19516TIP3    H179963   4.780   3.165   5.375  2.2864  1.6601 -1.3291
19516TIP3    H279964   4.870   3.046   5.348  1.3311  0.4267  0.6925
19517TIP3   OH279965   1.741   6.625  15.548 -0.7207 -0.3686 -0.1747
19517TIP3    H179966   1.823   6.659  15.585 -0.9464 -0.3438  0.3086
19517TIP3    H279967   1.747   6.646  15.455 -0.4307  0.1467 -0.0470
19518TIP3   OH279968   1.320   5.927   1.170 -0.1614  0.2078 -0.8872
19518TIP3    H179969   1.271   5.859   1.124  0.3433 -2.9724  2.7390
19518TIP3    H279970   1.262   6.003   1.171 -3.2511 -1.9642 -0.4655
19519TIP3   OH279971   4.556   2.903   4.214  0.7873  0.0348 -0.5703
19519TIP3    H179972   4.480   2.956   4.190  1.8753  2.4031  0.8261
19519TIP3    H279973   4.519   2.829   4.263 -0.6783  0.5847 -0.8061
19520TIP3   OH279974   5.528   1.073   1.872  0.2958  0.3697 -0.2326
19520TIP3    H179975   5.580   1.060   1.793  2.7302  0.4011  1.2521
19520TIP3    H279976   5.535   1.166   1.891 -0.2058  0.3543  0.0519
19521TIP3   OH279977   1.628   6.160   6.119  0.7020 -0.6210 -0.2515
19521TIP3    H179978   1.634   6.189   6.209 -0.6575 -1.2084  0.0640
19521TIP3    H279979   1.697   6.208   6.073  0.7089  0.5050  0.8781
19522TIP3   OH279980   0.154   6.537   5.586  0.8625  0.4647 -0.3723
19522TIP3    H179981   0.188   6.560   5.499  1.8229 -1.3061 -0.4981
19522TIP3    H279982   0.087   6.471   5.568 -0.8299  1.9838  0.0812
19523TIP3   OH279983   1.438   2.380  17.100  0.0061  0.6178 -0.2365
19523TIP3    H179984   1.395   2.299  17.072 -0.4329  0.9528 -0.5786
19523TIP3    H279985   1.502   2.398  17.031 -0.0223  0.6534 -0.2537
19524TIP3   OH279986   4.933   1.189   0.349  0.0952  0.2700 -0.0526
19524TIP3    H179987   4.913   1.242   0.272 -1.9956  0.0217  0.2653
19524TIP3    H279988   4.907   1.100   0.325  1.0684 -0.1415  0.3488
19525TIP3   OH279989   2.852   3.440  13.724  0.6134 -0.0460  0.0978
19525TIP3    H179990   2.802   3.452  13.643 -0.4450  2.5097  1.0388
19525TIP3    H279991   2.788   3.446  13.794  1.8478  0.3560  1.2424
19526TIP3   OH279992   2.796   5.032   4.557 -0.4091 -0.6257 -0.5105
19526TIP3    H179993   2.782   4.960   4.496  0.0551 -0.4554 -0.8240
19526TIP3    H279994   2.720   5.090   4.545 -0.3440 -0.6172 -0.8931
19527TIP3   OH279995   2.323   5.127   0.395 -0.1296  0.3015 -0.5026
19527TIP3    H179996   2.321   5.222   0.384 -0.6853  0.3672  0.1295
19527TIP3    H279997   2.344   5.094   0.307 -1.1170  0.9508 -0.9998
19528TIP3   OH279998   4.348   0.431   0.193  0.8024  0.2077  0.1824
19528TIP3    H179999   4.302   0.486   0.129 -0.6454 -0.3320  0.7270
19528TIP3    H280000   4.281   0.371   0.226  1.9945 -0.8617  0.7412
19529TIP3   OH280001   5.761   1.376   0.703  0.2588 -0.0900 -0.2035
19529TIP3    H180002   5.810   1.313   0.650 -0.1425  0.7264 -1.5819
19529TIP3    H280003   5.669   1.359   0.683  0.1415  0.8154 -0.4786
19530TIP3   OH280004   1.034   5.197  12.842  0.9398 -0.2718 -0.0849
19530TIP3    H180005   1.109   5.138  12.852 -0.0258 -1.7104 -1.0521
19530TIP3    H280006   0.958   5.142  12.860  0.0091  0.6925 -0.9925
19531TIP3   OH280007   6.282   4.906   5.043 -0.4000 -0.5672 -0.2082
19531TIP3    H180008   6.332   4.864   5.113 -0.4488 -0.2390  0.0208
19531TIP3    H280009   6.212   4.954   5.088 -0.7099 -0.7302 -0.5062
19532TIP3   OH280010   5.142   4.284   5.298 -0.5009 -0.3432 -0.1656
19532TIP3    H180011   5.228   4.247   5.281 -0.5721 -0.6923  0.2038
19532TIP3    H280012   5.134   4.358   5.238  0.8232  0.8837  1.0971
19533TIP3   OH280013   1.798   5.282   2.995 -0.4765  0.3832 -0.2009
19533TIP3    H180014   1.730   5.330   3.042  0.0415  0.3004  0.6441
19533TIP3    H280015   1.871   5.278   3.056  0.1021  0.0127 -0.9078
19534TIP3   OH280016   0.536   4.300   2.669  0.3558  0.0199 -0.5186
19534TIP3    H180017   0.449   4.324   2.639 -0.6757  0.1235  2.2250
19534TIP3    H280018   0.565   4.375   2.721  0.7935 -1.1647  1.0219
19535TIP3   OH280019   4.901   2.264  16.559 -0.2371  0.1969 -0.2951
19535TIP3    H180020   4.963   2.291  16.491  1.8277  0.8539  1.7282
19535TIP3    H280021   4.815   2.276  16.518  0.8811  1.1171 -2.5796
19536TIP3   OH280022   4.182   3.837   1.331  0.2247 -0.3906  0.0323
19536TIP3    H180023   4.145   3.756   1.364  0.8050 -0.7322 -0.1490
19536TIP3    H280024   4.276   3.822   1.327  0.3997  0.4732  0.5004
19537TIP3   OH280025   4.179   2.449  12.508 -0.2982 -0.4260 -0.0947
19537TIP3    H180026   4.229   2.482  12.583 -0.0865  0.5494 -0.6481
19537TIP3    H280027   4.247   2.428  12.443 -0.5850  1.3231 -1.0198
19538TIP3   OH280028   1.666   5.415   6.126  0.0024 -0.4683  0.0927
19538TIP3    H180029   1.579   5.454   6.133  0.4953  0.6599  0.2015
19538TIP3    H280030   1.720   5.467   6.186  0.9932 -0.4198 -0.8197
19539TIP3   OH280031   5.660   3.873   5.525  0.8561  0.0387  0.0845
19539TIP3    H180032   5.737   3.915   5.562  0.3452  0.0872  1.1272
19539TIP3    H280033   5.667   3.781   5.553 -0.8995  0.5914  2.7402
19540TIP3   OH280034   0.002   1.269  13.777 -0.7760  0.9508  0.5492
19540TIP3    H180035   0.015   1.253  13.870 -0.5644 -0.7041  0.2697
19540TIP3    H280036   0.089   1.262  13.738 -0.9958  0.6080  0.1016
19541TIP3   OH280037   3.901   6.596   1.075  0.1601  0.1965 -0.3110
19541TIP3    H180038   3.841   6.534   1.033  1.8183 -2.0327  0.3915
19541TIP3    H280039   3.846   6.644   1.137 -1.4853  0.5621 -1.9690
19542TIP3   OH280040   1.337   1.550  13.135  0.4140 -0.1572 -0.0173
19542TIP3    H180041   1.299   1.464  13.150  2.1551 -0.7322  1.3516
19542TIP3    H280042   1.364   1.548  13.043 -4.3021  0.9677 -1.7406
19543TIP3   OH280043   0.373   1.674   4.598  0.2388  0.3163  0.6501
19543TIP3    H180044   0.465   1.689   4.576  0.6312  0.7920  2.4335
19543TIP3    H280045   0.358   1.729   4.675 -1.2010 -0.6930  1.1294
19544TIP3   OH280046   3.368   4.772  11.700 -0.1912 -0.0625 -0.2333
19544TIP3    H180047   3.458   4.791  11.672  0.0385  0.1217  0.6018
19544TIP3    H280048   3.340   4.852  11.745 -0.4381 -0.4623  0.3361
19545TIP3   OH280049   5.527   3.924  15.160  0.3809  0.0713 -0.2773
19545TIP3    H180050   5.517   4.019  15.163 -0.1910 -0.0118  0.8315
19545TIP3    H280051   5.446   3.890  15.197  1.2352 -0.8007  0.8526
19546TIP3   OH280052   1.312   4.285  13.846 -0.8539  0.4450  0.2725
19546TIP3    H180053   1.382   4.342  13.815  0.7214 -1.4187  0.2141
19546TIP3    H280054   1.246   4.345  13.882  0.7603  2.2737  0.3329
19547TIP3   OH280055   0.241   5.371   3.704  0.2417  0.3044  0.2171
19547TIP3    H180056   0.243   5.434   3.776 -1.3842  0.0965  0.4792
19547TIP3    H280057   0.297   5.299   3.735  0.4156  0.6877  0.8215
19548TIP3   OH280058   4.568   3.340  11.085  0.6585 -0.3550 -0.1667
19548TIP3    H180059   4.539   3.293  11.163  2.1596 -2.9007 -1.0068
19548TIP3    H280060   4.581   3.271  11.019  2.9110  1.2260 -1.5274
19549TIP3   OH280061   4.420   1.857  15.747 -0.4359 -0.6994 -0.3782
19549TIP3    H180062   4.493   1.918  15.734 -1.2195  0.0589 -1.4511
19549TIP3    H280063   4.444   1.780  15.695  1.3868 -2.1539  2.3615
19550TIP3   OH280064   0.287   6.287   3.232 -0.2573 -0.1461 -0.0120
19550TIP3    H180065   0.227   6.361   3.233  0.6393  0.5971  0.1757
19550TIP3    H280066   0.235   6.213   3.263 -0.8371  0.6677  1.0357
19551TIP3   OH280067   2.455   2.859   2.076  0.1005 -0.2119 -0.0263
19551TIP3    H180068   2.421   2.820   2.157 -0.1237  0.8517  0.4137
19551TIP3    H280069   2.391   2.835   2.009 -0.1294 -0.4370  0.2716
19552TIP3   OH280070   4.482   6.288   0.949  0.0897  0.5469  0.0390
19552TIP3    H180071   4.418   6.290   0.878  0.8567  1.4018 -0.6645
19552TIP3    H280072   4.566   6.272   0.904  0.2499 -1.8792  1.0480
19553TIP3   OH280073   5.727   3.682  11.274 -0.3608  0.4568  0.9501
19553TIP3    H180074   5.820   3.687  11.251 -0.5457  1.5421  0.3649
19553TIP3    H280075   5.716   3.594  11.310  0.7493  0.0589  0.3763
19554TIP3   OH280076   3.225   1.752   5.794 -0.3090  0.2760 -0.0086
19554TIP3    H180077   3.271   1.674   5.827  0.2361 -0.0204 -1.3874
19554TIP3    H280078   3.161   1.718   5.732 -1.3196  0.8186  0.7050
19555TIP3   OH280079   4.468   5.247  12.423  0.7121 -0.1273  0.0745
19555TIP3    H180080   4.429   5.265  12.338  1.1573  0.9585  0.0966
19555TIP3    H280081   4.411   5.179  12.460 -0.9617  1.1270 -0.0495
19556TIP3   OH280082   6.442   4.835  15.390  0.0286 -0.0818 -0.5183
19556TIP3    H180083   6.388   4.876  15.323 -1.2873  0.9750  1.1047
19556TIP3    H280084   6.525   4.881  15.386 -0.4940  0.8765 -0.5552
19557TIP3   OH280085   5.348   4.118  11.149  0.1584 -0.0039  0.2821
19557TIP3    H180086   5.327   4.026  11.132 -0.6251  0.2119  0.0747
19557TIP3    H280087   5.443   4.118  11.161 -0.0092 -1.1023  1.9751
19558TIP3   OH280088   4.894   0.995   1.748  0.1455  0.1940  0.2236
19558TIP3    H180089   4.845   1.070   1.715 -1.0009 -0.1404  1.0984
19558TIP3    H280090   4.948   1.031   1.818 -1.4582  0.0255  1.6255
19559TIP3   OH280091   0.055   3.092   6.706  0.5451 -0.5512  0.8702
19559TIP3    H180092  -0.019   3.102   6.646  0.1861 -0.1194  1.3740
19559TIP3    H280093   0.112   3.167   6.687  0.6933 -0.7062  0.7035
19560TIP3   OH280094   0.190   5.358   4.844 -0.7827 -0.0068 -0.3317
19560TIP3    H180095   0.188   5.315   4.929 -1.6307  0.8157  0.0854
19560TIP3    H280096   0.225   5.292   4.784 -1.7948 -1.1693  0.3212
19561TIP3   OH280097   1.694   6.281   1.243  0.2850 -0.1206 -0.2093
19561TIP3    H180098   1.763   6.215   1.252 -0.3927 -0.6073  2.2587
19561TIP3    H280099   1.619   6.232   1.210  0.3180 -0.1797 -0.1979
19562TIP3   OH280100   0.368   3.267   2.307  0.0817 -0.1662  0.3813
19562TIP3    H180101   0.419   3.346   2.324 -1.0259  0.5105  0.6602
19562TIP3    H280102   0.375   3.254   2.212 -0.9845  1.1630  0.0964
19563TIP3   OH280103   2.998   2.521   3.757  0.0250  0.1343  0.3866
19563TIP3    H180104   3.072   2.478   3.715  0.4745  0.2722  1.0280
19563TIP3    H280105   2.929   2.521   3.690  0.6113  0.0372 -0.2235
19564TIP3   OH280106   5.968   4.561  12.894 -0.1724 -0.2123  0.5182
19564TIP3    H180107   5.957   4.598  12.982  1.0993  0.4073  0.4414
19564TIP3    H280108   6.063   4.559  12.881 -0.3507  0.1546 -1.0192
19565TIP3   OH280109   0.578   0.137  11.321  0.1626 -0.0637 -0.0143
19565TIP3    H180110   0.537   0.174  11.243 -1.9002  1.2980  1.6160
19565TIP3    H280111   0.585   0.043  11.301  0.4561  0.3458 -2.1075
19566TIP3   OH280112   5.024   4.726  16.208 -0.3525 -0.5408  0.0423
19566TIP3    H180113   5.083   4.771  16.148 -1.8875  0.5715 -0.7033
19566TIP3    H280114   4.974   4.667  16.153 -0.1052 -1.3132  0.6285
19567TIP3   OH280115   3.251   0.061   2.728 -0.2612  0.1048  0.4157
19567TIP3    H180116   3.183   0.078   2.793 -1.5453  2.5002 -1.3892
19567TIP3    H280117   3.203   0.029   2.651  0.6129  1.6699 -0.8404
19568TIP3   OH280118   6.588   1.139  12.639 -0.1758  0.2428 -0.2836
19568TIP3    H180119   6.540   1.176  12.565 -2.8327 -1.9391  0.1889
19568TIP3    H280120   6.629   1.060  12.604  1.2204  0.8487 -0.1045
19569TIP3   OH280121   2.962   3.999   2.244 -0.3629  0.1645  0.4796
19569TIP3    H180122   2.981   3.916   2.287  1.2878  0.7225  0.8922
19569TIP3    H280123   3.014   3.997   2.164 -1.1498  0.3752 -0.0552
19570TIP3   OH280124   0.739   2.447  17.025  0.2826  0.0291 -0.0987
19570TIP3    H180125   0.741   2.513  17.094 -1.1275  0.0953 -0.1000
19570TIP3    H280126   0.827   2.409  17.026  0.8342  1.2522  0.5242
19571TIP3   OH280127   0.311   3.621  15.725  0.1173  0.1937  0.8594
19571TIP3    H180128   0.289   3.529  15.710  0.9042 -0.2765  2.3871
19571TIP3    H280129   0.282   3.666  15.645 -3.1361 -0.8792  1.2940
19572TIP3   OH280130   4.242   1.306  14.403  0.3616 -0.0370 -0.0564
19572TIP3    H180131   4.166   1.253  14.379 -0.3427  1.6115 -1.8078
19572TIP3    H280132   4.205   1.379  14.454  1.0597 -0.2306  0.7578
19573TIP3   OH280133   2.261   4.554   5.099  0.2282  0.1225 -0.2132
19573TIP3    H180134   2.279   4.647   5.085 -0.1913 -0.0227 -1.9824
19573TIP3    H280135   2.240   4.520   5.012  1.5052 -1.8925  0.1824
19574TIP3   OH280136   3.603   3.410  12.027 -0.1529 -0.1085 -0.1648
19574TIP3    H180137   3.599   3.405  11.932  0.2796  0.4324 -0.2116
19574TIP3    H280138   3.538   3.347  12.057 -1.6682  1.0965 -0.8236
19575TIP3   OH280139   0.319   1.435   1.654 -0.3295 -0.0054  0.4020
19575TIP3    H180140   0.328   1.518   1.700 -0.0331  0.0679  0.2159
19575TIP3    H280141   0.407   1.415   1.622 -1.0202  1.4765 -2.7924
19576TIP3   OH280142   2.994   4.678   0.902  0.2127  0.3039 -0.4875
19576TIP3    H180143   3.038   4.595   0.920 -0.7854 -0.6753 -2.3379
19576TIP3    H280144   3.042   4.715   0.828 -1.1893 -0.1113 -1.6285
19577TIP3   OH280145   6.125   2.349  16.787 -0.1941 -0.4901 -0.1161
19577TIP3    H180146   6.120   2.369  16.693 -2.9833 -0.9174 -0.1509
19577TIP3    H280147   6.152   2.431  16.828 -3.5803  1.2398 -0.9615
19578TIP3   OH280148   6.712   0.854  15.296 -0.1847  0.0522  0.0973
19578TIP3    H180149   6.711   0.846  15.392 -1.0752 -0.5515  0.0501
19578TIP3    H280150   6.803   0.837  15.271  0.6414  2.5924  1.0006
19579TIP3   OH280151   6.074   0.385  15.218  0.5319  0.4379 -0.1260
19579TIP3    H180152   6.162   0.389  15.181 -0.1697  1.3405 -1.8431
19579TIP3    H280153   6.028   0.459  15.178 -1.5219 -1.0507 -0.7256
19580TIP3   OH280154   0.877   2.655  14.431  0.0610 -0.1332  0.5541
19580TIP3    H180155   0.959   2.693  14.461 -0.5237  1.8408 -0.1571
19580TIP3    H280156   0.875   2.673  14.337 -0.1266 -2.2948  0.0939
19581TIP3   OH280157   1.187   4.993   3.841 -0.2331  0.1989  0.1657
19581TIP3    H180158   1.180   4.904   3.876 -3.3605 -0.1816 -1.0504
19581TIP3    H280159   1.195   4.982   3.746  0.2343  1.2060  0.0701
19582TIP3   OH280160   5.601   5.105   2.377  0.6841 -0.0545  0.2508
19582TIP3    H180161   5.541   5.032   2.392 -1.9345  1.7249 -0.8409
19582TIP3    H280162   5.567   5.176   2.431  0.2631  1.7213 -2.1546
19583TIP3   OH280163   3.889   1.122   1.483  0.1523  0.0547  0.2180
19583TIP3    H180164   3.800   1.119   1.447  0.5071  1.5482 -0.9298
19583TIP3    H280165   3.889   1.199   1.540  0.6057 -0.1400  0.4851
19584TIP3   OH280166   3.928   2.154   4.573 -0.4022 -0.2737 -0.6345
19584TIP3    H180167   3.859   2.189   4.515  0.6821 -0.8003 -2.3237
19584TIP3    H280168   3.939   2.221   4.640 -1.3420  0.6291 -1.3416
19585TIP3   OH280169   3.755   0.016  13.399 -0.3377  0.1643  0.0709
19585TIP3    H180170   3.717   0.081  13.340 -1.0206  0.0641  0.3823
19585TIP3    H280171   3.707   0.028  13.481  0.7820  0.4768  0.6889
19586TIP3   OH280172   1.791   2.753   5.782 -0.0738 -0.3271 -0.1517
19586TIP3    H180173   1.733   2.677   5.788  0.5250 -0.6875  1.8889
19586TIP3    H280174   1.735   2.826   5.809  0.0798 -0.4835  0.6042
19587TIP3   OH280175   4.763   4.850  16.989 -0.0644  0.0096 -0.4011
19587TIP3    H180176   4.688   4.897  17.023 -0.9622 -0.5262 -1.5636
19587TIP3    H280177   4.822   4.918  16.957  0.1137  0.4469  0.8111
19588TIP3   OH280178   4.843   6.046   0.673  0.2820 -0.1894  0.1435
19588TIP3    H180179   4.753   6.074   0.686  0.2133 -0.3748  0.0707
19588TIP3    H280180   4.839   5.987   0.598  0.3813 -0.6062  0.4593
19589TIP3   OH280181   4.913   4.480  17.190 -0.0724  0.3265 -0.2803
19589TIP3    H180182   4.983   4.501  17.252 -0.0861  2.8196 -1.0348
19589TIP3    H280183   4.958   4.446  17.113  0.0001 -1.7731  0.5982
19590TIP3   OH280184   2.229   3.459  15.191 -0.0330  0.1121  0.1032
19590TIP3    H180185   2.284   3.389  15.155 -0.7613  0.2321 -1.3135
19590TIP3    H280186   2.231   3.445  15.286  0.2157 -1.5364 -0.1203
19591TIP3   OH280187   6.434   3.191   1.236 -0.2080  0.2189  0.0509
19591TIP3    H180188   6.393   3.167   1.319  0.2288  0.3284  0.3041
19591TIP3    H280189   6.440   3.287   1.240 -0.5122  0.2538 -0.2667
19592TIP3   OH280190   3.974   6.713   4.307 -0.0008 -0.3317  0.3437
19592TIP3    H180191   3.926   6.683   4.230 -0.4679  0.1606  0.4368
19592TIP3    H280192   3.966   6.808   4.305 -0.6786 -0.3510  1.4213
19593TIP3   OH280193   4.484   4.505  11.473 -0.0117 -0.3154  0.2550
19593TIP3    H180194   4.534   4.453  11.410  4.0227  0.3392  2.6064
19593TIP3    H280195   4.462   4.585  11.426  1.3575 -0.5408 -0.8332
19594TIP3   OH280196   0.773   3.771  14.990  0.0205 -0.2137 -0.3470
19594TIP3    H180197   0.790   3.804  15.078 -0.8383  1.5960 -0.8252
19594TIP3    H280198   0.712   3.834  14.952  0.4971 -0.8770 -2.3055
19595TIP3   OH280199   0.933   0.028  13.122 -0.3488  0.8814  0.2045
19595TIP3    H180200   0.909  -0.031  13.192 -0.2020  1.9075  1.1448
19595TIP3    H280201   0.934  -0.027  13.043  1.1463 -0.6653  1.2383
19596TIP3   OH280202   0.604   2.696   0.346  0.1903  0.0032  0.1233
19596TIP3    H180203   0.594   2.774   0.401 -1.1275  0.7544 -1.1471
19596TIP3    H280204   0.618   2.625   0.409  0.6893  1.1245  1.3353
19597TIP3   OH280205   4.927   2.070  15.026  0.2267  0.2969  0.0273
19597TIP3    H180206   4.957   2.142  15.081  1.2449  0.5730 -0.8588
19597TIP3    H280207   4.900   2.002  15.088  2.6206  0.0649  0.9074
19598TIP3   OH280208   2.009   2.702   3.943 -0.5329 -0.1512 -0.3795
19598TIP3    H180209   2.103   2.715   3.933 -0.5021  0.2338  0.2957
19598TIP3    H280210   1.993   2.719   4.036 -1.3647  0.4547 -0.6248
19599TIP3   OH280211   2.029   0.509  14.775 -0.3676  0.3401 -0.5193
19599TIP3    H180212   1.980   0.591  14.784  0.9713  1.2782 -1.4726
19599TIP3    H280213   2.117   0.536  14.750  0.6482 -1.2961  1.0036
19600TIP3   OH280214   0.272   0.320   0.563 -0.1390  0.3966 -0.2264
19600TIP3    H180215   0.202   0.376   0.529  1.2465  1.8877 -0.7285
19600TIP3    H280216   0.281   0.345   0.654 -1.8041 -1.4910  0.5517
19601TIP3   OH280217   2.456   0.999  15.830  0.0515 -0.5301 -0.1251
19601TIP3    H180218   2.374   1.002  15.781 -0.5224  1.7178  0.8155
19601TIP3    H280219   2.471   0.906  15.847 -2.9447 -0.9778  0.6499
19602TIP3   OH280220   4.098   4.519  12.469 -0.6002 -0.8889 -0.4667
19602TIP3    H180221   4.179   4.468  12.462 -0.7890 -1.1056 -1.1674
19602TIP3    H280222   4.028   4.454  12.468 -0.8606 -0.6281 -1.7081
19603TIP3   OH280223   5.424   0.895  12.983  0.2889  0.1448  0.3006
19603TIP3    H180224   5.518   0.910  12.971 -0.2149  3.4881 -0.3875
19603TIP3    H280225   5.409   0.919  13.075  0.0564 -0.1858  0.3494
19604TIP3   OH280226   4.268   6.590   2.541 -0.1992  0.0193 -0.2985
19604TIP3    H180227   4.355   6.631   2.538 -0.1345 -0.0036  0.7100
19604TIP3    H280228   4.207   6.663   2.541 -0.1665  0.0460 -0.6839
19605TIP3   OH280229   1.096   1.377  15.380  0.6685  0.3374  0.7746
19605TIP3    H180230   1.013   1.417  15.353  0.7962  0.7528  0.9891
19605TIP3    H280231   1.070   1.307  15.439  0.5096  1.1593  1.7030
19606TIP3   OH280232   5.591   5.985   4.681 -0.4293 -0.2764  0.1950
19606TIP3    H180233   5.658   5.992   4.749 -0.5136 -1.4582  0.4120
19606TIP3    H280234   5.542   6.067   4.688  0.2143  0.0666  0.8540
19607TIP3   OH280235   3.485   6.086  15.710 -0.2766  0.7688 -0.1820
19607TIP3    H180236   3.510   6.010  15.659  1.8470  1.7784 -0.7645
19607TIP3    H280237   3.415   6.128  15.659 -0.3724  0.0606 -0.6330
19608TIP3   OH280238   5.689   2.915   5.124  0.3566 -0.2492 -0.1281
19608TIP3    H180239   5.673   2.954   5.038  0.4032 -0.9740 -0.4708
19608TIP3    H280240   5.709   2.823   5.106  0.3101 -0.4253  0.6604
19609TIP3   OH280241   0.680   5.517  15.708 -0.2505  0.2657 -0.1752
19609TIP3    H180242   0.644   5.565  15.634 -0.4164 -1.9035 -1.5819
19609TIP3    H280243   0.613   5.526  15.776 -0.3951  1.7428 -0.4763
19610TIP3   OH280244   5.533   5.403  11.564  0.3616  0.1436 -0.5347
19610TIP3    H180245   5.613   5.359  11.532  0.0673 -0.7173 -0.1108
19610TIP3    H280246   5.477   5.408  11.487  0.8057  0.7275 -0.8295
19611TIP3   OH280247   4.497   0.911   2.035 -0.1796  0.2602 -0.0612
19611TIP3    H180248   4.482   0.886   1.943  0.1944  0.9179 -0.3032
19611TIP3    H280249   4.592   0.919   2.042 -0.2389  0.6829  0.2638
19612TIP3   OH280250   3.195   2.823  15.265  0.2403 -0.1356  0.1884
19612TIP3    H180251   3.114   2.814  15.215  0.3338  0.3696 -0.0618
19612TIP3    H280252   3.261   2.779  15.213  0.1234 -0.5645  0.4013
19613TIP3   OH280253   3.708   6.267  13.634 -1.0807  0.0284 -0.0511
19613TIP3    H180254   3.748   6.326  13.698  1.1213 -0.1172 -1.1700
19613TIP3    H280255   3.727   6.180  13.667  1.2394 -0.0725 -1.4533
19614TIP3   OH280256   0.059   1.892  11.800 -0.5035 -0.4624 -0.0255
19614TIP3    H180257   0.015   1.976  11.811  1.6797  0.9799 -1.5032
19614TIP3    H280258   0.110   1.902  11.719  1.4728 -2.4585  0.8660
19615TIP3   OH280259   0.437   1.054   6.530 -0.0597  0.1283 -0.4826
19615TIP3    H180260   0.504   1.010   6.478  0.5208  1.4443 -0.8798
19615TIP3    H280261   0.468   1.046   6.621 -0.6976 -1.5131 -0.3738
19616TIP3   OH280262   0.083   4.649   3.171  0.1822 -0.2239 -0.2502
19616TIP3    H180263   0.081   4.741   3.199 -0.9033 -0.3132  0.0263
19616TIP3    H280264   0.169   4.618   3.198  0.9624  0.9756 -1.2398
19617TIP3   OH280265   3.859   2.617  11.942 -0.2225 -0.3474  0.1843
19617TIP3    H180266   3.815   2.679  12.000  0.5344 -1.8221  2.4741
19617TIP3    H280267   3.789   2.563  11.906 -0.5428 -1.0009  1.7272
19618TIP3   OH280268   2.003   4.234   3.260  0.3567 -0.5242 -0.5773
19618TIP3    H180269   2.020   4.151   3.306  0.9355 -0.0982  0.0040
19618TIP3    H280270   1.949   4.209   3.185  0.8709 -1.4916 -0.6494
19619TIP3   OH280271   1.209   3.437   1.230 -0.0451 -0.5957  0.9793
19619TIP3    H180272   1.235   3.348   1.205 -0.9659 -0.8102  0.7686
19619TIP3    H280273   1.217   3.438   1.325 -1.7834 -1.4984  1.1760
19620TIP3   OH280274   1.490   4.111   3.718 -0.0988  0.0502 -0.3381
19620TIP3    H180275   1.547   4.059   3.663  1.3506 -0.0466  1.1769
19620TIP3    H280276   1.547   4.144   3.788 -1.0538  3.2588 -0.9143
19621TIP3   OH280277   1.057   3.517   0.301  0.0283 -0.0054  0.1468
19621TIP3    H180278   1.037   3.425   0.284  1.6406 -0.3369 -0.1680
19621TIP3    H280279   0.999   3.542   0.373  0.2229 -1.5505  0.8755
19622TIP3   OH280280   6.253   6.242  16.344 -0.2458 -0.2152 -0.4546
19622TIP3    H180281   6.170   6.277  16.309 -0.3613  0.3541  0.3528
19622TIP3    H280282   6.265   6.159  16.298 -2.1498 -1.1568  0.6111
19623TIP3   OH280283   1.440   4.660   3.000  0.1386 -0.4191 -0.2920
19623TIP3    H180284   1.471   4.614   3.078  0.1354 -0.1683 -0.1427
19623TIP3    H280285   1.520   4.696   2.961  0.1753 -0.7865 -0.5632
19624TIP3   OH280286   6.032   3.813   3.462 -0.4757 -0.3660 -0.2393
19624TIP3    H180287   6.016   3.736   3.408 -1.2046  0.1290 -0.7507
19624TIP3    H280288   6.100   3.785   3.523  0.1014 -1.0548 -1.1562
19625TIP3   OH280289   3.380   2.902   2.593 -0.2614 -0.0741  0.0890
19625TIP3    H180290   3.295   2.935   2.562  0.1548  2.0071  1.0408
19625TIP3    H280291   3.432   2.892   2.513 -0.6197  1.0299 -0.3021
19626TIP3   OH280292   1.101   3.691   3.906 -0.0927  0.6567  0.7709
19626TIP3    H180293   1.178   3.682   3.849 -0.0494  0.8982  0.7873
19626TIP3    H280294   1.073   3.602   3.923 -0.4929  0.5880 -0.1676
19627TIP3   OH280295   4.072   6.306  13.747  0.8829 -0.3616 -0.0327
19627TIP3    H180296   4.097   6.219  13.715  2.2956  0.0691 -0.1792
19627TIP3    H280297   3.985   6.293  13.786  0.9730 -1.7855 -0.2379
19628TIP3   OH280298   6.548   2.377   4.892 -0.2177  0.5226  0.5182
19628TIP3    H180299   6.637   2.405   4.914  0.0571  0.0188  0.0792
19628TIP3    H280300   6.506   2.359   4.976  0.6769 -0.9912  0.6827
19629TIP3   OH280301   2.994   4.271  14.225 -0.4646 -0.3669 -0.1961
19629TIP3    H180302   2.956   4.191  14.262  1.6473 -1.8851 -1.1541
19629TIP3    H280303   3.060   4.298  14.289 -1.4316  0.8934  0.3153
19630TIP3   OH280304   1.923   2.597   1.975  0.0736  0.3476  0.1043
19630TIP3    H180305   1.982   2.576   1.903 -3.1979  1.7888 -3.3132
19630TIP3    H280306   1.933   2.691   1.988  0.9627  0.0296  1.9409
19631TIP3   OH280307   2.781   4.861   4.774 -0.8840  0.0281  0.1378
19631TIP3    H180308   2.755   4.930   4.713 -2.2676 -0.6306 -0.0547
19631TIP3    H280309   2.751   4.779   4.732 -1.4622 -0.4690  1.4777
19632TIP3   OH280310   2.855   2.914  14.141  0.3941  0.3410 -0.6468
19632TIP3    H180311   2.773   2.936  14.097  0.0312  1.3317  0.4803
19632TIP3    H280312   2.918   2.901  14.069 -0.8951 -1.2521 -1.5499
19633TIP3   OH280313   3.980   4.793  10.535 -0.3346 -0.0938  0.1166
19633TIP3    H180314   3.982   4.787  10.631 -0.3967 -1.0881  0.0577
19633TIP3    H280315   4.014   4.710  10.504 -1.0111 -0.0716 -0.7340
19634TIP3   OH280316   1.267   0.052   2.544  1.1994  0.4894  0.3655
19634TIP3    H180317   1.246   0.141   2.571 -1.9823 -0.2711  0.8341
19634TIP3    H280318   1.245   0.049   2.451  2.2485  0.4392  0.1148
19635TIP3   OH280319   2.250   4.080   6.124 -0.4049  0.1101 -0.5837
19635TIP3    H180320   2.245   4.093   6.219 -1.5295  0.2103 -0.6393
19635TIP3    H280321   2.243   3.985   6.113  1.6951 -0.1097 -0.4941
19636TIP3   OH280322   4.283   3.817   6.268  0.1227  0.2887 -0.0239
19636TIP3    H180323   4.346   3.887   6.254 -1.2999  1.1950 -2.4174
19636TIP3    H280324   4.211   3.859   6.316 -1.0678  0.7546 -2.1070
19637TIP3   OH280325   5.983   3.315   4.962 -0.1241 -0.2203  0.0019
19637TIP3    H180326   6.015   3.237   5.007 -1.1637 -0.1131  0.9924
19637TIP3    H280327   5.888   3.311   4.971 -0.1902  1.2759  0.3095
19638TIP3   OH280328   4.604   3.371  14.955 -0.0914 -0.7386 -0.2735
19638TIP3    H180329   4.524   3.375  15.008 -0.3278 -0.3856 -0.6516
19638TIP3    H280330   4.575   3.393  14.867  0.6869  1.0114 -0.1283
19639TIP3   OH280331   0.745   4.650  12.858 -0.1730  0.1592 -0.5906
19639TIP3    H180332   0.757   4.609  12.943  1.4222 -0.5254 -1.1123
19639TIP3    H280333   0.718   4.740  12.878 -0.0329 -0.0527  0.6200
19640TIP3   OH280334   1.233   1.193   0.533  0.1754  0.2173 -0.2262
19640TIP3    H180335   1.259   1.162   0.446 -1.5691  0.0302 -0.7309
19640TIP3    H280336   1.296   1.153   0.593 -1.0102 -3.1768 -0.9847
19641TIP3   OH280337   6.230   5.542  11.850 -0.7194  0.1781  0.3000
19641TIP3    H180338   6.265   5.454  11.862  1.7527  1.0162 -0.1664
19641TIP3    H280339   6.194   5.541  11.761 -1.4404 -0.5607  0.5885
19642TIP3   OH280340   4.343   1.228  16.857 -0.3372  0.3366 -0.0249
19642TIP3    H180341   4.333   1.138  16.828 -1.4429  0.1215  0.9383
19642TIP3    H280342   4.306   1.229  16.946 -3.2857  2.3725 -1.1042
19643TIP3   OH280343   5.006   0.386  17.104 -0.1326  0.3733 -0.0288
19643TIP3    H180344   4.990   0.354  17.015  0.8223  0.3370 -0.1981
19643TIP3    H280345   5.088   0.344  17.130 -0.5968  0.0857  1.0205
19644TIP3   OH280346   1.894   3.033   2.946 -0.4529  0.0484  0.5282
19644TIP3    H180347   1.892   3.011   2.852 -0.4441  0.6381  0.3862
19644TIP3    H280348   1.881   2.949   2.990  0.9784 -0.4688  0.0258
19645TIP3   OH280349   5.867   5.976   4.804 -0.1451  0.1795  0.3241
19645TIP3    H180350   5.908   6.063   4.808 -0.2732  0.2303  0.5918
19645TIP3    H280351   5.932   5.918   4.843 -0.1162  0.1778  0.2732
19646TIP3   OH280352   3.159   4.425  15.684  0.3862  0.0154 -0.4321
19646TIP3    H180353   3.237   4.446  15.632 -0.4056 -0.0294 -1.6917
19646TIP3    H280354   3.105   4.372  15.626  0.5915 -2.3037  1.3462
19647TIP3   OH280355   4.513   3.944   6.551  0.6108  0.0729 -0.3369
19647TIP3    H180356   4.429   3.898   6.550  1.1832 -0.9878 -0.7614
19647TIP3    H280357   4.489   4.036   6.563 -0.7026 -0.0282 -1.8860
19648TIP3   OH280358   1.038   0.941  16.515 -0.2663 -0.1708  0.7627
19648TIP3    H180359   1.109   0.879  16.532  2.1580  1.8262 -1.2197
19648TIP3    H280360   1.021   0.982  16.600  0.0413 -1.5378  1.5212
19649TIP3   OH280361   3.866   4.182  15.540 -0.5139 -0.2174 -0.2787
19649TIP3    H180362   3.936   4.243  15.564 -1.8586  0.3774  2.5356
19649TIP3    H280363   3.808   4.233  15.484 -1.0759  0.8244  1.1951
19650TIP3   OH280364   0.988   4.565  11.362 -0.7076  0.1612 -0.1505
19650TIP3    H180365   0.958   4.647  11.324 -2.0127 -0.5888 -0.7999
19650TIP3    H280366   1.012   4.511  11.287  0.0636 -0.0904  0.2678
19651TIP3   OH280367   2.743   6.637   5.691  0.0225 -0.2642 -0.2777
19651TIP3    H180368   2.765   6.546   5.713  1.1750 -0.3319 -1.5822
19651TIP3    H280369   2.651   6.633   5.664 -0.6710 -0.5947  1.9477
19652TIP3   OH280370   5.795   5.862   3.382  0.0730  0.8184 -0.5328
19652TIP3    H180371   5.725   5.805   3.349 -1.8026  1.5863  1.8065
19652TIP3    H280372   5.866   5.802   3.403 -0.7868 -0.3265 -0.7567
19653TIP3   OH280373   4.006   6.674   2.251 -0.3281 -0.0411  0.0941
19653TIP3    H180374   3.911   6.666   2.261 -0.2366  0.3132  1.3840
19653TIP3    H280375   4.038   6.692   2.339  0.8915  0.3560 -0.4145
19654TIP3   OH280376   3.118   2.460   2.338  0.2850 -1.0505  0.0257
19654TIP3    H180377   3.185   2.526   2.327 -1.1053  0.4223 -0.0008
19654TIP3    H280378   3.099   2.460   2.432  1.4838 -2.6871  0.2987
19655TIP3   OH280379   1.757   6.604  11.972 -0.4367  0.3041  0.2521
19655TIP3    H180380   1.739   6.698  11.981  1.2866  0.7375 -0.4054
19655TIP3    H280381   1.671   6.562  11.984 -0.9530  1.7971  2.5320
19656TIP3   OH280382   1.973   3.297  12.928 -0.4483  0.0414  0.6210
19656TIP3    H180383   1.976   3.206  12.958  1.6357  0.2060  1.0738
19656TIP3    H280384   1.918   3.342  12.992  2.1153 -0.0657  3.1053
19657TIP3   OH280385   3.579   3.981  11.207  0.2789  0.3427 -1.2144
19657TIP3    H180386   3.627   3.900  11.225  0.0068  0.8111  2.4151
19657TIP3    H280387   3.624   4.048  11.258 -1.6862  1.6871 -1.1052
19658TIP3   OH280388   1.167   0.912   0.775 -0.4571  0.7839  0.2529
19658TIP3    H180389   1.246   0.953   0.740  0.3820  0.0964  1.2809
19658TIP3    H280390   1.124   0.981   0.825 -0.0577  0.9245  0.4026
19659TIP3   OH280391   2.061   1.450  13.283 -0.1789  0.0785  0.3063
19659TIP3    H180392   2.013   1.419  13.206 -0.4341 -1.6139  1.1077
19659TIP3    H280393   2.148   1.411  13.274  0.2837  1.1135  0.1313
19660TIP3   OH280394   1.922   3.064   6.252 -0.1425 -0.8772 -0.2209
19660TIP3    H180395   1.972   3.130   6.301  0.1810 -0.6766 -0.8079
19660TIP3    H280396   1.922   2.987   6.309 -0.3582 -0.4326  0.3904
19661TIP3   OH280397   5.793   1.831  13.024 -0.1523  0.6202 -0.8391
19661TIP3    H180398   5.765   1.739  13.031  0.4577  0.2852 -2.4376
19661TIP3    H280399   5.730   1.879  13.077 -1.0725 -0.6199 -0.7675
19662TIP3   OH280400   6.487   5.155   1.298  0.1933 -0.3483 -0.3587
19662TIP3    H180401   6.480   5.168   1.203 -1.3102 -0.8510 -0.3422
19662TIP3    H280402   6.423   5.217   1.335 -0.4966 -1.3761  0.2046
19663TIP3   OH280403   5.863   2.547   0.545 -0.0424  0.2734 -0.4096
19663TIP3    H180404   5.940   2.544   0.601 -1.1120 -0.5401  1.1099
19663TIP3    H280405   5.824   2.633   0.561 -1.7133 -0.8328  2.1702
19664TIP3   OH280406   4.390   5.479   5.490 -0.3721  0.4701  0.2507
19664TIP3    H180407   4.401   5.385   5.501  0.6888  0.4296 -0.9355
19664TIP3    H280408   4.342   5.488   5.407  1.3237  0.9976 -0.7177
19665TIP3   OH280409   4.202   1.844  14.810 -0.3514  0.1979 -0.0935
19665TIP3    H180410   4.185   1.756  14.843  0.5512  0.1875  0.4018
19665TIP3    H280411   4.157   1.902  14.871  0.5223  0.1387  0.6272
19666TIP3   OH280412   2.464   5.087  14.940  0.1294 -0.4033  0.1468
19666TIP3    H180413   2.546   5.091  14.891  0.5695  0.5223  0.9302
19666TIP3    H280414   2.490   5.065  15.029 -0.2106  1.9734  0.9108
19667TIP3   OH280415   6.407   6.068   3.886 -0.4782 -0.1386  0.0562
19667TIP3    H180416   6.383   6.059   3.978 -1.9410  1.2744 -0.1434
19667TIP3    H280417   6.484   6.013   3.876 -0.5796 -0.7117  2.0059
19668TIP3   OH280418   6.149   2.916   2.074 -0.3766  0.1601  0.1741
19668TIP3    H180419   6.193   2.996   2.105 -1.1847  1.0190 -0.8375
19668TIP3    H280420   6.129   2.868   2.154 -1.1172  1.6404  0.9266
19669TIP3   OH280421   5.594   0.072   2.960  0.2646 -0.2584 -0.2078
19669TIP3    H180422   5.631   0.146   2.912 -0.8535  0.3672 -0.1545
19669TIP3    H280423   5.610   0.093   3.052  0.6851 -0.5000 -0.2236
19670TIP3   OH280424   5.190   3.309   0.995  0.7401 -0.6522  0.1568
19670TIP3    H180425   5.150   3.232   1.035  1.5323 -1.9298 -1.3770
19670TIP3    H280426   5.283   3.302   1.019  1.1859 -1.3211 -1.6099
19671TIP3   OH280427   5.447   6.560   6.286  0.0563  0.0617  0.5907
19671TIP3    H180428   5.420   6.500   6.356 -2.0641 -0.0343 -0.2378
19671TIP3    H280429   5.444   6.647   6.327 -1.3266  0.0224  0.6105
19672TIP3   OH280430   0.345   1.010   4.921  0.1430 -0.4184 -0.1954
19672TIP3    H180431   0.345   1.093   4.969  1.3789 -0.6214  0.1893
19672TIP3    H280432   0.368   0.945   4.987  1.1391 -0.8004 -0.8947
19673TIP3   OH280433   1.724   0.477   3.801 -0.3357 -0.1888 -0.1213
19673TIP3    H180434   1.701   0.538   3.731 -0.1691  1.1468  0.9537
19673TIP3    H280435   1.743   0.395   3.755  0.9762  0.9609 -1.7745
19674TIP3   OH280436   1.671   0.636   1.575 -0.0477  0.8151  0.5730
19674TIP3    H180437   1.751   0.682   1.549 -1.0072  1.1537 -2.0592
19674TIP3    H280438   1.694   0.543   1.569 -0.4158  0.8390 -2.5212
19675TIP3   OH280439   5.193   4.650  11.194  0.3815  0.0147  0.9728
19675TIP3    H180440   5.277   4.672  11.233  0.8095 -0.0848  0.1395
19675TIP3    H280441   5.155   4.735  11.169  0.4671  0.0275  0.8863
19676TIP3   OH280442   6.163   6.500  11.634  0.1104 -0.0937  0.2569
19676TIP3    H180443   6.208   6.501  11.718 -0.4674 -0.9484  0.5989
19676TIP3    H280444   6.149   6.592  11.612  1.5671  0.1681  0.3676
19677TIP3   OH280445   5.720   5.932  13.102 -0.4677 -0.0705  0.2766
19677TIP3    H180446   5.714   6.025  13.122 -1.0074 -0.1997  0.7295
19677TIP3    H280447   5.814   5.914  13.102 -0.3260  0.5947 -0.4133
19678TIP3   OH280448   5.500   1.854   1.418 -0.0679 -0.2016  0.5486
19678TIP3    H180449   5.556   1.927   1.446 -0.9412  1.0814 -0.8673
19678TIP3    H280450   5.429   1.853   1.481 -0.8048  1.1586 -0.1970
19679TIP3   OH280451   4.025   1.859  17.038 -0.1064 -0.1396  0.0932
19679TIP3    H180452   4.107   1.820  17.008 -0.3794 -0.0972 -0.7316
19679TIP3    H280453   4.021   1.944  16.994 -0.2936  0.1378  0.6254
19680TIP3   OH280454   2.323   3.244  16.623 -0.0126 -0.1024 -0.0755
19680TIP3    H180455   2.238   3.248  16.668 -0.6140 -0.9043 -1.0854
19680TIP3    H280456   2.370   3.322  16.653  0.9231 -2.0718  4.4427
19681TIP3   OH280457   3.215   5.774   1.384 -0.2684  0.2396 -0.2058
19681TIP3    H180458   3.285   5.765   1.319 -0.3506  0.6076 -0.3429
19681TIP3    H280459   3.261   5.785   1.467 -0.1620  0.3133 -0.2742
19682TIP3   OH280460   6.363   3.671   2.422  0.4700 -0.1810 -0.1943
19682TIP3    H180461   6.298   3.741   2.410 -0.2068 -0.7019  0.3712
19682TIP3    H280462   6.356   3.647   2.514  1.6716 -0.0635 -0.0505
19683TIP3   OH280463   4.409   4.586  14.427  0.7529 -0.2770 -0.5849
19683TIP3    H180464   4.470   4.631  14.368 -0.5055  0.0313 -1.7207
19683TIP3    H280465   4.334   4.645  14.432  0.1405 -1.0894 -0.0124
19684TIP3   OH280466   3.355   4.957  13.237 -0.0903 -0.3003 -0.1658
19684TIP3    H180467   3.415   4.952  13.311 -3.0896  0.5298  2.5069
19684TIP3    H280468   3.378   5.038  13.193  1.1414 -0.3338  0.3711
19685TIP3   OH280469   3.133   1.894  14.175 -0.4226 -0.4452 -0.4926
19685TIP3    H180470   3.054   1.919  14.222  0.3807 -0.5089  0.9404
19685TIP3    H280471   3.191   1.970  14.184  0.1878 -0.9179 -0.3341
19686TIP3   OH280472   3.650   2.257  14.162 -0.3047  0.1361 -0.1824
19686TIP3    H180473   3.724   2.286  14.108 -2.5938  1.5916 -2.7613
19686TIP3    H280474   3.592   2.333  14.165 -1.5032 -0.7865  2.2455
19687TIP3   OH280475   0.513   5.799   0.306 -0.0856  0.2487  0.4096
19687TIP3    H180476   0.469   5.799   0.391 -0.9499 -2.2978  0.0357
19687TIP3    H280477   0.606   5.785   0.327 -0.0282  1.3362  0.9748
19688TIP3   OH280478   0.461   2.981   0.387  0.2089  0.3438 -0.5939
19688TIP3    H180479   0.388   3.028   0.428 -1.0983 -1.1776 -1.0857
19688TIP3    H280480   0.537   3.004   0.440 -1.0680  0.0531  1.4560
19689TIP3   OH280481   1.079   0.464   1.689  0.5955  0.2528  0.2867
19689TIP3    H180482   1.076   0.510   1.773 -0.9890 -0.2515  0.5380
19689TIP3    H280483   0.989   0.466   1.657  0.9083 -0.7881 -0.7405
19690TIP3   OH280484   5.060   6.509   5.016 -0.4642 -0.7809 -0.4325
19690TIP3    H180485   5.063   6.508   4.921  0.8454  0.1276 -0.4179
19690TIP3    H280486   5.112   6.434   5.043  1.4957  0.5160 -0.4381
19691TIP3   OH280487   1.043   4.345   5.804  0.4852 -0.5380  0.0341
19691TIP3    H180488   1.044   4.436   5.776  1.4099  0.8311  3.8989
19691TIP3    H280489   0.956   4.312   5.779 -1.0043  2.3242  1.1051
19692TIP3   OH280490   2.580   4.052   1.315  0.1588  0.0981 -0.2166
19692TIP3    H180491   2.617   4.140   1.309  0.9482 -0.0519  1.6832
19692TIP3    H280492   2.638   3.998   1.260  1.6297  0.2248  1.1423
19693TIP3   OH280493   5.154   1.684   1.019 -0.2548 -0.2738 -0.1623
19693TIP3    H180494   5.116   1.708   1.103 -3.9433 -1.7214 -1.2067
19693TIP3    H280495   5.164   1.767   0.972 -0.6025  0.3279  0.8081
19694TIP3   OH280496   5.871   3.771  13.815  0.2430 -0.1773  0.3911
19694TIP3    H180497   5.855   3.787  13.908 -1.3017 -0.5079  0.2132
19694TIP3    H280498   5.860   3.676  13.805 -1.1932  0.0460 -0.3839
19695TIP3   OH280499   4.503   4.889   1.167 -0.0275  0.2640 -0.2154
19695TIP3    H180500   4.518   4.880   1.073 -0.0203  0.2839 -0.2160
19695TIP3    H280501   4.541   4.973   1.190 -0.3604  0.4315 -0.2638
19696TIP3   OH280502   4.767   6.370  14.558  0.5545 -0.5057 -0.2284
19696TIP3    H180503   4.859   6.356  14.580  0.4974  0.5049  0.7603
19696TIP3    H280504   4.741   6.291  14.510  1.8042 -1.0070 -0.1089
19697TIP3   OH280505   0.985   0.968   5.324 -0.5174 -0.8547  0.1208
19697TIP3    H180506   0.961   1.055   5.355 -0.0099 -1.1289  1.3764
19697TIP3    H280507   0.987   0.975   5.229 -0.6912  0.4411  0.1996
19698TIP3   OH280508   1.612   5.302  13.157  0.5286 -0.2497 -0.6965
19698TIP3    H180509   1.658   5.223  13.186  0.8835  0.1480 -0.1584
19698TIP3    H280510   1.630   5.367  13.225 -0.8397 -0.0825 -0.4639
19699TIP3   OH280511   1.819   1.142  14.773  0.2426 -0.7821 -0.0104
19699TIP3    H180512   1.874   1.147  14.851 -0.1130  0.4975  0.1814
19699TIP3    H280513   1.843   1.218  14.721 -0.2978 -1.0194 -0.6319
19700TIP3   OH280514   4.320   2.728   0.992  0.6204  0.2835 -0.6294
19700TIP3    H180515   4.310   2.687   1.078 -1.7029  1.5310 -0.2264
19700TIP3    H280516   4.269   2.673   0.932 -0.0991  0.9250 -0.6333
19701TIP3   OH280517   2.686   6.086   6.458  0.2091  0.2710  0.3562
19701TIP3    H180518   2.765   6.140   6.464  0.1152  0.5650 -0.7204
19701TIP3    H280519   2.616   6.143   6.489  0.1134  0.7925 -0.7624
19702TIP3   OH280520   5.582   3.133  14.348  0.0100  0.0760 -0.1521
19702TIP3    H180521   5.546   3.095  14.268  1.6219  0.6244 -1.1725
19702TIP3    H280522   5.524   3.207  14.368 -2.3503 -1.9579  1.0958
19703TIP3   OH280523   0.533   1.997  11.696  0.4781  0.1834 -0.3431
19703TIP3    H180524   0.514   1.945  11.618 -0.2985  0.0300 -0.0576
19703TIP3    H280525   0.616   1.961  11.729  0.4886 -0.1678 -0.7438
19704TIP3   OH280526   4.603   2.603  12.278 -0.1298 -0.1260 -0.0136
19704TIP3    H180527   4.664   2.535  12.308 -1.1269 -0.0315  2.4288
19704TIP3    H280528   4.619   2.609  12.183  0.9493 -2.7768 -0.0941
19705TIP3   OH280529   0.885   3.739  16.330 -0.1006  0.4039 -0.0278
19705TIP3    H180530   0.878   3.679  16.256 -1.3933  1.1623 -0.5528
19705TIP3    H280531   0.979   3.745  16.347  0.2759  0.5144 -1.8773
19706TIP3   OH280532   0.027   0.186  11.965 -0.6628 -0.0577  0.7094
19706TIP3    H180533   0.053   0.108  12.014 -1.7321  0.3767  2.0428
19706TIP3    H280534  -0.002   0.248  12.032 -2.6215  0.3977 -0.4639
19707TIP3   OH280535   2.272   0.239  13.104 -0.2773 -0.2982 -0.0558
19707TIP3    H180536   2.213   0.192  13.046  0.4241  0.7857 -1.7555
19707TIP3    H280537   2.347   0.181  13.114  0.3135  0.1198 -1.6387
19708TIP3   OH280538   0.016   0.539   1.415  0.0266  0.3507  0.4199
19708TIP3    H180539  -0.005   0.451   1.384 -0.5362  0.8277 -0.5910
19708TIP3    H280540  -0.068   0.585   1.417  0.2483  0.7516  1.3668
19709TIP3   OH280541   5.818   2.582  15.056  0.1779 -0.0439  0.5559
19709TIP3    H180542   5.848   2.648  15.118 -0.2766 -0.0803  0.8209
19709TIP3    H280543   5.769   2.630  14.990  2.3459  0.2580 -0.9169
19710TIP3   OH280544   0.461   5.605   2.677  0.9446 -0.0282  0.1476
19710TIP3    H180545   0.549   5.626   2.643  0.6668  0.6982 -0.1355
19710TIP3    H280546   0.405   5.674   2.643  0.1232 -0.8696 -0.2423
19711TIP3   OH280547   4.894   2.147   4.812  0.8973  0.4831 -0.4533
19711TIP3    H180548   4.979   2.124   4.851  1.0847  0.8333 -0.6473
19711TIP3    H280549   4.913   2.155   4.718  0.5357  0.0447 -0.5633
19712TIP3   OH280550   2.221   3.365   4.539 -0.3797  1.2513  0.4192
19712TIP3    H180551   2.232   3.359   4.444 -0.7984  2.7316  0.2491
19712TIP3    H280552   2.209   3.274   4.567  0.8944  0.6712 -0.7759
19713TIP3   OH280553   0.290   0.978  14.499  0.4074  0.0623 -0.5050
19713TIP3    H180554   0.195   0.964  14.503  0.2935  1.0012  0.6670
19713TIP3    H280555   0.302   1.043  14.431  0.3088 -0.6952 -1.2667
19714TIP3   OH280556   5.574   3.186  13.727  0.0558 -0.0804 -0.1538
19714TIP3    H180557   5.482   3.165  13.715  0.0261 -0.9115  1.3834
19714TIP3    H280558   5.621   3.116  13.681 -0.0600  0.1504 -0.6330
19715TIP3   OH280559   2.113   6.667  12.610  0.0816  0.1012 -0.1718
19715TIP3    H180560   2.118   6.573  12.628  0.5851  0.4653  1.6945
19715TIP3    H280561   2.035   6.676  12.555 -1.0468 -1.1998  1.1458
19716TIP3   OH280562   4.515   4.792  15.451 -0.0745 -0.5746  0.4656
19716TIP3    H180563   4.466   4.834  15.522 -1.6766  0.5116 -1.1908
19716TIP3    H280564   4.552   4.865  15.401  1.1242 -1.3221  0.2333
19717TIP3   OH280565   4.432   1.862   0.645  0.3558 -0.1529  0.0516
19717TIP3    H180566   4.494   1.806   0.692  0.0305 -0.5399  0.0282
19717TIP3    H280567   4.372   1.892   0.713  0.2599 -0.2017 -0.0120
19718TIP3   OH280568   4.860   3.265   1.208 -0.4016  1.1611 -0.2282
19718TIP3    H180569   4.929   3.239   1.146 -0.5715  2.8141 -1.1708
19718TIP3    H280570   4.836   3.184   1.252 -0.2615 -0.1049 -2.3243
19719TIP3   OH280571   1.336   1.617  16.632  0.0958 -0.1710 -0.2897
19719TIP3    H180572   1.358   1.702  16.671  0.4575  0.2872 -1.4556
19719TIP3    H280573   1.282   1.574  16.699  2.4034 -0.3112  1.6368
19720TIP3   OH280574   1.096   2.658   0.975  0.1221 -0.5645  0.6511
19720TIP3    H180575   1.127   2.609   0.898 -2.1385 -0.6981 -0.2543
19720TIP3    H280576   1.131   2.747   0.962  1.9610 -1.2024  0.8917
19721TIP3   OH280577   4.160   5.868  16.661  0.6669 -0.2889  0.1685
19721TIP3    H180578   4.113   5.939  16.617 -0.7361 -0.8126  0.7583
19721TIP3    H280579   4.237   5.909  16.699  0.5044  0.6742 -0.5071
19722TIP3   OH280580   0.390   6.373  11.053 -0.3033 -0.4288 -0.0883
19722TIP3    H180581   0.455   6.382  11.122  0.7346 -0.1156 -1.0828
19722TIP3    H280582   0.356   6.461  11.040  1.1069 -0.0498 -1.4725
19723TIP3   OH280583   5.463   2.374  14.337 -0.8210 -0.0722  0.2974
19723TIP3    H180584   5.527   2.423  14.389 -0.1927 -1.0217  0.4558
19723TIP3    H280585   5.436   2.302  14.395 -2.5013  0.6470  0.4494
19724TIP3   OH280586   3.039   1.807   3.425  0.0790  0.1211 -0.0796
19724TIP3    H180587   3.059   1.718   3.398  0.9854  0.0446  0.7825
19724TIP3    H280588   3.108   1.860   3.387  1.4257  0.0024  2.0305
19725TIP3   OH280589   1.197   4.788  14.420 -0.1146 -0.3026 -0.2164
19725TIP3    H180590   1.258   4.715  14.434 -0.1116 -0.6714 -1.8808
19725TIP3    H280591   1.159   4.770  14.334 -1.9488  0.3727  0.4146
19726TIP3   OH280592   0.128   4.363   4.491  0.1621  0.3030  0.1198
19726TIP3    H180593   0.169   4.285   4.453 -0.9050  1.1055 -2.9611
19726TIP3    H280594   0.044   4.332   4.524  0.3739 -0.1296  0.2545
19727TIP3   OH280595   3.694   0.756   2.482  0.0085 -0.2830  0.0891
19727TIP3    H180596   3.763   0.741   2.547 -1.2277  2.1037  2.1428
19727TIP3    H280597   3.618   0.709   2.516 -0.0954 -0.7764 -0.7951
19728TIP3   OH280598   4.680   2.538   6.908  0.0420 -0.0002  0.5922
19728TIP3    H180599   4.609   2.475   6.897 -0.4471  0.6868 -0.2853
19728TIP3    H280600   4.695   2.540   7.003 -0.2112 -1.1100  0.6728
19729TIP3   OH280601   4.512   6.494  16.737 -0.7155 -0.0244  0.2098
19729TIP3    H180602   4.508   6.542  16.820 -0.8005 -0.0447  0.2173
19729TIP3    H280603   4.572   6.421  16.754 -1.1071 -0.3071  0.3993
19730TIP3   OH280604   6.329   5.758   1.076 -0.1437  0.3279  0.4041
19730TIP3    H180605   6.307   5.847   1.106  0.3558  0.5683  0.0728
19730TIP3    H280606   6.421   5.763   1.051 -0.3796 -0.0079 -0.6149
19731TIP3   OH280607   2.827   1.322  13.021  0.2511 -0.1424 -0.5589
19731TIP3    H180608   2.892   1.318  12.951 -0.8767 -1.1675 -1.5951
19731TIP3    H280609   2.773   1.398  13.000  1.9424  1.6422  1.1331
19732TIP3   OH280610   3.448   4.950  13.998 -0.7365 -0.2102  0.3383
19732TIP3    H180611   3.501   4.873  13.979 -1.5880 -0.3489 -1.7487
19732TIP3    H280612   3.358   4.916  14.005 -1.0552  0.5154 -0.1033
19733TIP3   OH280613   1.918   1.277  13.436 -0.3092 -0.0882  0.0204
19733TIP3    H180614   1.940   1.366  13.411  0.3774 -0.4921 -0.8917
19733TIP3    H280615   1.824   1.278  13.450 -0.0063  1.3570  2.5254
19734TIP3   OH280616   6.396   4.247   3.280 -0.0665  0.1944  0.6820
19734TIP3    H180617   6.317   4.195   3.265  0.4988 -0.9184  1.4320
19734TIP3    H280618   6.420   4.279   3.193 -0.5841 -0.5946  0.2299
19735TIP3   OH280619   0.962   5.439   2.652  0.2734 -0.1049  0.2144
19735TIP3    H180620   0.988   5.411   2.564 -0.3732 -2.6066  0.7126
19735TIP3    H280621   0.867   5.437   2.650  0.2417 -1.7586  1.3494
19736TIP3   OH280622   0.430   2.436   0.916 -0.0853  0.3068  0.3446
19736TIP3    H180623   0.456   2.376   0.986 -2.0240  0.3575  1.1614
19736TIP3    H280624   0.430   2.522   0.957 -0.6184  0.4168  0.1237
19737TIP3   OH280625   4.084   4.289   1.366 -1.4096 -0.2024  0.4808
19737TIP3    H180626   4.087   4.239   1.285  0.0419 -0.7273  0.8280
19737TIP3    H280627   4.143   4.363   1.351  0.8977 -1.6319  1.8397
19738TIP3   OH280628   3.443   1.633   2.826 -0.3124 -0.3940 -0.1208
19738TIP3    H180629   3.481   1.658   2.742 -0.1403  0.1498  0.1127
19738TIP3    H280630   3.518   1.602   2.878 -0.2179  0.4564  0.2598
19739TIP3   OH280631   1.465   2.554  16.493  0.1551  0.8719 -0.2755
19739TIP3    H180632   1.441   2.466  16.522 -0.9608  1.5630  0.9893
19739TIP3    H280633   1.414   2.568  16.413  2.2766 -0.5568 -1.9960
19740TIP3   OH280634   1.733   3.833   0.669 -0.0944 -0.2439  0.0093
19740TIP3    H180635   1.710   3.925   0.674  1.5218  0.2539 -0.9855
19740TIP3    H280636   1.651   3.789   0.643 -0.9704  0.8312  0.8510
19741TIP3   OH280637   3.465   4.038  15.265  0.0805  0.0935  0.1348
19741TIP3    H180638   3.461   3.944  15.246 -0.0661  0.3198 -0.9781
19741TIP3    H280639   3.448   4.081  15.181 -1.5361  1.1351  0.9570
19742TIP3   OH280640   6.297   6.481  13.511  0.3992 -0.2982 -0.0714
19742TIP3    H180641   6.304   6.540  13.436  0.0228  0.5743  0.5688
19742TIP3    H280642   6.239   6.526  13.573  0.1188 -1.3245  0.4474
19743TIP3   OH280643   1.018   1.287  16.052 -0.0692 -0.3395 -0.1244
19743TIP3    H180644   0.978   1.244  16.127 -0.3368 -0.3519 -0.2753
19743TIP3    H280645   1.048   1.371  16.086 -1.9583  0.5077 -0.4616
19744TIP3   OH280646   0.613   1.415  11.461  0.2689 -0.4928 -0.0372
19744TIP3    H180647   0.529   1.452  11.432  0.1655 -0.3799  0.4002
19744TIP3    H280648   0.616   1.434  11.555  0.7061 -0.6522 -0.0197
19745TIP3   OH280649   2.567   4.141   3.597 -0.2269  0.0419  0.0581
19745TIP3    H180650   2.652   4.136   3.640 -0.5437 -1.3299  0.5682
19745TIP3    H280651   2.503   4.130   3.668 -0.9740  3.2513  0.0696
19746TIP3   OH280652   6.668   0.453   1.759  0.4430  0.2658  0.7136
19746TIP3    H180653   6.638   0.469   1.849 -1.7410 -1.3188  0.3415
19746TIP3    H280654   6.705   0.365   1.761  3.7678  1.5066  0.7426
19747TIP3   OH280655   5.035   3.528  15.709  0.3621 -0.4205 -0.1272
19747TIP3    H180656   5.123   3.508  15.677 -0.4761 -1.3578 -1.9916
19747TIP3    H280657   5.007   3.446  15.751 -0.0983 -0.5586 -0.6975
19748TIP3   OH280658   1.237   3.474   1.517 -0.9487  0.2312  0.2976
19748TIP3    H180659   1.166   3.535   1.535 -2.3316 -1.1401 -0.3043
19748TIP3    H280660   1.224   3.402   1.578 -1.1458 -0.8465 -0.9498
19749TIP3   OH280661   4.665   2.303  12.001 -0.2200  0.0907 -0.1925
19749TIP3    H180662   4.704   2.216  12.000 -1.0642 -0.3008  0.5550
19749TIP3    H280663   4.710   2.349  12.072 -0.8209 -0.2340  0.4091
19750TIP3   OH280664   2.841   6.309   2.411 -0.0222 -0.0495  0.2349
19750TIP3    H180665   2.818   6.258   2.488 -0.4328 -0.8984 -0.4325
19750TIP3    H280666   2.935   6.292   2.398  0.3975  1.2032  1.3269
19751TIP3   OH280667   4.959   4.671  14.420 -0.2060 -0.0084 -0.3693
19751TIP3    H180668   4.975   4.654  14.513  0.6914 -0.3785 -0.5801
19751TIP3    H280669   5.044   4.659  14.378 -1.0064 -2.0628 -1.5703
19752TIP3   OH280670   0.377   2.611  12.232  0.2480 -0.1552  0.2890
19752TIP3    H180671   0.302   2.639  12.179  0.8206 -0.0641 -0.4980
19752TIP3    H280672   0.367   2.516  12.238  1.1479 -0.4230 -1.5861
19753TIP3   OH280673   5.674   5.768   0.804  0.3523  0.4357 -0.2172
19753TIP3    H180674   5.652   5.736   0.892  0.9557 -0.5183 -0.3997
19753TIP3    H280675   5.679   5.864   0.814 -1.0410  0.4630  0.4414
19754TIP3   OH280676   2.081   3.206   4.916  0.4545  0.3580  0.0152
19754TIP3    H180677   2.154   3.249   4.960  1.7356 -3.0173  1.5264
19754TIP3    H280678   2.052   3.138   4.978 -2.3524 -0.0447 -1.5680
19755TIP3   OH280679   1.663   5.806   4.259 -0.4555  0.1935  0.3075
19755TIP3    H180680   1.753   5.778   4.277 -1.3211 -3.0502  0.2478
19755TIP3    H280681   1.672   5.896   4.227  2.6261  0.4064  1.3770
19756TIP3   OH280682   4.941   4.271  16.465 -0.3404 -0.1070 -0.6765
19756TIP3    H180683   4.901   4.355  16.486 -0.8628 -0.4554 -0.2498
19756TIP3    H280684   4.914   4.252  16.376 -1.0275 -0.2751 -0.4353
19757TIP3   OH280685   1.929   4.017  11.389  0.7000 -0.0945  0.2785
19757TIP3    H180686   1.878   4.058  11.459 -1.7952 -0.2280 -1.3232
19757TIP3    H280687   1.959   4.090  11.335  0.6852 -0.0876  0.2793
19758TIP3   OH280688   2.128   0.185  17.369 -0.6514 -0.0323  0.3214
19758TIP3    H180689   2.056   0.126  17.348  0.4340 -1.5963  0.7987
19758TIP3    H280690   2.086   0.259  17.413 -1.9212 -1.1712  1.1111
19759TIP3   OH280691   0.125   1.085   4.437 -0.2179  0.1896 -0.0904
19759TIP3    H180692   0.072   1.036   4.501  1.1463 -0.7374  0.3685
19759TIP3    H280693   0.066   1.153   4.405 -1.5120 -0.4531  0.8176
19760TIP3   OH280694   4.613   6.549   4.064 -0.2563 -0.6866 -0.3650
19760TIP3    H180695   4.617   6.457   4.040 -1.7909 -0.8620 -0.0666
19760TIP3    H280696   4.536   6.556   4.121 -1.8566  1.2206 -2.5544
19761TIP3   OH280697   5.366   6.060   2.225 -0.4984 -0.1399  0.0503
19761TIP3    H180698   5.292   6.051   2.165 -0.4669  0.4923 -0.0951
19761TIP3    H280699   5.362   6.152   2.253 -0.2278 -0.3060  0.6412
19762TIP3   OH280700   6.479   2.500   1.808  0.0757 -0.8146 -0.1639
19762TIP3    H180701   6.430   2.582   1.815 -1.2176 -1.6417  1.4123
19762TIP3    H280702   6.571   2.526   1.808 -0.2707  0.8029 -3.2771
19763TIP3   OH280703   2.835   3.436  14.493  0.9059  0.5148  0.0655
19763TIP3    H180704   2.927   3.443  14.517  2.2135  0.3710 -4.0291
19763TIP3    H280705   2.837   3.419  14.398 -3.3442  0.1080 -0.1273
19764TIP3   OH280706   2.024   2.621  12.489  0.2661 -0.1319  0.4592
19764TIP3    H180707   2.068   2.546  12.528  0.2694 -0.2096  0.3053
19764TIP3    H280708   1.943   2.630  12.539 -0.1648 -0.7957 -0.1145
19765TIP3   OH280709   1.370   2.031  14.497 -0.1330 -0.3224 -0.2409
19765TIP3    H180710   1.361   1.966  14.567  0.3642  0.6464  0.7570
19765TIP3    H280711   1.405   2.108  14.541  0.8518  0.0885 -1.6992
19766TIP3   OH280712   5.811   2.293  12.390 -0.2417  0.3151  0.1920
19766TIP3    H180713   5.754   2.216  12.394 -0.9013  0.7834  0.0203
19766TIP3    H280714   5.888   2.269  12.441 -1.5493  0.4586  2.3286
19767TIP3   OH280715   6.398   0.782  13.020  0.3576 -0.0952  0.6269
19767TIP3    H180716   6.451   0.809  13.095 -1.9379  1.1643  1.9251
19767TIP3    H280717   6.401   0.857  12.960  0.7531 -0.3838  0.2824
19768TIP3   OH280718   6.115   5.675   0.275  0.2786 -0.4736 -0.4287
19768TIP3    H180719   6.129   5.690   0.182  1.1999 -1.1291 -0.4151
19768TIP3    H280720   6.020   5.670   0.286  0.1667 -0.3626 -1.3182
19769TIP3   OH280721   0.704   5.388   2.662 -0.0389  0.5054  0.2266
19769TIP3    H180722   0.731   5.298   2.681 -0.4495  0.2877 -0.2146
19769TIP3    H280723   0.660   5.417   2.743 -1.2252 -0.2073 -0.1344
19770TIP3   OH280724   2.682   5.887   0.110 -0.1731  0.2941 -0.1797
19770TIP3    H180725   2.752   5.841   0.062 -0.1705  1.9471 -1.8839
19770TIP3    H280726   2.610   5.892   0.048 -1.4869 -0.4787  1.2168
19771TIP3   OH280727   3.499   1.805  15.670 -0.1188  0.9184  0.0542
19771TIP3    H180728   3.405   1.789  15.675  0.2162 -1.3671  0.4256
19771TIP3    H280729   3.524   1.833  15.758  0.0934 -2.6902  1.3376
19772TIP3   OH280730   6.060   0.785   5.785 -0.4126 -0.3061  0.1597
19772TIP3    H180731   6.062   0.712   5.847 -1.2123 -0.3379  0.1709
19772TIP3    H280732   5.971   0.783   5.749 -0.2042  0.1942 -0.4079
19773TIP3   OH280733   3.644   5.871   3.920  0.1969 -0.0420 -0.0891
19773TIP3    H180734   3.632   5.839   3.830  2.7436 -0.2637 -0.4491
19773TIP3    H280735   3.591   5.951   3.925  1.8739  1.3913 -2.6823
19774TIP3   OH280736   2.233   3.542  13.326 -0.0061  0.3168  0.0121
19774TIP3    H180737   2.224   3.632  13.358 -1.2288  0.8199 -1.6178
19774TIP3    H280738   2.297   3.549  13.255  0.5163 -0.2632  0.4190
19775TIP3   OH280739   1.829   3.460   3.974  0.0915 -0.6899  0.3433
19775TIP3    H180740   1.748   3.430   4.015 -0.9242  2.5959  1.0980
19775TIP3    H280741   1.880   3.497   4.047  0.9552 -0.1198 -0.5220
19776TIP3   OH280742   1.473   1.408  14.412 -0.0045 -0.6504 -0.5988
19776TIP3    H180743   1.483   1.375  14.323 -0.6883 -0.7574 -0.6414
19776TIP3    H280744   1.502   1.499  14.408 -0.5143 -0.5024 -1.0483
19777TIP3   OH280745   3.738   5.696   3.434  0.5666 -0.1008 -0.6075
19777TIP3    H180746   3.737   5.722   3.342  1.7550  0.5782 -0.4440
19777TIP3    H280747   3.830   5.691   3.457  0.3551  2.3156  1.2179
19778TIP3   OH280748   6.702   4.211  11.473 -0.2540 -0.1219 -0.6326
19778TIP3    H180749   6.644   4.135  11.480  1.6042 -1.8630 -2.6115
19778TIP3    H280750   6.665   4.263  11.402 -0.0623 -0.6082 -1.0946
19779TIP3   OH280751   0.865   2.235  15.388  0.1375  0.8787 -0.1671
19779TIP3    H180752   0.824   2.306  15.439 -0.5048  0.7406 -0.4839
19779TIP3    H280753   0.914   2.185  15.453 -0.1533  1.0802  0.2125
19780TIP3   OH280754   5.113   0.418   2.731 -0.2140  0.3044  0.3418
19780TIP3    H180755   5.203   0.398   2.755 -0.2499  0.1958  0.3876
19780TIP3    H280756   5.119   0.494   2.673 -0.2124  1.3151  1.6357
19781TIP3   OH280757   0.800   4.715  15.671  0.2663 -0.6187 -0.1965
19781TIP3    H180758   0.718   4.691  15.629  0.0808 -1.7709  0.7746
19781TIP3    H280759   0.773   4.762  15.750  0.4393 -2.4384  1.0120
19782TIP3   OH280760   3.578   6.029  14.939  0.1728  0.0747  0.6685
19782TIP3    H180761   3.519   6.104  14.936  1.4727  1.2069 -4.0640
19782TIP3    H280762   3.661   6.064  14.970  0.1857  0.0744  0.6339
19783TIP3   OH280763   2.331   0.688  11.721 -0.1023  0.2997 -0.1585
19783TIP3    H180764   2.269   0.725  11.784  0.2425  2.4082 -0.9586
19783TIP3    H280765   2.372   0.615  11.768 -1.0612  0.7391  1.4483
19784TIP3   OH280766   5.260   1.140  17.289 -0.0554  0.1914  0.1490
19784TIP3    H180767   5.317   1.136  17.212 -1.8924  3.1983 -1.5513
19784TIP3    H280768   5.195   1.071  17.275  0.1090  0.1832 -0.5812
19785TIP3   OH280769   4.254   6.302  15.545 -0.4879 -0.2289 -0.0668
19785TIP3    H180770   4.302   6.236  15.595  0.1024 -1.0265 -1.6139
19785TIP3    H280771   4.163   6.294  15.574 -0.0074  0.0777  1.6159
19786TIP3   OH280772   2.541   4.382   2.961 -0.6358  0.0957 -0.1050
19786TIP3    H180773   2.562   4.475   2.960  1.4578 -0.3420 -0.4566
19786TIP3    H280774   2.550   4.354   2.870 -2.6262 -0.2087 -0.2542
19787TIP3   OH280775   5.422   4.327  16.381  0.6100  0.3153 -0.1230
19787TIP3    H180776   5.328   4.337  16.362  0.5656 -0.0024 -0.0793
19787TIP3    H280777   5.430   4.238  16.417  1.3205 -0.7858 -2.7404
19788TIP3   OH280778   3.138   4.360   5.788  0.2862 -0.4748 -0.0531
19788TIP3    H180779   3.208   4.365   5.853  0.7256  1.2026 -0.6049
19788TIP3    H280780   3.176   4.399   5.709 -0.7280 -1.0872 -0.8638
19789TIP3   OH280781   3.111   0.969  13.571  0.1066 -0.1497  0.3875
19789TIP3    H180782   3.203   0.996  13.579 -0.1393  1.2856 -1.0166
19789TIP3    H280783   3.062   1.037  13.617 -0.3895  0.5520 -1.1227
19790TIP3   OH280784   1.015   1.311  14.529 -0.5398 -0.4978 -0.5893
19790TIP3    H180785   1.060   1.236  14.492 -1.3741 -1.9195  1.0979
19790TIP3    H280786   1.065   1.332  14.608 -1.2597 -0.3604 -0.1623
19791TIP3   OH280787   4.715   2.869  12.369  0.1154  0.4025  0.2067
19791TIP3    H180788   4.766   2.789  12.356 -0.4062  0.4059 -2.2949
19791TIP3    H280789   4.624   2.841  12.357 -0.2411  0.9974  1.4179
19792TIP3   OH280790   1.436   1.892  13.081  0.3409  0.7440 -0.0067
19792TIP3    H180791   1.511   1.841  13.051 -0.2572  0.4234 -0.9918
19792TIP3    H280792   1.429   1.964  13.018  0.0768  1.0203  0.3346
19793TIP3   OH280793   5.601   4.487   1.457  0.6795  0.2923 -0.0802
19793TIP3    H180794   5.555   4.430   1.395  0.5017  1.6686 -1.2843
19793TIP3    H280795   5.621   4.566   1.406 -0.2034  1.8405  1.8361
19794TIP3   OH280796   0.546   5.269   1.373  0.0329  0.1359 -0.1571
19794TIP3    H180797   0.632   5.249   1.335  1.1115  1.0242  1.6933
19794TIP3    H280798   0.529   5.196   1.432  0.2108  0.6535  0.5481
19795TIP3   OH280799   4.130   3.165  11.702  0.2887 -0.1308  0.3332
19795TIP3    H180800   4.120   3.249  11.746  0.8033  0.1733 -0.1123
19795TIP3    H280801   4.040   3.134  11.687  0.1016  0.2899  0.5912
19796TIP3   OH280802   2.282   2.670   3.838  0.3941 -0.2245  0.1180
19796TIP3    H180803   2.321   2.688   3.923 -0.1086  1.2689  0.0698
19796TIP3    H280804   2.304   2.579   3.820  2.2792  0.0301  0.9009
19797TIP3   OH280805   2.939   5.562   4.407 -0.1623 -0.0222  0.8077
19797TIP3    H180806   2.856   5.517   4.421 -0.4618  0.3952  0.3523
19797TIP3    H280807   2.951   5.563   4.312  0.7155 -0.7188  0.8856
19798TIP3   OH280808   0.599   4.527   5.372  0.1392  0.0030 -0.4003
19798TIP3    H180809   0.600   4.468   5.296 -1.8916 -1.4893  0.6390
19798TIP3    H280810   0.528   4.589   5.353  1.7976  1.7787 -1.1617
19799TIP3   OH280811   0.905   4.035   1.924  0.2509 -0.2945 -0.0715
19799TIP3    H180812   0.897   4.116   1.975 -2.3626 -1.3888  1.4358
19799TIP3    H280813   0.969   4.057   1.856 -0.2361  2.9862  0.3316
19800TIP3   OH280814   6.718   3.536  17.333  0.2960  0.3600  0.2526
19800TIP3    H180815   6.771   3.540  17.253  0.6438  0.8101  0.5028
19800TIP3    H280816   6.763   3.471  17.388  0.8334  1.0423  0.6327
19801TIP3   OH280817   5.280   2.372   5.227 -0.3456  0.0333 -0.0547
19801TIP3    H180818   5.352   2.435   5.222 -0.5868  0.3075 -0.1433
19801TIP3    H280819   5.213   2.417   5.278  0.3771 -1.0523  1.9883
19802TIP3   OH280820   0.301   6.166   2.885 -0.3924  0.0907  0.7844
19802TIP3    H180821   0.299   6.254   2.848  0.0173 -0.5637 -0.8949
19802TIP3    H280822   0.225   6.163   2.944 -2.5046  0.5227 -1.7332
19803TIP3   OH280823   6.685   1.923  14.445 -0.0715  0.3937  0.1167
19803TIP3    H180824   6.636   1.976  14.508 -1.1802  1.6683 -1.7320
19803TIP3    H280825   6.746   1.872  14.499 -1.6308  0.6810  2.2879
19804TIP3   OH280826   5.629   1.208  17.220  0.2161 -0.3188  0.1089
19804TIP3    H180827   5.554   1.185  17.165  0.8382 -0.6156 -0.6397
19804TIP3    H280828   5.705   1.196  17.162  1.2579 -3.9428  1.9041
19805TIP3   OH280829   3.274   5.066   0.703 -0.3266  0.4810  0.2775
19805TIP3    H180830   3.340   5.083   0.771  0.4479 -0.0392 -0.3116
19805TIP3    H280831   3.227   5.148   0.694  1.1301  1.3122 -0.2041
19806TIP3   OH280832   2.477   1.518   1.148  0.1240 -0.4605  0.0118
19806TIP3    H180833   2.545   1.541   1.211  0.4489  0.4835 -0.6526
19806TIP3    H280834   2.474   1.423   1.149  1.7516 -0.5353 -0.2323
19807TIP3   OH280835   0.146   6.459  15.946  0.2016 -0.6412  0.4061
19807TIP3    H180836   0.178   6.548  15.964  1.0645 -0.8577  0.0143
19807TIP3    H280837   0.220   6.416  15.902 -1.5940 -0.2421 -3.4541
19808TIP3   OH280838   4.255   2.174   0.367  0.0038 -0.4381  0.4070
19808TIP3    H180839   4.255   2.110   0.438 -1.3972  0.2070  1.0252
19808TIP3    H280840   4.163   2.194   0.352  0.4048  1.7904  0.5628
19809TIP3   OH280841   1.793   5.876   4.850 -0.2607 -0.5809  0.0562
19809TIP3    H180842   1.814   5.877   4.943 -0.2795  2.1743  0.1253
19809TIP3    H280843   1.705   5.914   4.845  0.2920  0.6330 -1.1420
19810TIP3   OH280844   3.158   3.729   0.251  0.3095 -0.0227  1.0201
19810TIP3    H180845   3.248   3.762   0.243  0.5476 -1.0421 -1.5531
19810TIP3    H280846   3.109   3.803   0.287  1.4638  2.0641 -1.3614
19811TIP3   OH280847   0.255   1.806   6.357  0.3419  0.2194 -0.0187
19811TIP3    H180848   0.336   1.799   6.408 -0.2425 -0.3171  0.8739
19811TIP3    H280849   0.212   1.721   6.369  0.6237 -0.2986 -2.2303
19812TIP3   OH280850   1.692   0.228  15.588  0.7328  0.1747  0.6538
19812TIP3    H180851   1.675   0.160  15.653  1.6296 -1.2312 -0.5006
19812TIP3    H280852   1.623   0.293  15.601 -0.2815 -1.0604  1.6607
19813TIP3   OH280853   1.629   5.519   5.567  0.2603 -0.3077 -0.6551
19813TIP3    H180854   1.702   5.517   5.629  1.0294 -1.0535 -1.5558
19813TIP3    H280855   1.557   5.476   5.613  0.3168  0.5965  0.3112
19814TIP3   OH280856   5.649   4.022  14.515 -0.2163 -0.0421 -0.4021
19814TIP3    H180857   5.657   3.990  14.605  0.6421  1.0994 -0.0442
19814TIP3    H280858   5.598   3.955  14.470  0.0482 -1.0413  0.7263
19815TIP3   OH280859   0.719   1.508   6.453 -0.4405 -0.5032 -0.3880
19815TIP3    H180860   0.636   1.477   6.417 -1.5103  1.7712 -0.0301
19815TIP3    H280861   0.764   1.428   6.480 -3.2345 -1.7655  0.9985
19816TIP3   OH280862   0.375   2.937   4.549  0.1837 -0.7401  0.2658
19816TIP3    H180863   0.466   2.912   4.535  0.2982  0.4831 -1.5561
19816TIP3    H280864   0.325   2.870   4.501  0.2819  0.0415 -0.9678
19817TIP3   OH280865   3.641   5.104   0.715  0.2469  0.3325  0.3604
19817TIP3    H180866   3.585   5.053   0.773 -0.0321 -0.8341 -0.8900
19817TIP3    H280867   3.724   5.110   0.762 -0.7397  1.7777  2.0757
19818TIP3   OH280868   3.300   5.526  13.742 -0.4533  0.4722 -0.6833
19818TIP3    H180869   3.208   5.509  13.726 -0.2038 -0.3227 -1.2882
19818TIP3    H280870   3.343   5.441  13.732  0.1508  0.5260  1.1063
19819TIP3   OH280871   4.400   2.995  16.874 -0.3950  0.3263  0.2074
19819TIP3    H180872   4.339   3.055  16.916 -0.9318  0.2711 -0.4781
19819TIP3    H280873   4.460   2.969  16.944  0.3906  2.3146  0.3533
19820TIP3   OH280874   6.283   0.748   5.265 -0.2161 -0.8115  0.3256
19820TIP3    H180875   6.343   0.758   5.191  0.9168 -1.9693  1.0557
19820TIP3    H280876   6.338   0.756   5.343 -1.3574  0.1842  1.0754
19821TIP3   OH280877   4.257   4.457  13.986 -0.0807 -0.6273 -0.0256
19821TIP3    H180878   4.189   4.458  14.054  0.0730 -2.2941  0.1853
19821TIP3    H280879   4.209   4.460  13.904 -0.3558 -0.5052  0.1386
19822TIP3   OH280880   4.373   0.890  17.217 -0.2678 -0.4888 -0.3478
19822TIP3    H180881   4.417   0.891  17.302 -0.3504 -0.1259 -0.3073
19822TIP3    H280882   4.390   0.802  17.182 -0.5147 -0.7580  0.1927
19823TIP3   OH280883   1.273   5.069   5.892  0.0050  0.2541 -0.5316
19823TIP3    H180884   1.179   5.053   5.879  0.1177 -0.2142 -0.7931
19823TIP3    H280885   1.277   5.134   5.962 -0.5012 -0.4026  0.1251
19824TIP3   OH280886   3.793   6.279  13.233 -0.2616 -0.4243  0.0157
19824TIP3    H180887   3.870   6.247  13.186 -0.6082 -0.3570 -0.6100
19824TIP3    H280888   3.808   6.372  13.246  1.4903 -1.0152  3.2504
19825TIP3   OH280889   2.634   1.432  13.339  0.8537 -0.2760 -0.2280
19825TIP3    H180890   2.688   1.396  13.410  0.7906  0.1719  0.0524
19825TIP3    H280891   2.546   1.402  13.360  1.1727 -2.2673 -1.4918
19826TIP3   OH280892   1.387   6.048   2.871  0.3400  0.2361  0.2244
19826TIP3    H180893   1.333   5.990   2.818 -0.7434  0.5665  0.9198
19826TIP3    H280894   1.398   6.002   2.954 -0.1390  0.8019  0.6130
19827TIP3   OH280895   3.805   5.482  10.984  0.4509  0.2016  0.0941
19827TIP3    H180896   3.724   5.456  11.030 -0.1237  0.8345 -0.5484
19827TIP3    H280897   3.818   5.413  10.919  0.0720  0.4353 -0.2306
19828TIP3   OH280898   2.283   3.697  14.640 -0.1556 -0.0601  0.3467
19828TIP3    H180899   2.274   3.605  14.615 -0.4956 -0.0383  0.3842
19828TIP3    H280900   2.212   3.741  14.593  1.0921  0.4756 -1.1066
19829TIP3   OH280901   4.198   0.264   6.007 -0.1379 -0.5595  0.2845
19829TIP3    H180902   4.189   0.189   5.948 -0.2109  0.3183 -0.8553
19829TIP3    H280903   4.239   0.332   5.953  1.3990 -0.2642  1.7313
19830TIP3   OH280904   0.364   1.075  16.548  0.2097  0.0457 -0.2952
19830TIP3    H180905   0.356   1.027  16.630 -0.3868  2.5395  1.2024
19830TIP3    H280906   0.458   1.079  16.532  0.4212  0.5887  0.9744
19831TIP3   OH280907   3.676   1.075  15.276 -0.3704  0.4875  0.7901
19831TIP3    H180908   3.700   1.040  15.362  0.5207  0.3527  0.4875
19831TIP3    H280909   3.751   1.057  15.220 -1.1221  0.1662 -0.1485
19832TIP3   OH280910   3.392   3.401   4.999 -0.2159 -0.6487 -0.5124
19832TIP3    H180911   3.475   3.441   5.025  0.0496 -1.0991 -0.6482
19832TIP3    H280912   3.329   3.473   4.999  0.2886 -0.1955 -0.9105
19833TIP3   OH280913   0.549   3.354   5.130  0.1148  0.7661  0.5532
19833TIP3    H180914   0.596   3.413   5.188  0.8627  1.5669 -0.8353
19833TIP3    H280915   0.540   3.402   5.048  0.0634 -0.7533 -0.3692
19834TIP3   OH280916   5.895   4.022  17.037 -0.5349 -0.3744  0.2965
19834TIP3    H180917   5.890   4.067  17.121  0.4558 -0.3084  0.3411
19834TIP3    H280918   5.851   4.080  16.976  0.7643  0.7263  0.3418
19835TIP3   OH280919   0.099   3.164  15.637 -0.0090 -0.2719  0.1909
19835TIP3    H180920   0.065   3.084  15.596 -1.4092  0.4627 -0.1501
19835TIP3    H280921   0.026   3.197  15.690  0.3604  1.0478 -0.0899
19836TIP3   OH280922   1.096   4.368   4.882 -0.3499 -0.0701  0.1854
19836TIP3    H180923   1.125   4.458   4.898 -1.4548  0.4039 -0.3377
19836TIP3    H280924   1.170   4.326   4.838  0.1980  0.5687  0.4867
19837TIP3   OH280925   2.390   3.603  14.074  0.4058  0.4475  0.0188
19837TIP3    H180926   2.465   3.662  14.063  1.2956 -0.2557  1.8080
19837TIP3    H280927   2.319   3.644  14.025  1.9501  1.1556 -1.7234
19838TIP3   OH280928   0.988   0.317  13.077 -0.2431  0.2392  0.0516
19838TIP3    H180929   0.999   0.221  13.076  0.1632  0.2768 -0.7941
19838TIP3    H280930   0.949   0.336  13.162  0.8235 -0.5580  0.7568
19839TIP3   OH280931   0.780   3.403   1.626  0.2452 -0.0247  0.5869
19839TIP3    H180932   0.774   3.307   1.630  1.4629 -0.1890 -0.6938
19839TIP3    H280933   0.826   3.427   1.707  2.0630 -0.7924 -0.1508
19840TIP3   OH280934   5.913   0.050  15.356  0.1275 -0.1199  0.5029
19840TIP3    H180935   5.905   0.145  15.359 -0.1875 -0.0030 -1.8446
19840TIP3    H280936   5.831   0.017  15.391 -0.3451  0.5220  0.0230
19841TIP3   OH280937   1.418   2.986   0.958  0.0186 -0.0683 -0.0043
19841TIP3    H180938   1.411   3.033   1.041  1.8837 -0.3943  0.3762
19841TIP3    H280939   1.447   3.053   0.895  0.9334 -0.3083  0.1489
19842TIP3   OH280940   0.997   6.116  15.939 -0.7770 -0.3023 -0.2349
19842TIP3    H180941   0.940   6.054  15.893 -0.0840 -0.1647 -1.3106
19842TIP3    H280942   0.993   6.088  16.030 -0.0621 -2.2825 -0.7625
19843TIP3   OH280943   0.405   4.643  12.560  0.2868  0.0034 -0.0969
19843TIP3    H180944   0.475   4.593  12.518  0.9458 -1.2809  2.3330
19843TIP3    H280945   0.378   4.589  12.634 -1.4926  1.6705  0.5506
19844TIP3   OH280946   1.526   5.410   4.453 -0.5995  0.2620 -0.2984
19844TIP3    H180947   1.475   5.474   4.403  0.5328  1.2848 -0.1882
19844TIP3    H280948   1.546   5.454   4.536 -0.7688 -0.6743  0.2539
19845TIP3   OH280949   2.553   0.622   3.734  0.0307  0.0873 -0.2058
19845TIP3    H180950   2.497   0.626   3.656 -0.8346  0.4077  0.4236
19845TIP3    H280951   2.562   0.528   3.752  1.7952 -0.1042 -1.7726
19846TIP3   OH280952   1.449   6.275  16.877 -0.3231  0.4691 -0.2277
19846TIP3    H180953   1.463   6.187  16.911  0.4472  0.5955 -0.1950
19846TIP3    H280954   1.417   6.324  16.953 -0.7607  0.2208 -0.2484
19847TIP3   OH280955   0.682   6.057   0.627 -0.1287  0.1435  0.1243
19847TIP3    H180956   0.700   6.107   0.547 -0.8257 -0.4024 -0.3844
19847TIP3    H280957   0.707   5.968   0.606 -1.6999 -0.2978 -0.0155
19848TIP3   OH280958   0.052   0.065   3.944  0.1582 -0.3679  0.6518
19848TIP3    H180959   0.105   0.001   3.897  1.4937  1.8479 -0.9809
19848TIP3    H280960   0.114   0.128   3.979 -1.2688  2.2829 -1.2455
19849TIP3   OH280961   4.117   2.851  12.293 -0.6528 -0.3014 -0.6330
19849TIP3    H180962   4.096   2.763  12.325 -1.4495 -0.7874 -2.3810
19849TIP3    H280963   4.056   2.908  12.340 -0.1719 -0.6764  0.4721
19850TIP3   OH280964   5.326   6.650   3.522  0.8102 -0.2025  0.2487
19850TIP3    H180965   5.350   6.728   3.572 -1.4542  1.8403 -1.6204
19850TIP3    H280966   5.361   6.667   3.434 -1.2985 -0.3465 -0.6804
19851TIP3   OH280967   4.210   2.970   5.734 -0.1380  0.3676  0.0236
19851TIP3    H180968   4.302   2.976   5.710 -0.1789 -0.1316 -0.2617
19851TIP3    H280969   4.209   2.984   5.829  0.0559  2.0065 -0.1747
19852TIP3   OH280970   1.829   5.044   4.924 -0.4610 -0.2722  0.5813
19852TIP3    H180971   1.779   5.001   4.993 -0.3525 -2.7276 -0.7682
19852TIP3    H280972   1.771   5.043   4.847  0.6922 -0.8662 -0.3126
19853TIP3   OH280973   0.138   4.017   4.800  0.2719 -0.0542  0.3736
19853TIP3    H180974   0.171   4.058   4.720 -1.0081  0.3084  0.0168
19853TIP3    H280975   0.214   3.971   4.836  1.4157  1.5280  0.0901
19854TIP3   OH280976   4.853   3.838  12.788  0.8376 -0.7951  0.1317
19854TIP3    H180977   4.818   3.754  12.758 -1.6052 -0.8308  2.6829
19854TIP3    H280978   4.879   3.822  12.879  0.0773  1.2282  0.7581
19855TIP3   OH280979   5.127   1.085   1.182  0.2186 -0.5096  0.6585
19855TIP3    H180980   5.070   1.015   1.151 -1.3566  0.2710  1.6874
19855TIP3    H280981   5.110   1.158   1.123  0.3433 -0.3445  0.8268
19856TIP3   OH280982   2.886   0.194  16.127  0.0139  0.5597 -0.4405
19856TIP3    H180983   2.886   0.264  16.062  0.2760 -1.4869 -2.7621
19856TIP3    H280984   2.794   0.178  16.146 -0.1846 -0.1803 -1.9089
19857TIP3   OH280985   1.147   3.410   6.409  0.4876 -0.3797 -0.3768
19857TIP3    H180986   1.070   3.442   6.456  0.6488  0.0547 -0.4016
19857TIP3    H280987   1.149   3.461   6.328  0.5006 -0.7653 -0.6226
19858TIP3   OH280988   3.665   1.302   4.954  0.3767  0.1130 -0.2750
19858TIP3    H180989   3.688   1.236   5.020  0.3056  0.0249 -0.3386
19858TIP3    H280990   3.576   1.280   4.928  0.1484  0.5596  0.1028
19859TIP3   OH280991   5.232   0.805   6.238  0.0943 -0.5986 -0.0485
19859TIP3    H180992   5.174   0.861   6.186  0.8224 -1.2898 -1.6873
19859TIP3    H280993   5.187   0.795   6.322 -0.8916  0.9687 -0.3421
19860TIP3   OH280994   3.816   4.070   0.170 -0.7940 -0.1449  0.0513
19860TIP3    H180995   3.820   3.976   0.187  0.1464 -0.4851 -1.7679
19860TIP3    H280996   3.878   4.084   0.098 -1.0603  1.8399  0.1547
19861TIP3   OH280997   3.437   5.431   3.565  0.0481  0.2436  0.0550
19861TIP3    H180998   3.436   5.514   3.613  0.2774 -0.2570  0.9560
19861TIP3    H280999   3.472   5.367   3.627 -0.8067 -0.6796 -0.3596
19862TIP3   OH281000   4.436   4.328  17.212  0.3203 -0.3362  0.4213
19862TIP3    H181001   4.354   4.282  17.192  0.1920  0.4771 -1.0558
19862TIP3    H281002   4.478   4.274  17.280 -0.0589 -2.3804 -0.8788
19863TIP3   OH281003   0.837   3.235  15.134 -0.5179  0.2931 -0.0072
19863TIP3    H181004   0.749   3.200  15.124 -0.1375 -0.8472  0.4785
19863TIP3    H281005   0.866   3.203  15.219 -0.2562  2.0712  0.6038
19864TIP3   OH281006   3.631   5.859   4.682 -0.4905 -0.2382  0.8348
19864TIP3    H181007   3.636   5.951   4.710  0.0405 -0.0590  0.1499
19864TIP3    H281008   3.703   5.816   4.728 -0.8829 -0.3657  1.3389
19865TIP3   OH281009   3.852   5.670  16.106  0.2833  0.4697  0.3930
19865TIP3    H181010   3.870   5.763  16.119 -0.6817  0.5515  1.1717
19865TIP3    H281011   3.757   5.664  16.097  0.4110 -0.3143 -0.8042
19866TIP3   OH281012   1.216   5.727  15.344 -0.1432 -0.3681 -0.5345
19866TIP3    H181013   1.188   5.815  15.321 -1.1521 -0.6877 -0.5687
19866TIP3    H281014   1.276   5.701  15.273 -0.5739 -0.0662 -1.0101
19867TIP3   OH281015   2.538   1.319   5.924  0.4867 -0.4085  1.0962
19867TIP3    H181016   2.576   1.271   5.998  2.3484  2.1068  1.9279
19867TIP3    H281017   2.520   1.406   5.959 -1.2509  0.0335 -0.7302
19868TIP3   OH281018   0.054   2.628   1.256 -0.2092 -0.0558  0.0521
19868TIP3    H181019  -0.000   2.579   1.194 -1.1585 -0.8328  1.4375
19868TIP3    H281020   0.088   2.701   1.205 -3.2150  0.9319 -0.7551
19869TIP3   OH281021   1.772   5.054  13.161  0.4694 -0.0489 -0.5302
19869TIP3    H181022   1.753   4.984  13.223 -1.3005  1.0901  0.3071
19869TIP3    H281023   1.742   5.020  13.076 -2.4840  0.3995  0.2062
19870TIP3   OH281024   2.982   6.159  12.227 -0.6194  0.1478  0.9755
19870TIP3    H181025   3.008   6.182  12.316 -0.1872 -0.6168  1.0510
19870TIP3    H281026   3.004   6.237  12.176 -0.4974  0.4427  1.4649
19871TIP3   OH281027   3.568   6.256  13.959 -0.6317 -0.1417  0.2952
19871TIP3    H181028   3.510   6.229  13.887 -1.3985  1.5381  0.2161
19871TIP3    H281029   3.544   6.198  14.031 -1.3396 -0.4783 -0.1888
19872TIP3   OH281030   2.964   2.580  15.610 -0.5802 -0.4002 -0.2145
19872TIP3    H181031   2.877   2.586  15.648 -0.4852  0.3068 -0.0987
19872TIP3    H281032   3.014   2.526  15.672 -0.3282  1.0255  0.8602
19873TIP3   OH281033   0.525   0.173   0.534  0.4317 -0.0373 -0.0406
19873TIP3    H181034   0.437   0.208   0.520  0.4700  0.4077  0.7885
19873TIP3    H281035   0.539   0.113   0.461 -1.4976 -2.0014  1.1217
19874TIP3   OH281036   3.848   0.775  14.608 -0.3139 -0.0930 -0.5457
19874TIP3    H181037   3.852   0.855  14.660 -1.3910  0.6089 -1.4775
19874TIP3    H281038   3.911   0.716  14.649  1.2718  1.5782 -0.4357
19875TIP3   OH281039   2.705   0.367   3.542 -0.2052  0.0223  0.0631
19875TIP3    H181040   2.652   0.295   3.507  1.5970 -1.4513  0.2355
19875TIP3    H281041   2.695   0.358   3.637  1.6539 -1.3588  0.1723
19876TIP3   OH281042   6.503   2.341   2.055 -0.5688  0.3537  0.0905
19876TIP3    H181043   6.522   2.395   1.979 -0.3319  1.5187  0.9491
19876TIP3    H281044   6.547   2.258   2.037  0.4568  1.0064 -0.5283
19877TIP3   OH281045   0.693   2.481  15.235 -0.0547  0.0177  0.5228
19877TIP3    H181046   0.759   2.455  15.300  1.7482  1.6109 -0.5667
19877TIP3    H281047   0.741   2.485  15.152 -1.7367  0.4277 -0.4785
19878TIP3   OH281048   2.440   3.409   6.128  0.3470 -0.4958  0.0848
19878TIP3    H181049   2.451   3.335   6.188 -0.9625  0.8933  2.1841
19878TIP3    H281050   2.349   3.438   6.142  0.2738  0.4577 -1.9666
19879TIP3   OH281051   0.206   5.930   0.334  0.3372 -0.2236  1.0160
19879TIP3    H181052   0.276   5.939   0.270 -0.5783 -0.5410 -0.0603
19879TIP3    H281053   0.230   5.990   0.405  0.4071  1.6328 -0.4969
19880TIP3   OH281054   5.311   1.521   1.748  0.4508 -0.5910  0.1391
19880TIP3    H181055   5.386   1.565   1.789 -1.4495  0.7145  2.4511
19880TIP3    H281056   5.240   1.585   1.752 -1.8251 -2.9882  1.4843
19881TIP3   OH281057   4.643   5.465  13.671  0.0877 -0.1939  0.0317
19881TIP3    H181058   4.692   5.511  13.604  0.1657  1.2471  1.0333
19881TIP3    H281059   4.710   5.433  13.732 -0.1027  0.3435  0.5295
19882TIP3   OH281060   1.449   4.183   2.444  0.5172  0.0205 -0.2944
19882TIP3    H181061   1.358   4.214   2.444  0.6192  0.4952  2.0870
19882TIP3    H281062   1.480   4.202   2.356 -1.8024 -0.5645 -1.3192
19883TIP3   OH281063   5.824   0.597  15.542  0.2919  0.5720  0.8317
19883TIP3    H181064   5.786   0.682  15.566  1.1635  0.7130  1.7583
19883TIP3    H281065   5.908   0.620  15.500 -0.4131  0.2471 -0.8510
19884TIP3   OH281066   0.058   6.098  14.441  0.2217 -0.2262 -0.2902
19884TIP3    H181067   0.070   6.157  14.367  1.5519  0.4271  0.4101
19884TIP3    H281068  -0.036   6.098  14.457  0.1227  1.1469 -0.7619
19885TIP3   OH281069   6.213   5.777  12.162  0.0293 -0.5705 -0.3022
19885TIP3    H181070   6.123   5.805  12.145 -0.0204 -0.1341  0.6377
19885TIP3    H281071   6.255   5.781  12.076 -0.1760  1.7207 -0.3770
19886TIP3   OH281072   5.933   1.413   2.612 -0.2771 -0.3644 -0.0860
19886TIP3    H181073   5.960   1.498   2.648 -0.7749  1.3316 -3.3080
19886TIP3    H281074   6.015   1.374   2.581 -0.2050 -0.4670  0.2286
19887TIP3   OH281075   5.516   0.637  12.764 -0.0007 -0.5230  0.0678
19887TIP3    H181076   5.486   0.679  12.844  0.9927  0.5627 -0.1079
19887TIP3    H281077   5.522   0.708  12.700 -0.9097 -1.3816 -1.0367
19888TIP3   OH281078   5.641   6.656   0.152 -0.1844 -0.0476 -0.1393
19888TIP3    H181079   5.600   6.630   0.235  0.9320 -2.4690 -0.2967
19888TIP3    H281080   5.584   6.726   0.119 -1.8942 -0.5344  1.5945
19889TIP3   OH281081   1.016   6.667   5.847 -0.1271  0.3285  0.4224
19889TIP3    H181082   1.099   6.715   5.845 -0.6815  1.3007  0.1348
19889TIP3    H281083   0.987   6.673   5.938 -0.4758  1.0437  0.2684
19890TIP3   OH281084   0.734   0.470  14.546 -0.3580 -0.6617  0.0512
19890TIP3    H181085   0.760   0.424  14.626  0.6693 -2.0401 -1.0212
19890TIP3    H281086   0.768   0.416  14.475 -1.0389  0.6442 -1.3329
19891TIP3   OH281087   1.198   5.866  16.668 -0.0563  0.8361  0.2368
19891TIP3    H181088   1.288   5.886  16.643 -0.1071  1.3381  0.4422
19891TIP3    H281089   1.175   5.788  16.617  0.5009  0.6950  0.2012
19892TIP3   OH281090   5.713   2.775  14.912  0.3716 -0.0703 -0.3313
19892TIP3    H181091   5.790   2.826  14.890  1.3366 -1.5355 -0.5315
19892TIP3    H281092   5.653   2.837  14.954  1.0935  1.3828 -1.3786
19893TIP3   OH281093   6.434   2.121  16.873 -0.2423 -0.0689 -0.2205
19893TIP3    H181094   6.376   2.045  16.881 -0.2232 -0.2828 -1.8569
19893TIP3    H281095   6.521   2.083  16.865  0.1440  0.2446  1.9179
19894TIP3   OH281096   4.915   3.136   3.892  0.2663 -0.7998  0.2285
19894TIP3    H181097   4.899   3.083   3.814  1.0777 -0.7949  0.0463
19894TIP3    H281098   4.842   3.115   3.951 -0.0579 -1.2154 -0.3084
19895TIP3   OH281099   1.686   3.335  15.728 -0.5007 -0.4451  0.0645
19895TIP3    H181100   1.748   3.265  15.750 -0.6308 -0.7515 -0.5143
19895TIP3    H281101   1.695   3.346  15.634  0.2074  0.9986  0.2861
19896TIP3   OH281102   5.600   1.192   5.286  0.0654 -0.3449  0.5545
19896TIP3    H181103   5.596   1.101   5.316  0.2154 -0.7982 -0.7282
19896TIP3    H281104   5.672   1.193   5.223 -0.4167  0.4858 -0.0076
19897TIP3   OH281105   5.282   2.121  17.362 -0.4696 -0.1901 -0.0859
19897TIP3    H181106   5.321   2.159  17.441 -0.0805 -1.7964  0.5387
19897TIP3    H281107   5.314   2.176  17.290 -0.4114  0.9894  0.8229
19898TIP3   OH281108   4.935   3.983  12.483 -0.1091  0.5985 -0.5141
19898TIP3    H181109   4.985   4.035  12.421 -0.5869  0.2389 -1.2107
19898TIP3    H281110   4.975   4.003  12.568 -0.3253  2.1416 -0.7460
19899TIP3   OH281111   4.214   2.489  13.227  0.1448  0.1088  0.2439
19899TIP3    H181112   4.241   2.479  13.318  1.9037 -1.8136 -0.3955
19899TIP3    H281113   4.242   2.407  13.185  0.3001  1.3383 -2.2352
19900TIP3   OH281114   4.087   3.570  12.727  0.5692  0.8911 -0.3380
19900TIP3    H181115   4.088   3.666  12.728  2.2677  0.8952  0.6138
19900TIP3    H281116   4.136   3.545  12.805  1.2991 -0.7430 -1.2818
19901TIP3   OH281117   2.594   3.302  13.403 -0.0398 -0.1287 -0.0783
19901TIP3    H181118   2.596   3.385  13.356  1.1671 -0.1516 -0.1157
19901TIP3    H281119   2.675   3.258  13.377 -0.3853 -1.0651  0.3825
19902TIP3   OH281120   5.302   2.602  14.273  0.2254 -0.2970 -0.4019
19902TIP3    H181121   5.235   2.545  14.311  0.1426 -0.1036 -0.2554
19902TIP3    H281122   5.384   2.553  14.282  0.3043  0.0066  0.5939
19903TIP3   OH281123   1.028   4.802   4.234  0.1484  0.5690 -0.2719
19903TIP3    H181124   0.966   4.853   4.287 -0.2067  2.7297 -2.5715
19903TIP3    H281125   0.976   4.772   4.159  0.3418 -3.3682  0.9449
19904TIP3   OH281126   1.012   4.138   1.432 -0.2316 -0.2685 -0.2018
19904TIP3    H181127   1.010   4.162   1.339 -1.9879 -0.8175 -0.3499
19904TIP3    H281128   1.104   4.125   1.452  0.4651  2.6495 -1.1116
19905TIP3   OH281129   1.225   0.656  11.748  0.2029 -0.5306 -0.0746
19905TIP3    H181130   1.283   0.711  11.696  0.9155 -1.8821 -0.7733
19905TIP3    H281131   1.232   0.691  11.837 -0.2157  1.1527 -0.6568
19906TIP3   OH281132   1.614   1.831  13.332 -0.2614  0.5940  0.0602
19906TIP3    H181133   1.632   1.804  13.242 -0.5994 -2.2383  0.7342
19906TIP3    H281134   1.699   1.856  13.367  0.5280 -1.5181 -0.1573
19907TIP3   OH281135   4.017   3.519   3.630 -0.0365 -0.4978  0.2935
19907TIP3    H181136   4.047   3.605   3.660 -2.7344  0.2751  1.0796
19907TIP3    H281137   3.975   3.536   3.545 -1.7411 -0.7186  1.0386
19908TIP3   OH281138   4.029   1.817  17.312  0.0148 -0.4180  0.3208
19908TIP3    H181139   4.043   1.798  17.219  0.8371 -0.5264  0.4612
19908TIP3    H281140   4.039   1.912  17.319 -0.3996 -0.3657  0.2453
19909TIP3   OH281141   6.360   2.327   6.112  0.4531 -0.5041  0.1027
19909TIP3    H181142   6.299   2.400   6.100  0.6609 -0.0782  1.4173
19909TIP3    H281143   6.312   2.265   6.167  0.6187 -0.9376 -0.2369
19910TIP3   OH281144   1.157   3.758  11.798  0.1243  0.2727 -1.2730
19910TIP3    H181145   1.065   3.777  11.818  0.4394  1.2044 -0.6612
19910TIP3    H281146   1.167   3.665  11.818 -0.1671  0.6313  0.7580
19911TIP3   OH281147   1.248   2.621  13.679  0.0381 -0.2548  0.1774
19911TIP3    H181148   1.201   2.552  13.633 -1.5036 -0.4321  1.8987
19911TIP3    H281149   1.315   2.651  13.617 -1.7549 -0.6253 -2.0500
19912TIP3   OH281150   4.142   4.554   6.581  0.0526 -0.4218 -0.2539
19912TIP3    H181151   4.101   4.495   6.643 -1.4514  0.0400 -0.7611
19912TIP3    H281152   4.072   4.614   6.555  0.8921  0.0111 -1.6325
19913TIP3   OH281153   2.344   2.256  12.943  0.1847  0.2402 -0.0912
19913TIP3    H181154   2.425   2.205  12.940 -0.6240 -1.1085  0.6086
19913TIP3    H281155   2.371   2.344  12.913  2.0640  0.0509  0.9010
19914TIP3   OH281156   2.003   5.873  15.559 -0.0139  0.3704  0.2507
19914TIP3    H181157   2.090   5.845  15.587 -0.5978 -0.8207  0.9807
19914TIP3    H281158   2.005   5.968  15.565  1.7051  0.4710 -1.2120
19915TIP3   OH281159   0.882   5.317   5.349 -0.0111  0.7201  0.3363
19915TIP3    H181160   0.949   5.308   5.416 -0.1602  1.0841  0.5356
19915TIP3    H281161   0.909   5.256   5.280  0.0786  0.2647  0.7724
19916TIP3   OH281162   5.878   5.372  13.220  0.5055  0.3863  0.2042
19916TIP3    H181163   5.788   5.374  13.251  0.2684  1.8605 -0.5021
19916TIP3    H281164   5.932   5.392  13.297  0.3211 -1.2913  0.8112
19917TIP3   OH281165   3.731   3.908  12.298  0.1828 -0.5374  0.1788
19917TIP3    H181166   3.701   3.827  12.257 -0.2413 -0.2474 -0.0896
19917TIP3    H281167   3.730   3.973  12.227 -0.6956  0.0050  0.6712
19918TIP3   OH281168   4.305   2.276   5.551  0.0313 -0.4338 -0.3031
19918TIP3    H181169   4.292   2.195   5.600  0.6286 -0.4952 -0.2368
19918TIP3    H281170   4.323   2.342   5.618 -4.1529  0.6495  0.0321
19919TIP3   OH281171   3.388   1.570   6.236 -0.1313 -0.5504  0.3229
19919TIP3    H181172   3.350   1.571   6.324 -1.3286  0.0353 -0.1746
19919TIP3    H281173   3.405   1.663   6.216 -1.8640 -0.4270 -0.8520
19920TIP3   OH281174   6.567   4.318   4.002 -0.0983 -0.0919 -0.1612
19920TIP3    H181175   6.504   4.383   3.972 -0.1045 -0.0889 -0.1419
19920TIP3    H281176   6.595   4.274   3.922 -1.4746 -1.3306  0.0179
19921TIP3   OH281177   2.804   3.232  14.864  0.1740 -0.6294  0.0188
19921TIP3    H181178   2.760   3.179  14.932 -0.6281  0.4883  0.4021
19921TIP3    H281179   2.880   3.180  14.838 -0.3160 -1.7371  0.7426
19922TIP3   OH281180   6.578   0.078  13.142 -0.2653 -0.7557 -0.1141
19922TIP3    H181181   6.655   0.093  13.198 -0.8152 -1.8662  0.9820
19922TIP3    H281182   6.615   0.068  13.054  0.7164  0.0189  0.1831
19923TIP3   OH281183   4.868   6.466  14.220 -0.5617 -0.2243 -0.1698
19923TIP3    H181184   4.868   6.371  14.209  1.7931 -0.4830  1.4070
19923TIP3    H281185   4.854   6.479  14.314 -1.7525  1.0741 -0.4876
19924TIP3   OH281186   0.645   1.772   1.692  0.5926  0.2828  0.1533
19924TIP3    H181187   0.562   1.819   1.696  1.5944  2.0453  1.5460
19924TIP3    H281188   0.702   1.827   1.638  1.0784 -0.5507 -0.2102
19925TIP3   OH281189   6.740   5.746   5.328  0.1995 -0.1516 -0.0770
19925TIP3    H181190   6.807   5.692   5.371  1.2572  1.7963  0.8539
19925TIP3    H281191   6.788   5.793   5.260 -0.5756  0.0900 -0.4630
19926TIP3   OH281192   5.328   2.225   0.814 -0.0875  0.5909 -0.2419
19926TIP3    H181193   5.394   2.267   0.868 -0.1704  1.7889 -1.0211
19926TIP3    H281194   5.367   2.141   0.789  1.2120  1.3275 -0.7941
19927TIP3   OH281195   6.188   6.240   5.869  0.3686 -0.0466  0.0264
19927TIP3    H181196   6.110   6.286   5.898  0.7732  0.7134 -0.0672
19927TIP3    H281197   6.248   6.309   5.840  1.7304 -0.4485  1.6621
19928TIP3   OH281198   5.873   3.811  11.040 -0.2836  0.3484 -0.4547
19928TIP3    H181199   5.946   3.775  11.090 -0.8196 -1.4635 -0.9114
19928TIP3    H281200   5.910   3.831  10.954 -0.1016  0.3685 -0.3716
19929TIP3   OH281201   5.349   2.624   5.340 -0.3191  0.5392  0.4100
19929TIP3    H181202   5.306   2.612   5.425 -1.6225 -1.3713 -0.4419
19929TIP3    H281203   5.297   2.691   5.296 -0.2631  0.7906  0.7240
19930TIP3   OH281204   1.082   4.101   1.734 -0.4923 -0.0567  0.2938
19930TIP3    H181205   1.106   4.137   1.648  0.1272 -0.9054  0.1015
19930TIP3    H281206   1.144   4.030   1.748  0.9195  1.4936  2.4784
19931TIP3   OH281207   1.557   0.519  12.348 -0.0394  0.2800  0.4465
19931TIP3    H181208   1.538   0.522  12.442  1.3360 -2.7780  0.9370
19931TIP3    H281209   1.505   0.447  12.315  0.1077  0.8128 -0.9898
19932TIP3   OH281210   0.568   3.011  16.884  0.3980 -0.6995  0.9875
19932TIP3    H181211   0.652   3.046  16.854 -0.5093  0.1997 -0.5833
19932TIP3    H281212   0.539   3.071  16.952 -0.9033  1.4662 -1.3355
19933TIP3   OH281213   2.488   6.238  17.477 -0.0458  0.7894  0.7826
19933TIP3    H181214   2.493   6.260  17.571  0.0616 -0.6738  1.1447
19933TIP3    H281215   2.579   6.243  17.447 -0.1528  1.8605  0.5911
19934TIP3   OH281216   4.442   3.047   0.227 -0.1443  0.0141 -0.3622
19934TIP3    H181217   4.470   2.978   0.166  0.6945  0.6465 -0.7189
19934TIP3    H281218   4.518   3.105   0.232 -0.2015 -0.0272  1.2985
19935TIP3   OH281219   4.858   6.027   2.966  0.0035  0.1998  0.1011
19935TIP3    H181220   4.819   6.093   2.908 -0.2162 -0.8042 -0.9220
19935TIP3    H281221   4.933   6.072   3.005  1.1877  0.4458 -2.2598
19936TIP3   OH281222   5.881   5.277  15.076 -0.3244  0.1377  0.6490
19936TIP3    H181223   5.945   5.349  15.071 -1.3292  1.0129  0.0790
19936TIP3    H281224   5.893   5.229  14.995 -1.6935  1.4711 -0.4069
19937TIP3   OH281225   4.107   0.309  11.730 -0.5802 -0.0229 -0.7925
19937TIP3    H181226   4.106   0.374  11.800  1.0380 -1.3713  0.6060
19937TIP3    H281227   4.200   0.297  11.710 -0.8756 -1.4180 -1.4657
19938TIP3   OH281228   5.606   4.826  14.111 -0.2002 -0.8063 -0.3989
19938TIP3    H181229   5.544   4.896  14.092 -0.4538 -1.2597 -1.3211
19938TIP3    H281230   5.559   4.766  14.168 -1.0794 -1.7696 -2.0569
19939TIP3   OH281231   4.104   4.473  13.752 -0.2908  0.2328 -0.0873
19939TIP3    H181232   4.040   4.473  13.681  0.0144  1.7719 -0.3819
19939TIP3    H281233   4.143   4.385  13.749  0.8275  0.7185 -2.8615
19940TIP3   OH281234   6.094   1.443   4.583 -0.4150 -0.1007 -0.5646
19940TIP3    H181235   6.136   1.357   4.584 -1.3132 -0.5578 -0.9942
19940TIP3    H281236   6.141   1.491   4.514  1.2658  0.3917  0.8667
19941TIP3   OH281237   4.410   2.436   1.039 -0.4146 -0.4623  0.1628
19941TIP3    H181238   4.376   2.452   1.127  1.4805  0.7835  0.7471
19941TIP3    H281239   4.475   2.505   1.026 -1.0122 -0.2858 -2.4521
19942TIP3   OH281240   6.478   5.152   3.655 -0.2369 -0.1602 -0.2186
19942TIP3    H181241   6.539   5.219   3.688 -1.3968  1.2622 -0.8262
19942TIP3    H281242   6.392   5.182   3.683 -1.0523  0.0168 -2.6892
19943TIP3   OH281243   0.913   1.182   0.507  0.2412  0.4581  0.0889
19943TIP3    H181244   0.875   1.183   0.419  0.1545  0.5178  0.1276
19943TIP3    H281245   1.002   1.150   0.494  0.0545 -0.0599  0.0434
19944TIP3   OH281246   1.897   1.657  14.438 -0.0271  0.1193 -0.2392
19944TIP3    H181247   1.883   1.660  14.533 -2.5855  0.6850 -0.5554
19944TIP3    H281248   1.912   1.748  14.413  0.8981 -0.0609 -0.3683
19945TIP3   OH281249   3.466   2.333   3.118 -0.0110 -0.2625  0.1679
19945TIP3    H181250   3.514   2.410   3.088 -0.9365  0.1108 -0.4197
19945TIP3    H281251   3.429   2.359   3.202  1.9269 -1.0344  1.3155
19946TIP3   OH281252   5.076   6.298   1.355 -0.6346  0.1763 -0.4150
19946TIP3    H181253   5.015   6.306   1.428  0.0214 -0.2774  0.2044
19946TIP3    H281254   5.054   6.215   1.314  0.2922 -0.5820  0.5368
19947TIP3   OH281255   5.149   1.928  15.998 -0.7447  0.2385  0.1134
19947TIP3    H181256   5.066   1.898  15.960 -1.0501  0.7711  0.3373
19947TIP3    H281257   5.141   2.023  15.998 -0.7315  0.2553  1.4318
19948TIP3   OH281258   3.805   5.239  14.381 -0.2815 -0.6325 -0.2319
19948TIP3    H181259   3.719   5.229  14.341 -1.4743  0.4910  1.8844
19948TIP3    H281260   3.805   5.176  14.454  0.3247  0.0264  0.3518
19949TIP3   OH281261   4.338   2.512  10.708  0.5048  0.6841 -0.1839
19949TIP3    H181262   4.350   2.512  10.613  1.6526  0.0837 -0.0600
19949TIP3    H281263   4.384   2.591  10.737  1.3625  0.1434 -0.0180
19950TIP3   OH281264   5.817   4.888   3.827 -0.4366  0.3747 -0.0513
19950TIP3    H181265   5.757   4.818   3.854 -1.2794  0.8252 -0.7027
19950TIP3    H281266   5.872   4.903   3.904  0.0648 -1.3024 -0.0481
19951TIP3   OH281267   4.431   0.615  14.879 -0.0948 -0.3499 -0.4784
19951TIP3    H181268   4.437   0.649  14.789  1.7604 -0.6311 -0.4983
19951TIP3    H281269   4.443   0.692  14.934 -0.0250 -0.3542 -0.4874
19952TIP3   OH281270   0.438   4.015  17.315 -0.4308 -0.7684 -0.3576
19952TIP3    H181271   0.488   4.022  17.397 -0.9249 -0.9570 -0.0334
19952TIP3    H281272   0.412   3.923  17.310  0.2323 -0.9186 -1.1144
19953TIP3   OH281273   5.811   2.821  16.635 -0.0923 -0.1224 -0.2412
19953TIP3    H181274   5.810   2.872  16.715  0.1589  0.0146 -0.3248
19953TIP3    H281275   5.772   2.879  16.569  0.0343 -0.1002 -0.2970
19954TIP3   OH281276   6.290   3.509   4.061  0.0427  0.4752  0.3970
19954TIP3    H181277   6.203   3.546   4.076  1.0495  3.0057  0.4429
19954TIP3    H281278   6.315   3.471   4.145  0.4295  3.0379  1.5010
19955TIP3   OH281279   5.009   2.091  17.394  0.1096  0.4578  0.4350
19955TIP3    H181280   4.985   2.176  17.430  1.5866  1.0750  0.0591
19955TIP3    H281281   5.105   2.092  17.392  0.1493 -1.0433  0.0042
19956TIP3   OH281282   6.631   0.831  16.637 -0.0503 -0.0634 -0.4558
19956TIP3    H181283   6.684   0.908  16.620  0.9667 -0.8546 -0.9666
19956TIP3    H281284   6.677   0.783  16.706 -1.6688  0.7069  1.2556
19957TIP3   OH281285   5.366   5.032  13.738  0.0463 -0.3938  0.1678
19957TIP3    H181286   5.383   5.100  13.804  1.4566 -1.4574  0.9535
19957TIP3    H281287   5.274   5.045  13.714  0.0982  1.3859  0.7363
19958TIP3   OH281288   3.082   2.650  13.490 -0.0002 -0.0238 -0.0907
19958TIP3    H181289   3.080   2.556  13.504  1.1124  0.2686  2.5515
19958TIP3    H281290   3.136   2.661  13.411  2.2294 -1.5124  1.1293
19959TIP3   OH281291   4.928   6.046   4.893 -0.2791 -0.1231  0.2965
19959TIP3    H181292   4.869   5.972   4.879  0.5016 -1.8406  4.6103
19959TIP3    H281293   4.869   6.120   4.908 -1.3477 -1.2280  1.8464
19960TIP3   OH281294   4.758   5.491  16.209  0.4798  0.1640 -0.2397
19960TIP3    H181295   4.830   5.550  16.229 -0.1426  0.6210  0.7692
19960TIP3    H281296   4.700   5.542  16.152 -0.0823  0.5724  0.6716
19961TIP3   OH281297   4.711   1.512  13.943  0.0614  0.3038 -0.0272
19961TIP3    H181298   4.716   1.461  13.863 -0.0342 -1.0129  0.7803
19961TIP3    H281299   4.696   1.448  14.012  3.2043  1.0079  1.5016
19962TIP3   OH281300   6.403   1.568  15.940  0.3271  0.5107 -0.3921
19962TIP3    H181301   6.410   1.478  15.973 -0.1216  0.3486 -0.7253
19962TIP3    H281302   6.488   1.585  15.899  0.6692  0.4959  0.3024
19963TIP3   OH281303   3.244   4.847  14.575  0.2333  0.1228 -0.2203
19963TIP3    H181304   3.305   4.919  14.563  0.9296 -0.4575 -0.2726
19963TIP3    H281305   3.214   4.825  14.486  1.1642 -0.6032 -0.3738
19964TIP3   OH281306   1.653   2.828  11.398 -0.0261  0.0171 -0.6829
19964TIP3    H181307   1.637   2.754  11.457  1.7001  0.0582 -0.1007
19964TIP3    H281308   1.567   2.868  11.386 -0.4660  0.0140  1.8465
19965TIP3   OH281309   6.038   2.300  17.068 -0.3121  0.2384 -0.5329
19965TIP3    H181310   6.081   2.281  16.985 -1.3218  0.3689 -1.0882
19965TIP3    H281311   6.052   2.394  17.081  1.5509 -0.1082  0.4485
19966TIP3   OH281312   5.984   2.901  11.724  0.0383 -0.1560 -0.5839
19966TIP3    H181313   5.984   2.995  11.707 -2.0931  0.2210  1.1969
19966TIP3    H281314   5.974   2.861  11.637 -1.0802  1.3266 -1.1656
19967TIP3   OH281315   1.766   3.366   0.823  0.7130  0.0433 -0.5306
19967TIP3    H181316   1.828   3.297   0.798 -1.9264 -2.6184 -0.3104
19967TIP3    H281317   1.745   3.410   0.741  0.9877 -0.7277 -1.0247
19968TIP3   OH281318   0.196   4.662   0.367 -0.0063 -0.0911  0.5003
19968TIP3    H181319   0.138   4.624   0.301  0.2385 -1.3838  1.0069
19968TIP3    H281320   0.154   4.745   0.390 -0.6104 -0.0866 -0.5527
19969TIP3   OH281321   6.617   3.179   6.533 -0.2670 -0.3303 -0.4657
19969TIP3    H181322   6.632   3.262   6.488 -0.4819  1.5780  2.7339
19969TIP3    H281323   6.523   3.164   6.525 -0.0881 -0.9169 -1.9460
19970TIP3   OH281324   0.582   5.099  17.353  0.4193 -0.3668  0.0590
19970TIP3    H181325   0.567   5.005  17.361 -0.8504 -0.1988 -0.1507
19970TIP3    H281326   0.505   5.132  17.306 -0.1449  1.0618  1.8652
19971TIP3   OH281327   6.343   0.925   4.581 -0.3229 -0.3671 -0.0778
19971TIP3    H181328   6.427   0.881   4.566  0.3069  0.9082 -0.3644
19971TIP3    H281329   6.299   0.920   4.496 -0.9780 -1.8749  0.3089
19972TIP3   OH281330   4.444   3.704  16.843  0.2828  0.3585  0.4362
19972TIP3    H181331   4.535   3.719  16.872 -0.2932  2.2257  1.4844
19972TIP3    H281332   4.402   3.664  16.919 -0.3889  2.0472  1.0149
19973TIP3   OH281333   6.638   1.700  16.239 -0.2390 -0.9162  0.1299
19973TIP3    H181334   6.656   1.744  16.156  0.5502  0.8431  1.1830
19973TIP3    H281335   6.542   1.701  16.247 -0.2592  0.4101 -0.0177
19974TIP3   OH281336   0.654   0.777  14.730 -0.2877  0.1845  0.0431
19974TIP3    H181337   0.570   0.824  14.733 -2.0463 -2.6931  2.0083
19974TIP3    H281338   0.700   0.807  14.809 -1.6641 -1.5670  1.6292
19975TIP3   OH281339   0.076   0.468   3.207 -0.6167 -0.1709  0.1760
19975TIP3    H181340   0.123   0.443   3.286  2.5516  2.0346 -0.7629
19975TIP3    H281341   0.064   0.563   3.215  0.3707  0.2237 -2.1616
19976TIP3   OH281342   4.561   1.655   0.074 -0.1053  0.5412  0.0822
19976TIP3    H181343   4.607   1.648  -0.010 -0.2063  2.2280 -0.1448
19976TIP3    H281344   4.477   1.694   0.051  0.2963  2.0416  1.0956
19977TIP3   OH281345   0.191   5.393   2.616  0.0154  0.5724  0.5192
19977TIP3    H181346   0.137   5.452   2.669 -0.8216 -0.2421  0.6214
19977TIP3    H281347   0.253   5.355   2.678  0.5273  1.2942  0.4606
19978TIP3   OH281348   4.739   3.043  12.866  0.1292  0.0799  0.0017
19978TIP3    H181349   4.752   3.043  12.960 -0.8258  0.0691  0.1412
19978TIP3    H281350   4.812   3.094  12.831 -0.8207  2.2051  0.9494
19979TIP3   OH281351   3.784   2.580   4.529 -0.3095 -0.3034  0.4453
19979TIP3    H181352   3.704   2.528   4.541 -1.7955  2.3333  3.5367
19979TIP3    H281353   3.832   2.570   4.611  1.4854 -0.0464 -0.5132
19980TIP3   OH281354   4.717   5.219  14.462  0.1437  0.8391  0.0717
19980TIP3    H181355   4.771   5.159  14.512 -0.3859  0.0820 -0.2515
19980TIP3    H281356   4.779   5.285  14.428  0.2584  2.8199  3.6454
19981TIP3   OH281357   4.927   3.469  14.953  0.1248 -0.2942 -0.7239
19981TIP3    H181358   4.850   3.444  15.003 -0.3504  2.5689  0.1656
19981TIP3    H281359   5.000   3.461  15.014 -0.3128  2.1935  0.2510
19982TIP3   OH281360   1.706   3.507   3.331  0.0648 -0.0204  0.5318
19982TIP3    H181361   1.629   3.465   3.367  1.1750 -1.9010  0.8092
19982TIP3    H281362   1.678   3.597   3.313 -2.3066 -0.7784  0.1552
19983TIP3   OH281363   3.803   2.315   4.129  0.1706  0.1734  0.0145
19983TIP3    H181364   3.855   2.387   4.165 -0.4109  0.7137 -0.1952
19983TIP3    H281365   3.861   2.273   4.066  0.7112  0.1024  0.5599
19984LIG      O81366   4.992   4.997  16.451 -0.2573  0.1342  0.4577
19984LIG     C181367   5.114   5.070  16.424  0.0947  0.2304 -0.4579
19984LIG     C281368   5.079   5.212  16.438 -0.4629  0.0224  0.0711
19984LIG     C381369   5.222   5.015  16.514  0.1456 -0.3156  0.7623
19984LIG     H181370   5.150   5.041  16.323  1.1448 -2.2679  0.5620
19984LIG     H281371   5.034   5.246  16.533 -0.6185  0.1533 -0.0485
19984LIG     H381372   5.003   5.237  16.361  0.4380  1.5366 -0.3794
19984LIG     H481373   5.171   5.266  16.407  0.4019 -2.3099 -1.7414
19984LIG     H581374   5.240   4.907  16.495  1.3496  0.0103 -0.1034
19984LIG     H681375   5.199   5.043  16.619  0.0366  1.6430  0.2473
19984LIG     H781376   5.321   5.061  16.492  0.5053 -1.3431  0.1411
19984LIG     H881377   4.942   5.028  16.375 -1.1505 -1.1629  0.4849
   6.74610   6.74610  17.48933
